/*--------------------------------*- C++ -*----------------------------------*\
  =========                 |
  \\      /  F ield         | OpenFOAM: The Open Source CFD Toolbox
   \\    /   O peration     | Website:  https://openfoam.org
    \\  /    A nd           | Version:  dev
     \\/     M anipulation  |
\*---------------------------------------------------------------------------*/
FoamFile
{
    version     2.0;
    format      ascii;
    class       volScalarField;
    location    "6.2";
    object      p;
}
// * * * * * * * * * * * * * * * * * * * * * * * * * * * * * * * * * * * * * //

dimensions      [0 2 -2 0 0 0 0];

internalField   nonuniform List<scalar> 
2790
(
146.859
146.767
147.034
147.605
148.385
149.342
150.474
151.781
153.258
154.899
156.698
158.649
160.743
162.968
165.308
167.744
170.248
172.787
175.319
177.793
180.151
182.329
184.259
185.88
187.14
188.014
188.45
188.505
188.556
188.769
146.656
146.674
146.966
147.534
148.311
149.265
150.393
151.693
153.162
154.795
156.585
158.526
160.609
162.822
165.152
167.578
170.073
172.607
175.137
177.615
179.983
182.179
184.133
185.782
187.066
187.94
188.337
188.392
188.524
188.809
146.458
146.545
146.857
147.414
148.178
149.119
150.232
151.514
152.962
154.57
156.332
158.241
160.289
162.465
164.753
167.135
169.587
172.078
174.57
177.018
179.367
181.56
183.532
185.222
186.573
187.549
188.142
188.497
188.813
189.111
146.233
146.351
146.675
147.224
147.973
148.898
149.991
151.249
152.668
154.243
155.966
157.832
159.83
161.951
164.179
166.497
168.882
171.305
173.732
176.122
178.43
180.601
182.583
184.323
185.777
186.929
187.797
188.468
189.021
189.54
145.972
146.104
146.437
146.978
147.71
148.614
149.682
150.909
152.291
153.822
155.496
157.305
159.241
161.292
163.444
165.679
167.977
170.312
172.654
174.967
177.212
179.347
181.33
183.12
184.691
186.033
187.163
188.126
188.937
189.684
145.671
145.809
146.144
146.676
147.388
148.266
149.302
150.491
151.828
153.308
154.923
156.665
158.526
160.494
162.555
164.693
166.888
169.117
171.354
173.57
175.732
177.81
179.772
181.593
183.256
184.757
186.104
187.309
188.329
189.247
145.329
145.468
145.799
146.318
147.007
147.855
148.854
149.999
151.285
152.705
154.252
155.918
157.693
159.565
161.523
163.548
165.624
167.73
169.843
171.939
173.994
175.985
177.893
179.703
181.409
183.01
184.504
185.883
187.047
188.094
144.944
145.081
145.405
145.908
146.571
147.385
148.342
149.438
150.665
152.018
153.489
155.068
156.747
158.513
160.353
162.252
164.193
166.157
168.125
170.077
171.994
173.862
175.669
177.411
179.09
180.709
182.264
183.736
184.986
186.136
144.518
144.651
144.965
145.448
146.082
146.858
147.769
148.81
149.973
151.252
152.638
154.122
155.695
157.343
159.054
160.812
162.602
164.405
166.204
167.983
169.727
171.425
173.073
174.673
176.235
177.77
179.279
180.749
182.02
183.259
144.051
144.179
144.48
144.94
145.543
146.277
147.138
148.119
149.213
150.411
151.706
153.087
154.544
156.065
157.634
159.238
160.859
162.482
164.088
165.661
167.19
168.664
170.082
171.45
172.783
174.102
175.422
176.76
177.961
179.265
143.546
143.668
143.953
144.388
144.956
145.647
146.454
147.37
148.389
149.502
150.699
151.97
153.304
154.687
156.104
157.54
158.977
160.398
161.785
163.12
164.388
165.578
166.685
167.713
168.677
169.606
170.537
171.536
172.498
173.817
143.004
143.118
143.386
143.795
144.326
144.969
145.719
146.568
147.508
148.53
149.624
150.779
151.982
153.219
154.474
155.731
156.969
158.17
159.312
160.374
161.336
162.178
162.886
163.452
163.879
164.189
164.433
164.741
165.123
166.297
142.427
142.534
142.783
143.163
143.655
144.249
144.939
145.717
146.575
147.502
148.489
149.522
150.588
151.673
152.758
153.824
154.851
155.815
156.69
157.449
158.062
158.497
158.719
158.694
158.391
157.794
156.92
155.929
154.982
155.488
141.818
141.916
142.146
142.495
142.946
143.489
144.117
144.822
145.594
146.424
147.3
148.207
149.133
150.059
150.968
151.837
152.642
153.356
153.947
154.379
154.609
154.586
154.248
153.516
152.293
150.465
147.903
144.604
140.659
138.627
141.178
141.268
141.478
141.796
142.205
142.695
143.259
143.888
144.573
145.303
146.065
146.845
147.626
148.392
149.119
149.786
150.363
150.819
151.116
151.206
151.033
150.522
149.577
148.062
145.784
142.453
137.611
130.599
120.145
107.936
0.872817
0.853095
0.787544
0.698634
0.608176
0.526579
0.456868
0.39882
0.351005
0.311586
0.27868
0.250538
0.226062
0.204222
0.184167
0.165269
0.147112
0.129464
0.112295
0.0956343
0.0796407
0.064551
0.050736
0.0384862
0.0279015
0.0189576
0.0116563
0.00607196
0.00228224
-0.00022963
0.827804
0.805944
0.744546
0.66285
0.579876
0.504738
0.440237
0.38631
0.341718
0.30478
0.273779
0.247286
0.223945
0.202826
0.183232
0.16463
0.146654
0.129105
0.111893
0.0951052
0.0789493
0.0637788
0.0499601
0.0377576
0.0272442
0.018364
0.0111437
0.00563059
0.00209773
0.000611432
0.777849
0.75201
0.693235
0.618373
0.54358
0.476018
0.41795
0.369336
0.329039
0.295472
0.267038
0.242396
0.220436
0.200336
0.181473
0.163359
0.145663
0.128213
0.110975
0.094065
0.077737
0.0623888
0.0484723
0.0362954
0.0258657
0.0169978
0.00960965
0.00427075
0.00129832
0.000752946
0.729504
0.69946
0.64244
0.573431
0.506316
0.446066
0.394359
0.351097
0.31518
0.285057
0.259222
0.236491
0.21597
0.196963
0.178904
0.16134
0.14399
0.126731
0.109565
0.0926298
0.0762097
0.0607533
0.0468379
0.0348202
0.0246153
0.0159155
0.00861688
0.0033135
0.000395953
-0.000333461
0.695532
0.661267
0.605684
0.540807
0.479272
0.424203
0.376995
0.337556
0.304805
0.277157
0.253148
0.231759
0.212273
0.194073
0.176628
0.159482
0.14241
0.125334
0.108277
0.0913829
0.0749408
0.0594305
0.0455801
0.0337657
0.0236718
0.014928
0.00748168
0.00248981
0.000287278
-0.000466799
0.687709
0.648055
0.593116
0.529418
0.469825
0.416375
0.370558
0.33237
0.300721
0.273893
0.250421
0.229457
0.210342
0.192428
0.175222
0.158194
0.141182
0.124157
0.107164
0.0903351
0.0739113
0.0584049
0.0447865
0.0335133
0.0240584
0.0155744
0.00794101
0.0020681
-0.000766856
-0.000898742
0.716899
0.669191
0.61189
0.544481
0.481169
0.424487
0.376131
0.336077
0.303125
0.275335
0.251088
0.229504
0.209905
0.191702
0.174412
0.157222
0.140146
0.123233
0.106544
0.0901029
0.0739647
0.0584395
0.0442272
0.0322658
0.0227363
0.0147216
0.00773607
0.00216578
-0.000994573
-0.00101699
0.788883
0.730728
0.662937
0.58511
0.511638
0.446646
0.391857
0.34703
0.310906
0.281249
0.255429
0.232188
0.211216
0.191845
0.173368
0.155681
0.138338
0.121295
0.104651
0.0884514
0.0727057
0.0576179
0.0437229
0.03183
0.0221968
0.0142319
0.00737993
0.00168412
-0.00181969
-0.00124402
0.903375
0.824714
0.737364
0.64235
0.554008
0.477709
0.414549
0.362696
0.319793
0.284732
0.256053
0.231807
0.210325
0.190648
0.171993
0.154025
0.136567
0.119666
0.103351
0.0874758
0.071856
0.056616
0.042404
0.0301908
0.0204914
0.0128914
0.00651492
0.000927432
-0.00262127
-0.00143837
1.03952
0.928001
0.812009
0.696301
0.592736
0.502794
0.429049
0.37063
0.324532
0.2872
0.256439
0.230655
0.208396
0.188372
0.16949
0.1512
0.133523
0.116768
0.100998
0.0857787
0.070503
0.0550432
0.0401788
0.0273245
0.0175044
0.0104719
0.004905
-0.000183573
-0.00340029
-0.0016033
1.15828
1.01306
0.867581
0.727829
0.607944
0.510533
0.432164
0.370211
0.321838
0.283388
0.251952
0.225797
0.203678
0.184094
0.165467
0.147011
0.129101
0.112605
0.0977415
0.0836003
0.0688275
0.0528657
0.0367477
0.022731
0.0127265
0.00666711
0.00250183
-0.00154665
-0.00408555
-0.00173215
1.25015
1.05408
0.877892
0.721025
0.592386
0.492059
0.414292
0.354246
0.308167
0.271777
0.241608
0.216341
0.195519
0.177535
0.159892
0.141326
0.122888
0.106632
0.093224
0.0809484
0.067086
0.0502901
0.0320087
0.0159541
0.00557389
0.00111044
-0.00071438
-0.00302919
-0.00462389
-0.00181525
1.25396
0.990215
0.792618
0.638155
0.521351
0.435105
0.369346
0.31859
0.280775
0.251067
0.224691
0.201428
0.183151
0.168489
0.153024
0.134297
0.114566
0.0982551
0.087097
0.0780122
0.0658199
0.0477671
0.0259494
0.00644377
-0.00470585
-0.00662709
-0.00466367
-0.00438878
-0.00495612
-0.00184491
1.0011
0.675355
0.538715
0.450628
0.378536
0.332239
0.295685
0.262575
0.239285
0.22193
0.201828
0.180543
0.16578
0.157187
0.146036
0.126865
0.10405
0.0867145
0.0789192
0.075253
0.0660601
0.0461527
0.0186932
-0.00652695
-0.0191952
-0.0171368
-0.00910957
-0.00515139
-0.00498084
-0.00181598
0.304362
-0.0794224
0.0179102
0.143241
0.156451
0.191163
0.206069
0.189307
0.181135
0.184943
0.175556
0.154444
0.143051
0.14452
0.141207
0.120405
0.0905073
0.0697986
0.0671471
0.0729455
0.069229
0.0467067
0.0104793
-0.0239748
-0.0395216
-0.03133
-0.013577
-0.00441375
-0.00449901
-0.00172799
140.499
140.58
140.769
141.053
141.418
141.853
142.351
142.903
143.498
144.124
144.769
145.417
146.051
146.65
147.193
147.652
147.995
148.187
148.18
147.92
147.333
146.325
144.76
142.446
139.084
134.178
126.809
115.062
92.9148
33.1789
139.772
139.843
140.009
140.259
140.578
140.956
141.385
141.856
142.358
142.878
143.402
143.914
144.396
144.826
145.178
145.425
145.531
145.455
145.144
144.534
143.54
142.05
139.904
136.871
132.592
126.485
117.516
103.952
84.4272
55.9618
139.003
139.064
139.207
139.421
139.692
140.011
140.369
140.757
141.164
141.575
141.976
142.351
142.679
142.937
143.1
143.135
143.006
142.666
142.06
141.117
139.746
137.826
135.192
131.616
126.769
120.199
111.313
99.4727
85.2247
68.5743
138.192
138.243
138.362
138.539
138.762
139.021
139.307
139.611
139.921
140.222
140.5
140.737
140.912
141
140.975
140.804
140.446
139.855
138.973
137.726
136.025
133.751
130.752
126.832
121.744
115.194
106.884
96.4827
83.9245
68.7692
137.342
137.383
137.477
137.617
137.791
137.989
138.203
138.422
138.635
138.827
138.982
139.082
139.106
139.029
138.822
138.452
137.879
137.056
135.924
134.413
132.438
129.892
126.646
122.544
117.404
111.028
103.214
93.7187
82.3745
69.3877
136.456
136.486
136.556
136.658
136.782
136.919
137.06
137.195
137.312
137.395
137.43
137.396
137.274
137.037
136.658
136.102
135.331
134.298
132.948
131.217
129.028
126.288
122.894
118.726
113.654
107.541
100.267
91.7312
81.9234
71.2563
135.535
135.554
135.599
135.664
135.738
135.815
135.884
135.936
135.958
135.936
135.853
135.691
135.428
135.041
134.5
133.774
132.824
131.608
130.076
128.169
125.821
122.959
119.499
115.355
110.44
104.675
98.0038
90.4166
81.9561
72.9582
134.583
134.592
134.612
134.639
134.665
134.682
134.681
134.651
134.581
134.457
134.261
133.977
133.582
133.054
132.366
131.486
130.38
129.009
127.328
125.288
122.834
119.908
116.449
112.398
107.701
102.318
96.2351
89.4727
82.0804
74.3306
133.603
133.602
133.599
133.589
133.567
133.525
133.456
133.347
133.189
132.966
132.664
132.264
131.747
131.091
130.269
129.255
128.016
126.517
124.722
122.588
120.073
117.132
113.724
109.81
105.361
100.362
94.8196
88.7674
82.2593
75.5229
132.6
132.589
132.562
132.517
132.448
132.35
132.215
132.031
131.788
131.473
131.071
130.565
129.936
129.164
128.225
127.095
125.745
124.146
122.266
120.074
117.535
114.618
111.296
107.546
103.356
98.7269
93.6757
88.2421
82.4792
76.5721
131.578
131.557
131.508
131.428
131.315
131.163
130.965
130.71
130.388
129.986
129.491
128.888
128.158
127.284
126.244
125.017
123.578
121.903
119.968
117.745
115.213
112.349
109.137
105.565
101.634
97.3513
92.742
87.8449
82.7082
77.4802
130.542
130.512
130.441
130.328
130.173
129.97
129.712
129.39
128.994
128.514
127.935
127.244
126.425
125.462
124.337
123.03
121.523
119.795
117.826
115.599
113.096
110.305
107.216
103.828
100.146
96.1848
91.9691
87.5354
82.9258
78.2596
129.498
129.459
129.367
129.224
129.028
128.777
128.464
128.08
127.617
127.063
126.409
125.64
124.744
123.706
122.51
121.141
119.584
117.821
115.84
113.627
111.172
108.466
105.509
102.302
98.856
95.1869
91.3194
87.2861
83.1227
78.9256
128.45
128.404
128.293
128.12
127.887
127.592
127.227
126.787
126.262
125.644
124.922
124.086
123.124
122.023
120.771
119.355
117.763
115.983
114.006
111.821
109.425
106.814
103.989
100.958
97.7307
94.3258
90.7655
87.0782
83.2944
79.4917
127.406
127.352
127.223
127.024
126.757
126.42
126.009
125.517
124.938
124.262
123.482
122.588
121.57
120.418
119.123
117.674
116.061
114.278
112.316
110.172
107.842
105.329
102.635
99.7692
96.7442
93.5764
90.2864
86.8988
83.4389
79.9702
126.372
126.311
126.165
125.941
125.643
125.269
124.817
124.279
123.65
122.925
122.094
121.151
120.088
118.897
117.57
116.099
114.478
112.701
110.765
108.668
106.41
103.994
101.427
98.7159
95.875
92.9191
89.8667
86.7388
83.5566
80.3719
125.354
125.286
125.126
124.88
124.553
124.146
123.656
123.078
122.407
121.638
120.766
119.783
118.684
117.463
116.113
114.63
113.01
111.249
109.346
107.301
105.116
102.796
100.347
97.7801
95.1058
92.3386
89.4948
86.5921
83.6486
80.7067
124.359
124.286
124.112
123.846
123.494
123.058
122.535
121.922
121.215
120.41
119.502
118.487
117.36
116.117
114.754
113.268
111.656
109.917
108.051
106.06
103.948
101.72
99.3832
96.9471
94.4228
91.823
89.1621
86.4551
83.7172
80.9836
123.395
123.316
123.131
122.847
122.473
122.011
121.46
120.817
120.079
119.244
118.308
117.268
116.121
114.863
113.494
112.011
110.412
108.7
106.874
104.938
102.897
100.755
98.5218
96.2049
93.8149
91.3632
88.8624
86.3253
83.765
81.2102
122.469
122.385
122.19
121.89
121.497
121.013
120.437
119.769
119.006
118.146
117.187
116.129
114.967
113.702
112.332
110.857
109.276
107.593
105.808
103.926
101.952
99.8921
97.7531
95.5437
93.2734
90.9523
88.5914
86.2019
83.7946
81.3938
121.588
121.5
121.296
120.983
120.573
120.07
119.474
118.785
118
117.121
116.146
115.074
113.903
112.635
111.269
109.805
108.245
106.592
104.848
103.018
101.108
99.1222
97.0689
94.9559
92.7916
90.5852
88.3462
86.0844
83.8093
81.5407
120.76
120.669
120.457
120.132
119.708
119.189
118.577
117.87
117.069
116.175
115.187
114.106
112.931
111.663
110.304
108.854
107.316
105.694
103.99
102.209
100.357
98.4393
96.463
94.4355
92.3645
90.2583
88.1251
85.9737
83.8121
81.6571
119.993
119.9
119.68
119.346
118.91
118.378
117.751
117.031
116.217
115.312
114.315
113.228
112.052
110.788
109.438
108.003
106.488
104.895
103.229
101.493
99.6945
97.838
95.9301
93.9778
91.9883
89.9688
87.927
85.8703
83.8058
81.7477
119.296
119.2
118.975
118.632
118.185
117.642
117.005
116.273
115.45
114.536
113.534
112.445
111.269
110.011
108.671
107.253
105.76
104.195
102.563
100.869
99.1176
97.315
95.4671
93.5803
91.6611
89.7163
87.7525
85.7765
83.7946
81.8186
118.677
118.578
118.348
117.997
117.542
116.99
116.343
115.604
114.773
113.854
112.848
111.758
110.585
109.333
108.004
106.602
105.129
103.59
101.989
100.332
98.6224
96.8667
95.0704
93.2396
91.3803
89.4985
87.6005
85.6922
83.7794
81.8718
118.145
118.044
117.807
117.45
116.987
116.428
115.775
115.029
114.193
113.27
112.263
111.173
110.005
108.76
107.441
106.053
104.599
103.083
101.51
99.8836
98.21
96.4941
94.7414
92.9576
91.1482
89.3189
87.4754
85.6232
83.7675
81.9167
117.711
117.606
117.362
116.996
116.527
115.962
115.303
114.552
113.713
112.787
111.78
110.692
109.527
108.289
106.98
105.605
104.167
102.67
101.12
99.52
97.8758
96.1924
94.475
92.729
90.9596
89.1723
87.3721
85.5642
83.7534
81.9467
117.385
117.274
117.021
116.649
116.175
115.605
114.942
114.188
113.346
112.419
111.411
110.326
109.165
107.932
106.632
105.267
103.842
102.361
100.829
99.25
97.6291
95.9712
94.2814
92.5649
90.8266
89.0718
87.3053
85.5319
83.7563
81.9847
117.183
117.048
116.778
116.4
115.924
115.352
114.686
113.93
113.087
112.16
111.154
110.07
108.912
107.684
106.39
105.033
103.618
102.148
100.628
99.0634
97.4582
95.8175
94.1461
92.4492
90.7315
88.998
87.2533
85.5021
83.7489
81.9984
117.165
116.966
116.668
116.283
115.804
115.229
114.56
113.802
112.958
112.032
111.026
109.944
108.789
107.565
106.275
104.924
103.515
102.053
100.541
98.9862
97.3913
95.7617
94.1022
92.4176
90.7128
88.9925
87.2613
85.5237
83.784
82.0465
-50.5686
-30.3221
-11.1512
35.5905
28.1495
16.1237
51.063
38.9727
27.7596
52.4898
42.065
34.02
56.8307
48.541
41.7822
61.2193
54.3092
48.4167
64.4942
58.6119
53.5623
67.092
62.0665
57.757
69.282
64.9493
61.2402
71.1308
67.3518
64.1246
72.6854
69.355
66.518
73.9953
71.0328
68.5144
75.101
72.4433
70.1872
76.0348
73.6318
71.5941
76.8233
74.6351
72.7807
77.4883
75.4826
73.7834
78.048
76.1983
74.6312
78.5178
76.8021
75.3479
78.9105
77.3102
75.9529
79.2373
77.7366
76.4624
79.5076
78.0928
76.8901
79.7301
78.3893
77.2478
79.9115
78.6341
77.5449
80.0598
78.8364
77.7914
80.1776
78.9995
77.9916
80.2766
79.1358
78.158
80.3482
79.2373
78.2842
80.4209
79.3327
78.3969
80.4549
79.383
78.4611
80.5239
79.4662
78.5508
-2.81181
-2.70335
-1.23273
-0.0930056
-0.060697
0.0334617
0.0983245
0.0776671
0.0933007
0.152855
0.163204
0.127899
0.110195
0.126263
0.139801
0.11668
0.0732706
0.0452174
0.0509397
0.0734392
0.0793865
0.0524914
0.00213024
-0.0474807
-0.0685853
-0.0510375
-0.017278
-0.000395892
-0.0030064
-0.00158594
2.3558
-0.576622
1.01105
0.479482
-0.850292
-0.616215
0.00974298
0.0554332
0.0708898
0.172084
0.156983
0.0633571
0.0317099
0.0971899
0.162612
0.132981
0.0580537
0.00891645
0.023427
0.0744967
0.0981056
0.0640844
-0.00824436
-0.0815183
-0.112177
-0.0798664
-0.0187137
0.0105412
0.00082116
-0.00142526
13.4973
5.12619
2.3348
-0.107584
-0.442058
0.948531
1.13501
-0.140345
-0.523281
-0.173727
0.175043
0.0730119
0.017747
0.144382
0.231461
0.151748
0.00984937
-0.0787409
-0.0400921
0.0796505
0.145622
0.0971771
-0.0101745
-0.120994
-0.170645
-0.120022
-0.0148657
0.0352161
0.0102706
-0.00135984
23.2637
13.3836
7.51275
3.74212
2.00476
1.44199
0.26244
-0.41332
-0.0729762
1.09747
1.01689
-0.0652172
-0.453994
-0.257561
0.199228
0.246117
0.010415
-0.140033
-0.0632017
0.150158
0.233516
0.137571
-0.0274973
-0.196973
-0.280429
-0.20387
-0.0054578
0.0838362
0.0314204
-0.00173213
32.4347
22.6664
15.3471
10.0571
6.42399
3.95399
2.09497
1.09326
0.816257
0.825242
0.320361
-0.268606
-0.35886
0.511756
1.04986
0.480183
-0.124633
-0.470045
-0.429166
0.0214041
0.320621
0.217547
-0.0186046
-0.25584
-0.37447
-0.228536
0.0338506
0.172517
0.0723676
-0.00330924
40.414
31.4846
23.5964
17.1655
12.2424
8.60185
5.93442
4.05652
2.78777
1.8871
1.12029
0.526136
0.29184
0.540009
0.544473
0.294627
-0.175402
-0.49107
-0.241667
0.576093
0.762323
0.286331
-0.0657704
-0.39501
-0.631941
-0.567813
-0.00134847
0.299914
0.136996
-0.0085214
46.9259
39.1172
31.3392
24.4485
18.8255
14.3702
10.8524
8.10305
6.01066
4.43972
3.21971
2.25875
1.61212
1.27912
1.00449
0.66236
0.188294
-0.125537
-0.017701
0.350992
0.482335
0.293711
-0.038008
-0.420955
-0.68068
-0.406987
0.370835
0.56895
0.214548
-0.0217814
52.2294
45.4953
38.2353
31.4048
25.5234
20.5812
16.4449
13.0264
10.2595
8.04693
6.25947
4.81414
3.70804
2.91462
2.29412
1.69691
1.10635
0.689863
0.573399
0.65426
0.66659
0.453978
0.0832905
-0.293474
-0.495715
-0.291783
0.174018
0.40649
0.309699
-0.0630797
56.5555
50.7365
44.1503
37.676
31.859
26.7497
22.2834
18.425
15.1449
12.3871
10.0752
8.15052
6.58337
5.33245
4.30263
3.3968
2.6019
1.99032
1.61725
1.41893
1.21904
0.889149
0.471785
0.0934229
-0.109222
-0.0244776
0.249243
0.400315
0.266241
-0.301933
60.086
55.0167
49.1125
43.127
37.5737
32.5306
27.9686
23.8834
20.2763
17.1285
14.4029
12.0608
10.0696
8.39055
6.96308
5.72815
4.6647
3.79321
3.12958
2.62714
2.17595
1.6923
1.19205
0.754976
0.471388
0.397122
0.459676
0.442033
0.178092
-0.517011
62.9854
58.5248
53.2435
47.7748
42.579
37.7395
33.2434
29.1023
25.3371
21.9531
18.9382
16.2722
13.9321
11.8905
10.11
8.55254
7.19553
6.03641
5.07148
4.26591
3.553
2.87774
2.23828
1.67798
1.2506
0.980157
0.808051
0.585958
0.17673
-0.592408
65.3869
61.4225
56.6836
51.7044
46.8902
42.3197
37.986
33.9062
30.11
26.616
23.4276
20.5392
17.9398
15.6136
13.5386
11.6905
10.0506
8.6085
7.35316
6.25845
5.28236
4.38745
3.5644
2.83266
2.2192
1.72914
1.3157
0.877843
0.313043
-0.521872
67.3902
63.8342
59.5587
55.0196
50.5738
46.2918
42.1674
38.2179
34.4749
30.963
27.6948
24.6742
21.8997
19.3651
17.0591
14.9677
13.0776
11.378
9.85679
8.49451
7.26358
6.13811
5.10659
4.17392
3.34939
2.6279
1.97276
1.31493
0.583001
-0.330882
69.0704
65.8544
61.9726
57.8201
53.7128
49.7128
45.8128
42.0275
38.3871
34.9181
31.6372
28.5543
25.6743
22.9976
20.5208
18.2371
16.1387
14.217
12.462
10.8597
9.39141
8.03898
6.79098
5.6444
4.59836
3.64299
2.74977
1.87162
0.96132
-0.0553691
70.4855
67.5548
64.0082
60.192
56.3881
52.6514
48.9725
45.3629
41.8502
38.4599
35.2107
32.1151
29.1818
26.4161
23.8194
21.3903
19.1253
17.0193
15.0651
13.2529
11.5703
10.0041
8.5441
7.18372
5.91703
4.73259
3.60823
2.51171
1.4125
0.264672
71.6807
68.991
65.7306
62.2059
58.6708
55.1737
51.7037
48.2687
44.8929
41.6004
38.4094
35.3339
32.3845
29.5692
26.8929
24.3577
21.9635
19.7082
17.5877
15.5955
13.7234
11.9619
10.3024
8.73709
7.25824
5.85442
4.50816
3.19677
1.9
0.59365
72.6916
70.2066
67.1913
63.9192
60.6207
57.3388
54.0611
50.7926
47.5541
44.3671
41.2493
38.2144
35.274
32.4376
29.712
27.1018
24.6094
22.2352
19.9775
17.8327
15.7955
13.8591
12.0165
10.2602
8.58206
6.97137
5.41395
3.89286
2.39318
0.905877
73.5471
71.2362
68.4314
65.3784
62.2873
59.197
56.094
52.9805
49.874
46.7938
43.756
40.7738
37.8588
35.021
32.2686
29.6074
27.0418
24.5739
22.204
19.9307
17.7509
15.6599
13.6521
11.7208
9.85819
8.05455
6.29774
4.57392
2.87022
1.18685
74.2704
72.1081
69.4842
66.621
63.7115
60.7907
57.8447
54.8731
51.8906
48.9142
45.9583
43.035
40.1557
37.3301
34.567
31.8733
29.2541
26.713
24.252
21.8711
19.5689
17.3423
15.187
13.0972
11.0657
9.08357
7.13993
5.22229
3.31786
1.43152
74.8809
72.8455
70.3772
67.6784
64.9272
62.1557
59.3495
56.5063
53.6383
50.7601
47.8844
45.0224
42.1845
39.3802
36.618
33.9054
31.2482
28.6508
26.1162
23.6456
21.2389
18.8942
16.6082
14.3761
12.1912
10.0453
7.92804
5.82735
3.7296
1.6412
75.3948
73.4675
71.133
68.5762
65.9626
63.3219
60.6393
57.9111
55.1471
52.3599
49.5608
46.7596
43.9656
41.1879
38.4348
35.7136
33.0304
30.3902
27.7966
25.2518
22.7564
20.3096
17.9087
15.5498
13.2267
10.9317
8.65461
6.38334
4.10312
1.82005
75.8259
73.9906
71.7706
69.3362
66.8416
64.3147
61.7406
59.1142
56.4436
53.7394
51.0115
48.2685
45.5188
42.7705
40.0317
37.3092
34.6093
31.9372
29.2969
26.691
24.1209
21.5862
19.0853
16.6143
14.1679
11.7384
9.31591
6.8879
4.43868
1.97303
76.1853
74.4279
72.3056
69.9759
67.5837
65.1551
62.6752
60.1381
57.55
54.9203
52.2573
49.5686
46.8615
44.1435
41.4218
38.7032
35.9936
33.2982
30.6212
27.9655
25.3329
22.7235
20.136
17.5672
15.0118
12.4625
9.90926
7.33943
4.73654
2.10357
76.4839
74.792
72.7523
70.5116
68.2065
65.8619
63.463
61.0031
58.4871
55.923
53.3179
50.6785
48.0111
45.3226
42.6193
39.9077
37.1933
34.4814
31.7759
29.08
26.3957
23.7234
21.062
18.4087
15.7583
13.1038
10.435
7.73896
4.99888
2.21545
76.728
75.0904
73.1198
70.9536
68.7216
66.4477
64.1173
61.7231
59.2688
56.7612
54.2067
51.6108
48.9793
46.318
43.6329
40.9299
38.2142
35.4907
32.7634
30.0355
27.309
24.5844
21.8609
19.1358
16.4041
13.6587
10.8896
8.08358
5.22366
2.30826
76.9294
75.3359
73.422
71.317
69.1452
66.9297
64.656
62.3163
59.9135
57.4535
54.9418
52.3833
49.7828
47.1459
44.4777
41.7837
39.0687
36.3375
33.5938
30.8408
28.0804
25.3133
22.5387
19.7539
16.9541
14.1322
11.2782
8.37867
5.41652
2.38712
77.0847
75.5261
73.657
71.6007
69.4767
67.3075
65.0791
62.7831
60.4216
58.0001
55.5232
52.9952
50.4205
47.8039
45.1503
42.4645
39.7514
37.015
34.2592
31.487
28.7001
25.8995
23.0841
20.2515
17.3967
14.5128
11.5894
8.61339
5.56755
2.44504
77.2164
75.6834
73.8484
71.8289
69.7411
67.607
65.4128
63.15
60.8201
58.4279
55.9777
53.4732
50.9185
48.3179
45.6759
42.997
40.2857
37.546
34.7815
31.995
29.1883
26.3623
23.5159
20.6467
17.7497
14.8178
11.8407
8.80485
5.69304
2.49457
77.2973
75.7806
73.9678
71.9734
69.91
67.7994
65.6281
63.3875
61.0788
58.7063
56.2741
53.7855
51.2443
48.6546
46.0205
43.3464
40.6366
37.8949
35.1248
32.3289
29.5092
26.6661
23.799
20.905
17.9794
15.0148
12.0007
8.92332
5.76534
2.51447
77.3863
75.8706
74.0701
72.0907
70.0409
67.9429
65.7838
63.5549
61.2572
58.8948
56.4716
53.9908
51.456
48.8712
46.2404
43.568
40.8579
38.114
35.3397
32.5377
29.7099
26.8568
23.9775
21.0694
18.1276
15.1445
12.1095
9.00787
5.81963
2.52093
)
;

boundaryField
{
    inlet
    {
        type            zeroGradient;
    }
    outlet
    {
        type            fixedValue;
        value           uniform 0;
    }
    flap
    {
        type            zeroGradient;
    }
    upperWall
    {
        type            zeroGradient;
    }
    lowerWall
    {
        type            zeroGradient;
    }
    frontAndBack
    {
        type            empty;
    }
}


// ************************************************************************* //
