/*--------------------------------*- C++ -*----------------------------------*\
  =========                 |
  \\      /  F ield         | OpenFOAM: The Open Source CFD Toolbox
   \\    /   O peration     | Website:  https://openfoam.org
    \\  /    A nd           | Version:  dev
     \\/     M anipulation  |
\*---------------------------------------------------------------------------*/
FoamFile
{
    version     2.0;
    format      ascii;
    class       surfaceScalarField;
    location    "6.2";
    object      phi;
}
// * * * * * * * * * * * * * * * * * * * * * * * * * * * * * * * * * * * * * //

dimensions      [0 3 -1 0 0 0 0];

internalField   nonuniform List<scalar> 
5457
(
0.198418
0.00158236
0.19648
0.00193733
0.194192
0.00228802
0.191509
0.0026835
0.188428
0.00308111
0.184951
0.00347666
0.181073
0.00387846
0.176779
0.00429389
0.172051
0.00472809
0.166865
0.00518509
0.161197
0.00566837
0.155016
0.0061809
0.148291
0.00672484
0.14099
0.00730121
0.133081
0.00790938
0.124534
0.00854634
0.115329
0.0092058
0.105452
0.0098771
0.0949075
0.010544
0.083724
0.0111835
0.0719594
0.0117646
0.0597111
0.0122483
0.0471223
0.0125888
0.0343821
0.0127403
0.0216869
0.0126952
0.00903665
0.0126503
-0.00291682
0.0119535
-0.00847243
0.00555561
-0.00804314
-0.000429293
-0.00804314
0.199928
0.00165418
0.199176
0.00268973
0.197965
0.0034989
0.196332
0.00431661
0.194272
0.00514107
0.191782
0.00596663
0.188855
0.00680533
0.185478
0.00767064
0.181633
0.00857288
0.177298
0.00952037
0.172446
0.0105204
0.167048
0.0115791
0.161071
0.0127015
0.154483
0.01389
0.147248
0.0151443
0.139335
0.0164594
0.130717
0.0178236
0.121377
0.0192172
0.111312
0.0206088
0.100542
0.0219533
0.0891175
0.0231891
0.0771298
0.024236
0.0647238
0.0249948
0.0521162
0.0253479
0.0396558
0.0251556
0.0281056
0.0242004
0.0185949
0.0214641
0.00879702
0.0153535
0.0011834
0.00718433
-0.00685974
0.199781
0.0018736
0.199087
0.00338353
0.197946
0.00463978
0.196409
0.00585316
0.194483
0.00706712
0.192164
0.00828559
0.189447
0.00952266
0.186322
0.010796
0.182774
0.0121207
0.178785
0.0135091
0.174333
0.0149724
0.169392
0.01652
0.163934
0.0181599
0.157927
0.0198971
0.151338
0.0217325
0.144137
0.023661
0.136291
0.025669
0.127778
0.027731
0.118581
0.0298056
0.108703
0.0318312
0.0981709
0.033721
0.0870486
0.0353583
0.0754518
0.0365916
0.0635745
0.0372251
0.0517326
0.0369975
0.0403972
0.0355358
0.0297389
0.0321225
0.019166
0.0259265
0.00959757
0.0167527
0.00273783
0.199703
0.00217051
0.199008
0.00407881
0.197887
0.00576026
0.196376
0.007364
0.194488
0.00895516
0.192223
0.0105515
0.189575
0.0121703
0.186539
0.0138319
0.183105
0.015555
0.179258
0.0173555
0.174983
0.0192473
0.170261
0.0212426
0.165069
0.0233515
0.159385
0.0255812
0.153184
0.0279341
0.146439
0.0304061
0.139124
0.0329834
0.131217
0.0356383
0.122698
0.0383248
0.113557
0.0409721
0.1038
0.0434779
0.0934573
0.045701
0.0825959
0.0474529
0.0713331
0.048488
0.059841
0.0484896
0.0483169
0.0470599
0.0368109
0.0436285
0.0251878
0.0375496
0.0133355
0.028605
0.0160733
0.199667
0.00250308
0.198964
0.00478203
0.197863
0.00686152
0.196381
0.00884562
0.194533
0.0108039
0.192318
0.012766
0.189734
0.014754
0.186776
0.0167904
0.183434
0.0188966
0.179699
0.0210911
0.175556
0.0233901
0.170991
0.0258075
0.165987
0.0283552
0.160527
0.0310413
0.154592
0.0338696
0.148161
0.0368366
0.141215
0.0399291
0.133734
0.0431198
0.125697
0.0463617
0.117088
0.0495815
0.107894
0.0526715
0.0981149
0.0554801
0.0877649
0.057803
0.0768787
0.0593741
0.0655086
0.0598597
0.0537078
0.0588607
0.0414537
0.0558826
0.0285875
0.0504158
0.0148522
0.0423403
0.0309256
0.199653
0.00285027
0.198949
0.00548606
0.197871
0.00793941
0.196427
0.0102897
0.194627
0.0126038
0.192473
0.0149195
0.189964
0.0172635
0.187093
0.0196611
0.183854
0.0221358
0.180237
0.0247082
0.17623
0.0273965
0.171822
0.0302161
0.166997
0.0331799
0.161741
0.0362972
0.156039
0.0395724
0.149872
0.0430031
0.143224
0.0465773
0.136074
0.0502692
0.128402
0.054034
0.120182
0.0578012
0.111388
0.0614659
0.101989
0.064879
0.0919547
0.0678373
0.0812537
0.0700751
0.0698538
0.0712597
0.0577164
0.0709982
0.0447601
0.0688388
0.0308487
0.0643272
0.0158729
0.0573161
0.0467984
0.19965
0.0032002
0.198954
0.00618201
0.197905
0.00898899
0.196505
0.0116894
0.194763
0.0143459
0.192681
0.0170014
0.190257
0.019687
0.187488
0.0224306
0.184366
0.0252577
0.180883
0.028191
0.177029
0.0312503
0.172793
0.0344526
0.168161
0.0378119
0.163119
0.0413387
0.157653
0.0450386
0.151746
0.0489106
0.145378
0.0529448
0.138529
0.0571187
0.13117
0.0613923
0.123269
0.0657022
0.114782
0.0699528
0.105654
0.074007
0.0958164
0.0776754
0.0851856
0.0807058
0.0736675
0.0827778
0.0611607
0.083505
0.0475544
0.082445
0.032758
0.0791237
0.0167825
0.0732916
0.063581
0.199655
0.00354553
0.198975
0.00686209
0.197959
0.0100047
0.19661
0.013038
0.194934
0.0160219
0.192934
0.0190019
0.190608
0.022013
0.187953
0.0250857
0.184963
0.0282476
0.181631
0.031523
0.177948
0.0349336
0.173902
0.0384978
0.169483
0.0422313
0.164676
0.046146
0.159465
0.0502494
0.153832
0.0545429
0.147757
0.0590201
0.141213
0.0636634
0.134164
0.0684407
0.126567
0.0732991
0.118362
0.0781581
0.109469
0.0829001
0.0997859
0.0873584
0.0891865
0.0913053
0.0775241
0.0944402
0.0646462
0.0963829
0.0504163
0.0966749
0.0347672
0.0947728
0.0177893
0.0902695
0.0813702
0.199664
0.00388134
0.199006
0.00751986
0.19803
0.0109809
0.196739
0.0143294
0.195137
0.0176239
0.193227
0.0209116
0.191009
0.0242308
0.188481
0.0276142
0.185637
0.0310914
0.182472
0.0346886
0.178976
0.0384289
0.175141
0.0423326
0.170956
0.0464171
0.166405
0.0506963
0.161474
0.0551803
0.156143
0.0598742
0.150387
0.0647763
0.144174
0.0698764
0.137462
0.0751522
0.130196
0.0805657
0.122298
0.0860561
0.113666
0.0915315
0.104167
0.0968572
0.0936327
0.10184
0.0818632
0.10621
0.0686478
0.109598
0.0538003
0.111522
0.0372352
0.111338
0.0190826
0.108422
0.100453
0.199677
0.0042041
0.199047
0.00815007
0.198116
0.0119122
0.196888
0.0155576
0.195367
0.0191447
0.193556
0.0227221
0.191456
0.0263305
0.189066
0.0300049
0.186381
0.0337765
0.183396
0.0376733
0.180105
0.04172
0.176499
0.0459386
0.172567
0.0503486
0.168297
0.0549663
0.163673
0.0598051
0.158673
0.0648744
0.15327
0.0701789
0.147429
0.0757173
0.141101
0.08148
0.13422
0.0874466
0.126696
0.0935806
0.118405
0.0998228
0.109183
0.106079
0.0988179
0.112205
0.0870506
0.117977
0.0735876
0.123061
0.0581462
0.126964
0.04055
0.128934
0.0209002
0.128072
0.121353
0.199693
0.00451115
0.199095
0.00874842
0.198213
0.0127937
0.197053
0.0167172
0.19562
0.020578
0.193916
0.0244258
0.191943
0.0283034
0.189701
0.0322477
0.187186
0.0362914
0.184395
0.0404641
0.181323
0.044792
0.177963
0.049299
0.174305
0.0540064
0.170338
0.0589334
0.166046
0.064097
0.161408
0.0695116
0.156398
0.0751892
0.150977
0.0811383
0.145093
0.087364
0.138674
0.0938659
0.131619
0.100636
0.123789
0.107652
0.114995
0.114874
0.104981
0.122218
0.0934165
0.129541
0.079895
0.136583
0.0639647
0.142894
0.045232
0.147667
0.0236099
0.149694
0.144963
0.199711
0.00480045
0.199148
0.0093114
0.19832
0.0136213
0.197234
0.0178035
0.195894
0.0219181
0.194304
0.0260161
0.192465
0.0301418
0.190379
0.0343337
0.188045
0.038626
0.185459
0.0430495
0.182619
0.0476319
0.17952
0.0523986
0.176153
0.0573729
0.17251
0.0625768
0.168576
0.0680309
0.164333
0.0737547
0.159754
0.0797676
0.154804
0.0860888
0.14943
0.0927379
0.14356
0.099736
0.137091
0.107105
0.129878
0.114866
0.121714
0.123037
0.112312
0.13162
0.10127
0.140584
0.0880413
0.149811
0.0719185
0.159017
0.052082
0.167503
0.0278827
0.173893
0.172846
0.19973
0.00507036
0.199205
0.00983615
0.198435
0.0143912
0.197427
0.018812
0.196185
0.02316
0.194714
0.0274872
0.193016
0.0318391
0.191095
0.0362555
0.188949
0.0407718
0.186579
0.0454198
0.183982
0.0502283
0.181157
0.0552243
0.178097
0.0604327
0.174796
0.0658779
0.171243
0.0715838
0.167423
0.0775747
0.163314
0.0838768
0.158884
0.0905189
0.154087
0.0975348
0.148857
0.104965
0.143101
0.112862
0.136679
0.121288
0.129391
0.130325
0.120939
0.140072
0.110879
0.150644
0.098538
0.162153
0.0828948
0.17466
0.0624289
0.187969
0.0351196
0.201202
0.207965
0.199751
0.00531964
0.199267
0.0103204
0.198557
0.0151006
0.19763
0.0197395
0.19649
0.0242998
0.195143
0.0288344
0.193592
0.0333898
0.191841
0.0380068
0.189891
0.0427216
0.187744
0.0475668
0.1854
0.0525722
0.182859
0.0577654
0.180118
0.0631731
0.177175
0.0688212
0.174022
0.0747363
0.17065
0.0809467
0.167043
0.0874838
0.163178
0.0943844
0.159019
0.101693
0.154516
0.109468
0.149594
0.117784
0.144142
0.12674
0.137991
0.136476
0.130883
0.14718
0.122402
0.159125
0.111854
0.172701
0.0980082
0.188505
0.0785259
0.207452
0.0486538
0.231075
0.256619
0.199772
0.00554732
0.19933
0.0107622
0.198684
0.015747
0.197841
0.020583
0.196806
0.0253341
0.195587
0.030054
0.194187
0.0347898
0.192611
0.039583
0.190862
0.0444703
0.188944
0.0494847
0.18686
0.0546565
0.184611
0.060014
0.1822
0.0655845
0.179626
0.071395
0.176888
0.0774738
0.173983
0.0838516
0.170904
0.0905632
0.167638
0.0976504
0.164166
0.105165
0.16046
0.113175
0.156475
0.121769
0.152145
0.13107
0.14737
0.14125
0.141992
0.152559
0.135746
0.16537
0.128162
0.180285
0.118299
0.198369
0.103905
0.221846
0.0776681
0.257311
0.334287
0.00372766
-0.00372766
0.00723776
-0.0035101
0.0100838
-0.00284607
0.0122589
-0.00217502
0.0138595
-0.0016006
0.0149945
-0.00113507
0.0157636
-0.000769083
0.0162536
-0.000490017
0.0165384
-0.000284799
0.0166788
-0.00014039
0.0167238
-4.49472e-05
0.016712
1.17168e-05
0.0166678
4.42028e-05
0.0166147
5.31066e-05
0.0165671
4.76723e-05
0.0165343
3.27942e-05
0.0165208
1.34907e-05
0.0165263
-5.53487e-06
0.0165443
-1.79613e-05
0.0165642
-1.98854e-05
0.0165747
-1.05612e-05
0.0165662
8.55641e-06
0.0165303
3.58415e-05
0.0164635
6.6805e-05
0.0163639
9.96311e-05
0.0162303
0.000133598
0.0160628
0.000167499
0.0158612
0.000201572
0.0156436
0.000217664
0.000168029
0.00345206
-0.00717972
0.00673775
-0.00679579
0.00946757
-0.00557589
0.0116392
-0.00434662
0.0133427
-0.00330418
0.0146738
-0.00246612
0.015716
-0.00181133
0.0165399
-0.00131384
0.0172028
-0.000947785
0.0177503
-0.000687879
0.0182161
-0.000510703
0.0186239
-0.000396104
0.0189952
-0.000327068
0.0193426
-0.000294306
0.0196773
-0.000287087
0.0200063
-0.00029617
0.0203329
-0.00031309
0.0206579
-0.00033058
0.0209816
-0.000341672
0.0213024
-0.000340644
0.0216157
-0.000323866
0.021914
-0.000289712
0.0221909
-0.000241056
0.022443
-0.000185323
0.0226691
-0.000126511
0.0228667
-6.40042e-05
0.0230314
2.87788e-06
0.0231551
7.78485e-05
0.0232517
0.000121055
0.000109747
0.00292117
-0.0101009
0.00561538
-0.00949001
0.00781646
-0.00777696
0.00955584
-0.00608599
0.0109222
-0.00467052
0.0119969
-0.00354087
0.0128489
-0.0026633
0.0135347
-0.00199964
0.0141002
-0.0015133
0.0145808
-0.00116842
0.0150016
-0.000931521
0.0153805
-0.000775055
0.0157309
-0.000677481
0.0160609
-0.000624218
0.0163767
-0.00060297
0.0166831
-0.000602497
0.0169828
-0.000612773
0.0172772
-0.000625022
0.0175668
-0.00063125
0.0178508
-0.000624664
0.0181273
-0.000600421
0.018394
-0.000556412
0.0186497
-0.000496733
0.0188956
-0.000431205
0.0191347
-0.000365618
0.019369
-0.000298291
0.019594
-0.000222094
0.0198107
-0.000138862
0.0200062
-7.44525e-05
-2.47014e-05
0.00233522
-0.0124361
0.00432701
-0.0114818
0.00588053
-0.00933049
0.00708416
-0.00728963
0.00802027
-0.00560663
0.00875082
-0.00427141
0.00932577
-0.00323826
0.00978496
-0.00245884
0.0101612
-0.00188957
0.0104789
-0.0014861
0.0107532
-0.00120583
0.0109943
-0.00101617
0.0112085
-0.000891602
0.0114
-0.000815769
0.0115726
-0.000775554
0.0117288
-0.000758719
0.0118707
-0.000754619
0.0119998
-0.000754178
0.0121177
-0.000749108
0.0122252
-0.000732178
0.0123225
-0.0006977
0.0124081
-0.000642041
0.0124816
-0.000570237
0.0125475
-0.000497153
0.0126115
-0.000429543
0.0126779
-0.000364772
0.0127382
-0.000282389
0.0127856
-0.000186182
0.0128227
-0.000111627
-3.44228e-05
0.00165129
-0.0140874
0.00285596
-0.0126865
0.00369308
-0.0101676
0.00430632
-0.00790287
0.0047604
-0.00606071
0.00509497
-0.00460598
0.00533827
-0.00348156
0.00551175
-0.00263231
0.00563625
-0.00201407
0.00572581
-0.00157566
0.00578452
-0.00126454
0.00581565
-0.0010473
0.00581832
-0.000894266
0.0057943
-0.000791753
0.00574615
-0.000727408
0.00567606
-0.000688622
0.00558649
-0.000665047
0.00548078
-0.000648471
0.0053624
-0.000630734
0.00523419
-0.000603962
0.00509772
-0.000561228
0.00495088
-0.000495207
0.00479027
-0.000409625
0.00462379
-0.000330679
0.00445782
-0.000263571
0.00430004
-0.000206987
0.00413695
-0.0001193
0.00391314
3.76207e-05
0.00362645
0.000175068
0.000180551
0.000861486
-0.0149489
0.0011902
-0.0130152
0.00126154
-0.010239
0.0012471
-0.00788842
0.0011678
-0.00598142
0.0010469
-0.00448507
0.000894452
-0.00332912
0.00071656
-0.00245442
0.000521746
-0.00181925
0.000315637
-0.00136955
9.24424e-05
-0.00104135
-0.000159498
-0.000795356
-0.000432237
-0.000621526
-0.000724305
-0.000499685
-0.00103122
-0.000420493
-0.00135007
-0.000369769
-0.00167758
-0.000337541
-0.00201064
-0.000315406
-0.00234708
-0.000294302
-0.00268667
-0.000264373
-0.00303238
-0.000215512
-0.00339134
-0.000136247
-0.00378384
-1.71218e-05
-0.00423044
0.000115916
-0.00470211
0.000208101
-0.00515306
0.00024396
-0.00554239
0.000270027
-0.00581888
0.000314112
-0.00599839
0.000354577
0.000321326
-0.000108093
-0.0148408
-0.000680134
-0.0124431
-0.00140292
-0.00951617
-0.00211795
-0.00717338
-0.00280682
-0.00529255
-0.00345785
-0.00383405
-0.00407439
-0.00271258
-0.00466654
-0.00186226
-0.00523358
-0.00125221
-0.00577168
-0.000831455
-0.00628706
-0.00052597
-0.006784
-0.000298413
-0.00727089
-0.000134634
-0.00775607
-1.45125e-05
-0.00824225
6.56877e-05
-0.00873041
0.000118392
-0.00922304
0.000155094
-0.00972778
0.000189332
-0.0102513
0.00022922
-0.0107917
0.000276009
-0.0113335
0.000326255
-0.0118466
0.000376926
-0.0122882
0.000424474
-0.0126373
0.000464945
-0.0129209
0.000491723
-0.0131718
0.000494919
-0.013395
0.000493203
-0.0135864
0.000505474
-0.0137397
0.00050795
0.00047412
-0.00112372
-0.0137171
-0.00273821
-0.0108286
-0.0043447
-0.00790968
-0.00585917
-0.00565891
-0.00723166
-0.00392006
-0.00845174
-0.00261396
-0.00953126
-0.00163306
-0.010514
-0.0008795
-0.0114503
-0.000315943
-0.0123572
7.53986e-05
-0.0131953
0.000312147
-0.0139355
0.000441861
-0.0145905
0.000520319
-0.0151756
0.000570634
-0.0157112
0.000601215
-0.0162114
0.000618659
-0.0166813
0.000625001
-0.0171185
0.000626526
-0.0175238
0.000634506
-0.0179051
0.000657329
-0.0182728
0.000693896
-0.0186297
0.000733875
-0.018968
0.000762708
-0.0192725
0.00076943
-0.0195315
0.000750773
-0.01975
0.000713398
-0.019936
0.000679202
-0.0200923
0.0006618
-0.0202281
0.00064375
0.000618034
-0.0023204
-0.0113967
-0.00506774
-0.0080813
-0.00770814
-0.00526928
-0.0101207
-0.00324633
-0.0122691
-0.00177163
-0.0141424
-0.000740721
-0.0157478
-2.76073e-05
-0.0170524
0.000425088
-0.0180641
0.000695704
-0.0188542
0.000865549
-0.0195129
0.000970865
-0.0201021
0.00103102
-0.0206391
0.00105735
-0.0211349
0.00106637
-0.021601
0.00106739
-0.0220439
0.0010615
-0.0224644
0.00104556
-0.022861
0.00102311
-0.0232339
0.0010074
-0.0235887
0.00101214
-0.0239337
0.00103888
-0.024272
0.00107216
-0.0245958
0.00108652
-0.0248882
0.00106184
-0.0251338
0.000996356
-0.0253313
0.000910927
-0.0254901
0.00083793
-0.0256212
0.000792935
-0.0257414
0.000763999
0.000749463
-0.00376865
-0.00762802
-0.00780161
-0.00404834
-0.0115516
-0.00151934
-0.0148041
6.23512e-06
-0.0173892
0.000813434
-0.0193739
0.00124402
-0.0208716
0.00147006
-0.0220314
0.00158491
-0.0229786
0.00164293
-0.0237744
0.00166132
-0.0244578
0.00165428
-0.025054
0.00162719
-0.0255837
0.00158706
-0.026065
0.00154762
-0.0265146
0.00151703
-0.0269428
0.0014897
-0.0273504
0.0014532
-0.027733
0.00140565
-0.0280889
0.00136333
-0.0284252
0.00134842
-0.0287534
0.00136711
-0.0290796
0.00139836
-0.029396
0.00140293
-0.0296822
0.00134801
-0.0299177
0.00123188
-0.0300973
0.00109047
-0.0302325
0.000973137
-0.0303424
0.000902916
-0.0304477
0.000869228
0.000865
-0.00584838
-0.00177964
-0.0113564
0.00145964
-0.0157145
0.00283883
-0.0189981
0.0032898
-0.0214976
0.00331297
-0.0234482
0.00319462
-0.0249915
0.00301329
-0.0262227
0.0028161
-0.0272106
0.00263091
-0.0280226
0.00247331
-0.0287102
0.00234188
-0.0293042
0.00222115
-0.0298236
0.00210647
-0.0302883
0.0020123
-0.0307208
0.0019495
-0.0311356
0.00190455
-0.031532
0.00184962
-0.0318999
0.00177351
-0.0322347
0.00169818
-0.0325469
0.00166059
-0.0328551
0.00167531
-0.0331706
0.00171381
-0.0334848
0.00171719
-0.0337709
0.00163405
-0.0339995
0.00146049
-0.0341607
0.00125171
-0.0342712
0.00108364
-0.0343598
0.000991486
-0.0344493
0.000958693
0.000963882
-0.00785958
0.00607994
-0.0142295
0.00782952
-0.018951
0.00756037
-0.0225069
0.00684571
-0.0252012
0.00600722
-0.0272309
0.00522438
-0.0287889
0.00457124
-0.0300073
0.00403452
-0.030969
0.00359259
-0.0317484
0.00325277
-0.0324079
0.00300137
-0.0329788
0.002792
-0.0334716
0.0025993
-0.0339042
0.00244494
-0.0343076
0.00235285
-0.0347038
0.00230076
-0.0350886
0.00223443
-0.0354408
0.00212572
-0.0357491
0.00200647
-0.0360289
0.00194035
-0.0363112
0.0019577
-0.0366164
0.00201899
-0.0369348
0.00203558
-0.0372286
0.00192782
-0.0374541
0.00168602
-0.0375945
0.00139208
-0.0376746
0.00116374
-0.037738
0.00105487
-0.0378106
0.00103136
0.00104612
-0.00963355
0.0157135
-0.0173345
0.0155305
-0.0226646
0.0128904
-0.0263547
0.0105358
-0.0290041
0.00865663
-0.0309149
0.00713516
-0.0323461
0.00600242
-0.0334598
0.00514824
-0.034323
0.00445579
-0.0350108
0.00394062
-0.0356044
0.00359493
-0.0361334
0.003321
-0.0365847
0.00305064
-0.0369661
0.00282632
-0.0373237
0.00271041
-0.0376953
0.00267236
-0.0380713
0.00261049
-0.0384099
0.00246429
-0.0386854
0.00228197
-0.0389206
0.00217559
-0.0391682
0.00220524
-0.0394631
0.00231395
-0.039794
0.00236648
-0.0401064
0.00224016
-0.0403341
0.00191376
-0.0404486
0.00150653
-0.0404873
0.00120244
-0.0405183
0.0010859
-0.0405741
0.00108721
0.00111338
-0.0128034
0.0285169
-0.0221893
0.0249164
-0.0275063
0.0182075
-0.0307206
0.0137501
-0.0330258
0.0109618
-0.0345677
0.00867711
-0.0356813
0.00711598
-0.0365946
0.00606153
-0.037296
0.00515724
-0.0378288
0.00447343
-0.0383176
0.00408369
-0.0387973
0.00380065
-0.0391996
0.00345296
-0.0395052
0.00313195
-0.0397916
0.0029968
-0.040132
0.00301277
-0.0405092
0.00298771
-0.0408426
0.00279767
-0.0410782
0.00251759
-0.0412498
0.00234719
-0.0414476
0.00240306
-0.041732
0.00259837
-0.0420874
0.00272183
-0.042434
0.0025868
-0.0426719
0.00215167
-0.0427523
0.00158689
-0.0427309
0.00118102
-0.0427176
0.0010726
-0.0427593
0.00112891
0.00117188
-0.018253
0.0467698
-0.0296149
0.0362783
-0.03419
0.0227826
-0.0356722
0.0152322
-0.0373184
0.012608
-0.0381451
0.00950382
-0.0386726
0.00764345
-0.0393616
0.00675054
-0.0399136
0.00570931
-0.0402122
0.00477196
-0.0405331
0.00440463
-0.0409678
0.00423534
-0.041328
0.00381318
-0.0415281
0.00333204
-0.0417032
0.00317196
-0.0420081
0.00331761
-0.0424116
0.00339122
-0.0427609
0.00314701
-0.0429472
0.00270389
-0.0430215
0.00242142
-0.043143
0.00252463
-0.0434152
0.00287048
-0.0438117
0.00311837
-0.0442151
0.00299019
-0.0444754
0.00241203
-0.0445095
0.00162089
-0.0443968
0.0010684
-0.0443191
0.000994836
-0.0443546
0.00116448
0.00123849
0.207447
0.00576007
0.207034
0.0111748
0.206432
0.0163495
0.205647
0.0213674
0.204688
0.0262933
0.203561
0.0311814
0.202271
0.0360792
0.200826
0.0410286
0.19923
0.0460664
0.197489
0.0512259
0.195608
0.0565372
0.193593
0.0620287
0.19145
0.0677278
0.189183
0.0736617
0.186798
0.0798592
0.184298
0.0863516
0.181686
0.0931746
0.178965
0.100371
0.176135
0.107996
0.173193
0.116117
0.170135
0.124826
0.166957
0.134248
0.163654
0.144554
0.160227
0.155986
0.156698
0.168899
0.15316
0.183822
0.149978
0.20155
0.148826
0.222998
0.160485
0.245653
0.258847
0.235925
0.21249
0.00595248
0.212118
0.0115476
0.211574
0.0168931
0.210868
0.0220733
0.210008
0.0271537
0.209
0.0321888
0.207853
0.0372262
0.206574
0.0423077
0.205171
0.0474699
0.203651
0.0527458
0.202023
0.058165
0.200296
0.0637554
0.198481
0.0695436
0.196586
0.0755562
0.194625
0.0818207
0.192609
0.0883672
0.190554
0.0952297
0.188477
0.102449
0.186398
0.110074
0.184348
0.118167
0.182365
0.126809
0.180511
0.136102
0.178885
0.14618
0.177657
0.157214
0.17715
0.169407
0.178016
0.182956
0.181671
0.197896
0.190713
0.213956
0.206151
0.230215
0.245755
0.219243
0.217658
0.0061224
0.217329
0.0118766
0.21685
0.0173717
0.21623
0.0226929
0.215478
0.027906
0.214602
0.0330653
0.213609
0.0382183
0.212511
0.0434062
0.211316
0.0486652
0.210034
0.0540272
0.208678
0.0595211
0.20726
0.0651733
0.205795
0.0710091
0.204298
0.077053
0.202789
0.0833303
0.201288
0.0898677
0.199823
0.096695
0.198425
0.103846
0.197138
0.111362
0.196016
0.119289
0.195138
0.127687
0.194616
0.136623
0.194622
0.146174
0.195419
0.156417
0.197415
0.16741
0.201223
0.179148
0.207611
0.191508
0.217242
0.204325
0.22984
0.217618
0.22881
0.246784
0.222951
0.00626784
0.22267
0.0121578
0.222262
0.0177798
0.221736
0.0232192
0.2211
0.0285415
0.220365
0.0338008
0.219539
0.0390438
0.218634
0.0443111
0.217662
0.0496377
0.216635
0.0550544
0.215567
0.0605883
0.214476
0.0662642
0.213381
0.0721049
0.212301
0.0781321
0.211264
0.0843673
0.2103
0.0908325
0.209444
0.0975508
0.208743
0.104547
0.208255
0.111849
0.208057
0.119487
0.208251
0.127493
0.208978
0.135896
0.21043
0.144721
0.212872
0.153976
0.21665
0.163632
0.222183
0.173615
0.229921
0.183769
0.240438
0.193808
0.25465
0.203405
0.210307
0.273153
0.228374
0.00638694
0.228144
0.0123878
0.227812
0.0181123
0.227385
0.0236454
0.226875
0.0290521
0.22629
0.0343859
0.225641
0.0396923
0.224942
0.0450107
0.224205
0.0503749
0.223445
0.0558138
0.222681
0.0613527
0.221931
0.0670137
0.22122
0.0728166
0.220572
0.0787796
0.22002
0.0849194
0.219601
0.0912519
0.219359
0.0977924
0.219351
0.104556
0.219645
0.111555
0.22033
0.118802
0.221519
0.126304
0.223356
0.134059
0.226027
0.142051
0.229762
0.15024
0.234842
0.158553
0.241595
0.166862
0.250401
0.174963
0.261705
0.182504
0.275983
0.189128
0.19375
0.292541
0.233929
0.00647802
0.233754
0.0125633
0.233502
0.0183645
0.233182
0.0239656
0.232803
0.0294309
0.232376
0.0348123
0.231914
0.0401545
0.23143
0.0454951
0.230938
0.0508662
0.230457
0.0562947
0.230007
0.0618033
0.229609
0.0674113
0.229291
0.0731351
0.229082
0.0789884
0.229019
0.0849827
0.229143
0.0911274
0.229506
0.0974294
0.230169
0.103893
0.231206
0.110518
0.232708
0.1173
0.234788
0.124224
0.237581
0.131266
0.241252
0.13838
0.245992
0.1455
0.252022
0.152522
0.259585
0.159299
0.268923
0.165625
0.280215
0.171211
0.293558
0.175785
0.178832
0.308476
0.23962
0.00653959
0.239502
0.0126814
0.239334
0.0185322
0.239125
0.0241747
0.238884
0.0296715
0.238623
0.0350733
0.238355
0.040423
0.238093
0.0457565
0.237856
0.0511038
0.237661
0.0564894
0.237531
0.0619333
0.237491
0.0674516
0.237569
0.0730568
0.237799
0.0787583
0.23822
0.084562
0.238876
0.0904708
0.239822
0.0964837
0.24112
0.102595
0.242844
0.108794
0.245083
0.115061
0.247939
0.121368
0.251531
0.127673
0.255996
0.133915
0.261483
0.140013
0.268149
0.145857
0.276143
0.151305
0.285586
0.156183
0.296523
0.160274
0.308944
0.163364
0.165185
0.322591
0.245448
0.00657038
0.24539
0.0127396
0.24531
0.0186121
0.245217
0.0242682
0.245119
0.029769
0.245029
0.0351633
0.24496
0.0404921
0.244927
0.0457892
0.244949
0.0510823
0.245045
0.0563934
0.245238
0.0617396
0.245557
0.0671336
0.246029
0.0725841
0.246691
0.0780961
0.247583
0.0836703
0.248751
0.0893034
0.250247
0.0949875
0.252133
0.100709
0.254479
0.106448
0.257364
0.112176
0.260878
0.117854
0.265119
0.123432
0.270193
0.128842
0.276204
0.134001
0.283255
0.138807
0.291425
0.143135
0.300762
0.146846
0.311255
0.149781
0.322836
0.151782
0.152717
0.335304
0.251418
0.00656937
0.251422
0.0127361
0.251432
0.0186013
0.251458
0.0242429
0.251507
0.0297197
0.251592
0.0350785
0.251726
0.040358
0.251925
0.0455899
0.252208
0.0507994
0.252596
0.0560057
0.253112
0.0612232
0.253785
0.0664612
0.254644
0.0717248
0.255725
0.0770148
0.257068
0.0823273
0.258718
0.0876539
0.260724
0.092981
0.263144
0.0982891
0.26604
0.103552
0.269481
0.108735
0.27354
0.113796
0.278292
0.118679
0.283814
0.12332
0.290175
0.127641
0.297431
0.13155
0.305617
0.134949
0.314734
0.137729
0.324736
0.139779
0.335526
0.140993
0.141313
0.34693
0.257532
0.00653583
0.257599
0.0126694
0.257702
0.0184981
0.257849
0.0240965
0.258047
0.0295212
0.258309
0.0348165
0.258648
0.0400189
0.259081
0.0451577
0.259625
0.0502554
0.260302
0.0553287
0.261136
0.0603891
0.262154
0.0654429
0.263387
0.0704918
0.264869
0.075533
0.266637
0.0805588
0.268734
0.0855568
0.271206
0.0905094
0.274102
0.095393
0.277476
0.100178
0.281384
0.104828
0.285882
0.109298
0.291025
0.113536
0.296864
0.117481
0.303438
0.121066
0.310772
0.124217
0.318867
0.126854
0.327697
0.128899
0.337197
0.130279
0.347263
0.130927
0.130824
0.357752
0.263794
0.00646927
0.263925
0.0125387
0.264122
0.0183011
0.264391
0.0238278
0.264739
0.0291724
0.265179
0.0343769
0.265723
0.0394752
0.266386
0.044494
0.267188
0.0494536
0.268149
0.054368
0.269292
0.0592459
0.270644
0.064091
0.272234
0.0689022
0.274093
0.0736737
0.276257
0.078395
0.278763
0.0830508
0.281651
0.0876209
0.284964
0.0920799
0.288745
0.096397
0.293037
0.100536
0.297881
0.104454
0.303314
0.108103
0.309364
0.111431
0.316048
0.114382
0.323368
0.116897
0.331306
0.118916
0.339817
0.120387
0.348833
0.121263
0.358254
0.121506
0.121116
0.367961
0.270207
0.00636953
0.270402
0.0123436
0.270693
0.0180102
0.271084
0.0234367
0.271583
0.0286738
0.272199
0.0337608
0.272945
0.038729
0.273836
0.0436028
0.27489
0.0483999
0.276126
0.053132
0.277566
0.0578054
0.279236
0.0624215
0.281161
0.0669768
0.283371
0.0714635
0.285897
0.075869
0.288772
0.0801765
0.292028
0.0843646
0.2957
0.0884078
0.299821
0.0922757
0.304423
0.0959341
0.309532
0.0993448
0.315169
0.102466
0.321346
0.105254
0.328064
0.107664
0.335308
0.109652
0.343049
0.111176
0.351235
0.112201
0.359798
0.1127
0.368649
0.112655
0.112078
0.377687
0.276774
0.0062367
0.277033
0.0120845
0.277417
0.0176258
0.27793
0.0229242
0.278576
0.028027
0.279366
0.0329709
0.280311
0.0377846
0.281423
0.04249
0.282721
0.0471026
0.284221
0.0516318
0.285944
0.0560821
0.287913
0.0604528
0.290151
0.0647389
0.292683
0.068931
0.295537
0.0730156
0.298738
0.0769753
0.302313
0.0807888
0.30629
0.0844315
0.31069
0.0878754
0.315535
0.0910894
0.320839
0.0940405
0.326611
0.0966939
0.332851
0.0990146
0.339547
0.100968
0.346676
0.102523
0.3542
0.103652
0.362068
0.104333
0.370216
0.104553
0.378563
0.104307
0.103614
0.387028
0.283498
0.00607117
0.283821
0.011762
0.284297
0.0171493
0.284929
0.0222924
0.285721
0.0272352
0.28668
0.0320117
0.287817
0.0366479
0.289143
0.0411636
0.290674
0.045572
0.292425
0.0498808
0.294414
0.0540927
0.296661
0.0582057
0.299187
0.0622136
0.302011
0.0661064
0.305157
0.0698701
0.308644
0.0734879
0.312493
0.0769395
0.316723
0.0802022
0.321347
0.0832508
0.326378
0.0860587
0.33182
0.0885982
0.337673
0.0908414
0.343926
0.0927613
0.350561
0.0943331
0.357549
0.0955351
0.364851
0.0963503
0.372415
0.096768
0.380184
0.0967842
0.388089
0.0964024
0.0956432
0.396059
0.290384
0.00587357
0.290768
0.0113775
0.291335
0.0165828
0.292083
0.0215442
0.293016
0.0263024
0.294139
0.0308886
0.295461
0.0353263
0.296991
0.039633
0.298743
0.0438202
0.30073
0.0478939
0.302967
0.0518555
0.305471
0.0557021
0.308258
0.0594269
0.311344
0.0630197
0.314747
0.0664672
0.318482
0.0697532
0.322562
0.0728595
0.326998
0.0757656
0.331799
0.0784502
0.336967
0.0808907
0.3425
0.0830651
0.34839
0.0849517
0.35462
0.0865307
0.361168
0.0877851
0.368002
0.0887012
0.375082
0.0892702
0.382362
0.0894885
0.389788
0.0893584
0.397302
0.0888883
0.0880994
0.404845
0.297435
0.00564478
0.297879
0.0109327
0.298533
0.0159288
0.299394
0.0206834
0.300463
0.0252339
0.301743
0.0296084
0.303241
0.0338284
0.304965
0.0379091
0.306925
0.0418604
0.309131
0.0456871
0.311597
0.0493896
0.314335
0.0529645
0.317357
0.0564048
0.320676
0.0597008
0.324303
0.0628398
0.328249
0.0658075
0.332521
0.0685876
0.337124
0.0711626
0.342059
0.0735147
0.347324
0.0756258
0.35291
0.0774788
0.358804
0.0790576
0.364987
0.0803487
0.371431
0.081341
0.378105
0.0820273
0.38497
0.0824044
0.391985
0.0824738
0.399102
0.0822418
0.406271
0.0817193
0.080927
0.413443
0.304654
0.00538584
0.305157
0.0104297
0.305895
0.0151907
0.306864
0.0197146
0.308062
0.0240354
0.309492
0.0281787
0.311157
0.0321636
0.313062
0.0360035
0.315216
0.0397068
0.317626
0.0432772
0.320301
0.0467146
0.32325
0.0500153
0.326482
0.0531727
0.330005
0.0561776
0.333826
0.0590189
0.33795
0.0616838
0.342379
0.0641584
0.347114
0.0664283
0.352149
0.0684791
0.357478
0.0702968
0.363088
0.0718687
0.368962
0.0731836
0.375078
0.0742327
0.381409
0.0750101
0.387923
0.0755131
0.394585
0.0757424
0.401356
0.0757029
0.408195
0.0754032
0.415059
0.0748554
0.0740791
0.421907
0.312046
0.00509799
0.312605
0.00987091
0.313424
0.014372
0.314495
0.0186427
0.315817
0.0227137
0.317388
0.0266079
0.319209
0.0303422
0.321284
0.0339284
0.323618
0.0373737
0.326214
0.0406809
0.329079
0.0438496
0.332218
0.0468762
0.335636
0.0497546
0.339337
0.0524765
0.343324
0.0550324
0.347596
0.0574113
0.352153
0.0596018
0.356989
0.0615923
0.362096
0.0633717
0.367463
0.0649295
0.373075
0.0662569
0.378912
0.0673466
0.384951
0.0681938
0.391165
0.0687961
0.397524
0.0691541
0.403995
0.0692714
0.410543
0.0691548
0.417132
0.068814
0.423726
0.0682614
0.0675152
0.43029
0.319615
0.00478254
0.320227
0.00925894
0.321122
0.0134768
0.322292
0.0174732
0.32373
0.0212756
0.325433
0.0249044
0.327401
0.0283746
0.329633
0.0316962
0.332131
0.0348754
0.334898
0.0379147
0.337934
0.0408132
0.341243
0.0435676
0.344825
0.0461726
0.34868
0.0486212
0.352807
0.050905
0.357203
0.0530153
0.361862
0.0549429
0.366775
0.0566789
0.371932
0.0582148
0.377318
0.0595435
0.382916
0.0606591
0.388705
0.0615576
0.394662
0.0622371
0.40076
0.0626978
0.406972
0.0629427
0.413266
0.062977
0.419612
0.0628086
0.425979
0.0624475
0.432334
0.0619059
0.0612
0.438649
0.327365
0.00444085
0.328027
0.00859646
0.328995
0.012509
0.330257
0.0162115
0.331804
0.0197282
0.333632
0.0230771
0.335735
0.026271
0.338112
0.029319
0.340762
0.032226
0.343683
0.0349941
0.346873
0.0376225
0.350333
0.0401083
0.354058
0.0424469
0.358047
0.0446324
0.362294
0.0466582
0.366792
0.0485172
0.371533
0.0502024
0.376504
0.051707
0.381694
0.0530253
0.387085