/*--------------------------------*- C++ -*----------------------------------*\
  =========                 |
  \\      /  F ield         | OpenFOAM: The Open Source CFD Toolbox
   \\    /   O peration     | Website:  https://openfoam.org
    \\  /    A nd           | Version:  dev
     \\/     M anipulation  |
\*---------------------------------------------------------------------------*/
FoamFile
{
    version     2.0;
    format      ascii;
    class       volVectorField;
    location    "6.2";
    object      U;
}
// * * * * * * * * * * * * * * * * * * * * * * * * * * * * * * * * * * * * * //

dimensions      [0 1 -1 0 0 0 0];

internalField   nonuniform List<vector> 
2790
(
(9.94399 0 0.0205231)
(9.87572 0 0.0295875)
(9.77521 0 0.0359892)
(9.64944 0 0.0425559)
(9.50409 0 0.0493851)
(9.34007 0 0.056428)
(9.15655 0 0.0638156)
(8.95263 0 0.0717114)
(8.72748 0 0.0802552)
(8.4801 0 0.0895737)
(8.20929 0 0.099794)
(7.91366 0 0.111046)
(7.5917 0 0.123462)
(7.24179 0 0.137167)
(6.86234 0 0.152276)
(6.4518 0 0.168874)
(6.00888 0 0.187002)
(5.53268 0 0.206625)
(5.02296 0 0.227596)
(4.48044 0 0.249618)
(3.90714 0 0.272183)
(3.30681 0 0.294532)
(2.68526 0 0.315626)
(2.0506 0 0.334294)
(1.41177 0 0.35061)
(0.798016 0 0.372889)
(0.110679 0 0.325049)
(-0.469564 0 -0.114866)
(-0.453781 0 -0.297148)
(-0.231163 0 -0.423856)
(9.9985 0 0.0407027)
(9.98146 0 0.0623822)
(9.93575 0 0.0791394)
(9.86417 0 0.0966238)
(9.77098 0 0.115123)
(9.65716 0 0.134487)
(9.52207 0 0.154974)
(9.36486 0 0.176942)
(9.18473 0 0.200707)
(8.98069 0 0.22655)
(8.75154 0 0.254745)
(8.4959 0 0.285562)
(8.21222 0 0.319253)
(7.89884 0 0.356027)
(7.55405 0 0.396026)
(7.1762 0 0.439271)
(6.76379 0 0.485602)
(6.31567 0 0.534598)
(5.83125 0 0.585473)
(5.31088 0 0.636966)
(4.75615 0 0.687216)
(4.1704 0 0.733658)
(3.55929 0 0.772963)
(2.93154 0 0.801101)
(2.29994 0 0.813755)
(1.69294 0 0.807258)
(1.10715 0 0.747252)
(0.658889 0 0.547928)
(0.186435 0 0.224607)
(-0.00819874 0 -0.453734)
(9.99559 0 0.0432065)
(9.97556 0 0.0752707)
(9.9318 0 0.103345)
(9.8649 0 0.132369)
(9.77779 0 0.163057)
(9.67155 0 0.195396)
(9.54589 0 0.22974)
(9.40015 0 0.266601)
(9.23366 0 0.306469)
(9.04565 0 0.349806)
(8.8351 0 0.397072)
(8.60083 0 0.448723)
(8.34146 0 0.505195)
(8.05552 0 0.566868)
(7.74139 0 0.634018)
(7.39746 0 0.706739)
(7.02212 0 0.784847)
(6.61396 0 0.867735)
(6.17194 0 0.954207)
(5.69564 0 1.04227)
(5.18563 0 1.1289)
(4.64395 0 1.2098)
(4.07479 0 1.27917)
(3.48536 0 1.32934)
(2.88684 0 1.3501)
(2.29946 0 1.32643)
(1.73184 0 1.22078)
(1.21625 0 0.973006)
(0.70114 0 0.570146)
(0.358038 0 -0.156564)
(9.99403 0 0.0494986)
(9.97181 0 0.093205)
(9.92788 0 0.13357)
(9.86225 0 0.174207)
(9.77694 0 0.216431)
(9.67299 0 0.260658)
(9.55032 0 0.307427)
(9.4085 0 0.357412)
(9.24704 0 0.411288)
(9.06535 0 0.469704)
(8.8627 0 0.533301)
(8.63821 0 0.602724)
(8.39086 0 0.678594)
(8.11953 0 0.761479)
(7.82301 0 0.851827)
(7.50002 0 0.949883)
(7.14925 0 1.05556)
(6.76945 0 1.16825)
(6.3595 0 1.28662)
(5.9186 0 1.40828)
(5.44653 0 1.52948)
(4.944 0 1.6447)
(4.41316 0 1.74615)
(3.85826 0 1.82323)
(3.28581 0 1.86137)
(2.70639 0 1.84033)
(2.12564 0 1.72601)
(1.55425 0 1.47786)
(0.957945 0 1.08369)
(0.509424 0 0.502321)
(9.99331 0 0.0572128)
(9.96994 0 0.110957)
(9.92593 0 0.162102)
(9.86146 0 0.213345)
(9.77799 0 0.266353)
(9.67636 0 0.32191)
(9.55655 0 0.380698)
(9.41823 0 0.443484)
(9.26098 0 0.511053)
(9.08434 0 0.584168)
(8.88772 0 0.663586)
(8.6704 0 0.750063)
(8.43161 0 0.844336)
(8.17047 0 0.947087)
(7.88609 0 1.05888)
(7.57749 0 1.18008)
(7.24367 0 1.31069)
(6.88361 0 1.45019)
(6.49629 0 1.59724)
(6.08073 0 1.74934)
(5.63615 0 1.90243)
(5.16211 0 2.05033)
(4.65876 0 2.18419)
(4.1272 0 2.29175)
(3.56939 0 2.35657)
(2.98887 0 2.35732)
(2.38682 0 2.26496)
(1.76638 0 2.04764)
(1.08998 0 1.6914)
(0.536649 0 1.15414)
(9.99302 0 0.0655376)
(9.96923 0 0.1287)
(9.92556 0 0.190111)
(9.86253 0 0.25184)
(9.78129 0 0.315574)
(9.68245 0 0.382314)
(9.56602 0 0.45287)
(9.43172 0 0.528097)
(9.27921 0 0.608876)
(9.10807 0 0.696081)
(8.91779 0 0.790577)
(8.70775 0 0.893223)
(8.4773 0 1.00486)
(8.22569 0 1.12626)
(7.95216 0 1.25809)
(7.6559 0 1.40082)
(7.33604 0 1.55455)
(6.99165 0 1.71888)
(6.62169 0 1.89257)
(6.22501 0 2.07324)
(5.80028 0 2.25686)
(5.34603 0 2.43722)
(4.86069 0 2.60521)
(4.34268 0 2.74823)
(3.79038 0 2.84955)
(3.20255 0 2.8882)
(2.57655 0 2.83823)
(1.91345 0 2.67161)
(1.17274 0 2.37399)
(0.549962 0 1.89439)
(9.99297 0 0.0740736)
(9.96927 0 0.146311)
(9.92637 0 0.21748)
(9.86509 0 0.289287)
(9.78643 0 0.36335)
(9.69085 0 0.440821)
(9.57836 0 0.522654)
(9.44872 0 0.609805)
(9.30166 0 0.70325)
(9.13679 0 0.80396)
(8.95366 0 0.912897)
(8.75172 0 1.03101)
(8.53035 0 1.15922)
(8.28889 0 1.2984)
(8.02661 0 1.4493)
(7.7427 0 1.61249)
(7.43631 0 1.7882)
(7.10641 0 1.97618)
(6.75181 0 2.17542)
(6.37101 0 2.38384)
(5.9621 0 2.59776)
(5.52263 0 2.8114)
(5.04951 0 3.01617)
(4.53898 0 3.19998)
(3.98663 0 3.34669)
(3.38788 0 3.43597)
(2.73722 0 3.4433)
(2.03621 0 3.34148)
(1.24173 0 3.11356)
(0.563505 0 2.69312)
(9.99306 0 0.0825865)
(9.96981 0 0.163603)
(9.92807 0 0.244046)
(9.86885 0 0.325474)
(9.79313 0 0.40944)
(9.70127 0 0.497199)
(9.59324 0 0.589832)
(9.46889 0 0.688389)
(9.32797 0 0.793933)
(9.17016 0 0.907524)
(8.99504 0 1.03021)
(8.80212 0 1.16303)
(8.59083 0 1.30701)
(8.36052 0 1.46309)
(8.11047 0 1.63215)
(7.83982 0 1.81488)
(7.54762 0 2.01168)
(7.23268 0 2.22253)
(6.89351 0 2.44675)
(6.52817 0 2.68271)
(6.13408 0 2.92738)
(5.70784 0 3.17579)
(5.24495 0 3.42039)
(4.73975 0 3.65021)
(4.18545 0 3.85025)
(3.57472 0 4.00089)
(2.89948 0 4.07789)
(2.16207 0 4.05236)
(1.31609 0 3.90166)
(0.583205 0 3.54011)
(9.99326 0 0.0909266)
(9.97072 0 0.180405)
(9.93046 0 0.269663)
(9.87362 0 0.360235)
(9.80118 0 0.45364)
(9.71344 0 0.551201)
(9.61039 0 0.654103)
(9.4919 0 0.763487)
(9.35777 0 0.880496)
(9.20775 0 1.00627)
(9.04147 0 1.14195)
(8.8585 0 1.28866)
(8.65829 0 1.44752)
(8.44024 0 1.61959)
(8.20359 0 1.80587)
(7.94748 0 2.00722)
(7.6708 0 2.22426)
(7.37218 0 2.45729)
(7.0498 0 2.70608)
(6.70127 0 2.9696)
(6.32334 0 3.24569)
(5.91164 0 3.53056)
(5.46034 0 3.8181)
(4.96197 0 4.09901)
(4.40736 0 4.35988)
(3.78634 0 4.5821)
(3.0875 0 4.74106)
(2.31264 0 4.80443)
(1.4106 0 4.74103)
(0.614285 0 4.44186)
(9.99352 0 0.0989902)
(9.97191 0 0.196575)
(9.93341 0 0.294189)
(9.87925 0 0.393409)
(9.81041 0 0.495747)
(9.72717 0 0.602579)
(9.62954 0 0.715172)
(9.51743 0 0.834751)
(9.3907 0 0.962534)
(9.24915 0 1.09974)
(9.09247 0 1.24758)
(8.9203 0 1.40729)
(8.73215 0 1.58006)
(8.52745 0 1.7671)
(8.30546 0 1.96956)
(8.06528 0 2.18849)
(7.80575 0 2.42481)
(7.52532 0 2.67919)
(7.22192 0 2.95195)
(6.89277 0 3.24285)
(6.53402 0 3.55083)
(6.14046 0 3.87353)
(5.70502 0 4.20674)
(5.21843 0 4.54342)
(4.66892 0 4.87246)
(4.04278 0 5.17698)
(3.32359 0 5.43229)
(2.50967 0 5.60192)
(1.54179 0 5.64341)
(0.664019 0 5.41793)
(9.99384 0 0.106702)
(9.9733 0 0.211995)
(9.9368 0 0.317496)
(9.88558 0 0.424847)
(9.82064 0 0.535579)
(9.74226 0 0.651109)
(9.65046 0 0.772775)
(9.54519 0 0.901873)
(9.4264 0 1.03969)
(9.29392 0 1.18751)
(9.14755 0 1.34662)
(8.98697 0 1.51834)
(8.81178 0 1.70399)
(8.62146 0 1.90487)
(8.41534 0 2.12231)
(8.19255 0 2.35761)
(7.95191 0 2.61198)
(7.69181 0 2.88657)
(7.41006 0 3.18232)
(7.10365 0 3.4999)
(6.76834 0 3.83952)
(6.39831 0 4.2006)
(5.98551 0 4.58124)
(5.51902 0 4.97738)
(4.98428 0 5.38136)
(4.36314 0 5.77958)
(3.63175 0 6.14912)
(2.77997 0 6.4506)
(1.73333 0 6.62839)
(0.744769 0 6.50293)
(9.9942 0 0.114003)
(9.97487 0 0.22657)
(9.94056 0 0.339466)
(9.89252 0 0.454414)
(9.83174 0 0.572972)
(9.75852 0 0.696596)
(9.6729 0 0.82668)
(9.5749 0 0.964578)
(9.4645 0 1.11164)
(9.34164 0 1.2692)
(9.20618 0 1.43864)
(9.05789 0 1.62133)
(8.89647 0 1.81868)
(8.7215 0 2.03216)
(8.53241 0 2.26324)
(8.3284 0 2.51345)
(8.10838 0 2.78437)
(7.87084 0 3.07759)
(7.61363 0 3.39476)
(7.33374 0 3.73754)
(7.02691 0 4.10751)
(6.68712 0 4.5061)
(6.30583 0 4.93419)
(5.87099 0 5.39153)
(5.36564 0 5.87542)
(4.76671 0 6.37829)
(4.04049 0 6.88322)
(3.16122 0 7.35343)
(2.02453 0 7.72303)
(0.88062 0 7.75682)
(9.99459 0 0.12085)
(9.97657 0 0.240219)
(9.94462 0 0.359999)
(9.89996 0 0.48199)
(9.84357 0 0.607783)
(9.77576 0 0.738868)
(9.69663 0 0.876681)
(9.60625 0 1.02263)
(9.50466 0 1.1781)
(9.39187 0 1.3445)
(9.26784 0 1.52324)
(9.13245 0 1.71577)
(8.98551 0 1.9236)
(8.82672 0 2.14829)
(8.65567 0 2.39148)
(8.47171 0 2.65494)
(8.27396 0 2.94055)
(8.06111 0 3.25037)
(7.83129 0 3.58673)
(7.5818 0 3.95224)
(7.30877 0 4.34991)
(7.00661 0 4.78325)
(6.66713 0 5.25621)
(6.27834 0 5.77307)
(5.82226 0 6.3378)
(5.27222 0 6.9525)
(4.58419 0 7.61367)
(3.70957 0 8.30085)
(2.48781 0 8.95798)
(1.12426 0 9.29277)
(9.99501 0 0.127207)
(9.97838 0 0.252878)
(9.94891 0 0.379012)
(9.9078 0 0.507475)
(9.85599 0 0.639893)
(9.79383 0 0.777785)
(9.72144 0 0.92262)
(9.63895 0 1.07584)
(9.54649 0 1.23887)
(9.44415 0 1.41315)
(9.33198 0 1.60014)
(9.20998 0 1.80134)
(9.07809 0 2.01832)
(8.93619 0 2.25274)
(8.78402 0 2.50639)
(8.62121 0 2.78119)
(8.44713 0 3.07931)
(8.26085 0 3.40323)
(8.06098 0 3.75582)
(7.84546 0 4.14058)
(7.61129 0 4.56178)
(7.35403 0 5.02483)
(7.06704 0 5.53668)
(6.74024 0 6.10632)
(6.35767 0 6.74543)
(5.89371 0 7.46909)
(5.30029 0 8.29644)
(4.50825 0 9.24795)
(3.26817 0 10.3415)
(1.60458 0 11.3583)
(9.99545 0 0.133047)
(9.98027 0 0.264497)
(9.95339 0 0.396432)
(9.91596 0 0.530775)
(9.86889 0 0.669183)
(9.81254 0 0.813194)
(9.74709 0 0.964301)
(9.67273 0 1.12397)
(9.58966 0 1.29366)
(9.49805 0 1.47482)
(9.39806 0 1.66893)
(9.28981 0 1.87755)
(9.17341 0 2.10228)
(9.04891 0 2.34483)
(8.91629 0 2.60709)
(8.77544 0 2.89112)
(8.62612 0 3.19929)
(8.46787 0 3.53435)
(8.29998 0 3.8996)
(8.12131 0 4.29915)
(7.93013 0 4.73821)
(7.72391 0 5.22362)
(7.49878 0 5.76461)
(7.24886 0 6.37399)
(6.96465 0 7.0702)
(6.6306 0 7.88105)
(6.21389 0 8.85197)
(5.66508 0 10.0659)
(4.68914 0 11.7307)
(2.68659 0 14.5906)
(0.11722 0 -0.115938)
(0.274573 0 -0.103902)
(0.432631 0 -0.0801008)
(0.562076 0 -0.0576338)
(0.658516 0 -0.039235)
(0.726957 0 -0.0249157)
(0.773742 0 -0.0141047)
(0.804243 0 -0.00619698)
(0.822707 0 -0.000638705)
(0.832542 0 0.00306892)
(0.836501 0 0.00535888)
(0.836772 0 0.00655904)
(0.834994 0 0.00688554)
(0.832285 0 0.00671399)
(0.829554 0 0.00624687)
(0.827397 0 0.00561099)
(0.82616 0 0.00490992)
(0.82598 0 0.00427797)
(0.82665 0 0.0038269)
(0.827719 0 0.00362163)
(0.828611 0 0.00369376)
(0.828729 0 0.00397418)
(0.827739 0 0.00433345)
(0.82526 0 0.00471135)
(0.821128 0 0.00506337)
(0.815288 0 0.00536866)
(0.807737 0 0.0055854)
(0.798481 0 0.00572307)
(0.78787 0 0.00555415)
(0.775453 0 0.00423217)
(0.101375 0 -0.274294)
(0.256182 0 -0.253883)
(0.405349 0 -0.202819)
(0.530702 0 -0.15326)
(0.629063 0 -0.112294)
(0.704943 0 -0.0801794)
(0.76366 0 -0.0557186)
(0.809579 0 -0.0375924)
(0.846064 0 -0.0245773)
(0.875726 0 -0.0155651)
(0.900561 0 -0.00959472)
(0.922035 0 -0.00590376)
(0.9412 0 -0.00390841)
(0.958934 0 -0.00305658)
(0.975826 0 -0.00296981)
(0.992311 0 -0.00336076)
(1.00864 0 -0.00397846)
(1.02488 0 -0.00456876)
(1.04108 0 -0.00492297)
(1.0572 0 -0.00489897)
(1.0731 0 -0.00441924)
(1.08852 0 -0.0035215)
(1.10299 0 -0.00232468)
(1.11627 0 -0.000966201)
(1.12825 0 0.00045557)
(1.13885 0 0.00193583)
(1.14801 0 0.00354388)
(1.15516 0 0.00493618)
(1.16044 0 0.00566123)
(1.16559 0 0.00471375)
(0.0811376 0 -0.43488)
(0.215864 0 -0.4022)
(0.336083 0 -0.323851)
(0.43684 0 -0.248313)
(0.51548 0 -0.186193)
(0.576495 0 -0.137593)
(0.62425 0 -0.100608)
(0.662176 0 -0.0731893)
(0.692935 0 -0.0534463)
(0.718601 0 -0.0396541)
(0.740728 0 -0.0303084)
(0.760417 0 -0.024196)
(0.778435 0 -0.0203698)
(0.795285 0 -0.0182066)
(0.811308 0 -0.0171899)
(0.826765 0 -0.0168845)
(0.841839 0 -0.0169234)
(0.856635 0 -0.0170118)
(0.871201 0 -0.0169031)
(0.885528 0 -0.0164072)
(0.899552 0 -0.0154165)
(0.913169 0 -0.0139075)
(0.926287 0 -0.0119978)
(0.938868 0 -0.00993194)
(0.950987 0 -0.00786525)
(0.962768 0 -0.00577787)
(0.974115 0 -0.00351201)
(0.985368 0 -0.00141086)
(0.995835 0 0.000118145)
(1.00657 0 0.000940668)
(0.0614471 0 -0.563629)
(0.170151 0 -0.513949)
(0.254491 0 -0.411082)
(0.325997 0 -0.314817)
(0.380044 0 -0.236836)
(0.421749 0 -0.176254)
(0.454237 0 -0.130358)
(0.479828 0 -0.0964399)
(0.500371 0 -0.0720838)
(0.517343 0 -0.0550683)
(0.531815 0 -0.0434399)
(0.544471 0 -0.0356881)
(0.555711 0 -0.0306651)
(0.565743 0 -0.0276083)
(0.574743 0 -0.0259116)
(0.582864 0 -0.0250615)
(0.590222 0 -0.0246414)
(0.596912 0 -0.0243201)
(0.603019 0 -0.0238236)
(0.608609 0 -0.0229411)
(0.613707 0 -0.0215384)
(0.618296 0 -0.0195731)
(0.622358 0 -0.0172225)
(0.625923 0 -0.0148474)
(0.629163 0 -0.012561)
(0.632277 0 -0.0102358)
(0.635366 0 -0.00771354)
(0.638371 0 -0.00550922)
(0.640397 0 -0.00424695)
(0.642606 0 -0.00256474)
(0.0409602 0 -0.661956)
(0.118131 0 -0.590883)
(0.160967 0 -0.467083)
(0.201162 0 -0.35635)
(0.227793 0 -0.268066)
(0.247785 0 -0.199957)
(0.262445 0 -0.148555)
(0.272935 0 -0.110617)
(0.280249 0 -0.0834217)
(0.285303 0 -0.0643793)
(0.288726 0 -0.051172)
(0.290812 0 -0.0421559)
(0.29159 0 -0.0359378)
(0.290962 0 -0.0317727)
(0.289038 0 -0.0290791)
(0.285937 0 -0.027324)
(0.281776 0 -0.0260889)
(0.276711 0 -0.0250628)
(0.270954 0 -0.0239915)
(0.264697 0 -0.022666)
(0.258048 0 -0.0208951)
(0.251 0 -0.0185685)
(0.243549 0 -0.01592)
(0.235672 0 -0.0135755)
(0.227444 0 -0.0119973)
(0.218875 0 -0.0105849)
(0.210082 0 -0.00831283)
(0.203053 0 -0.00445317)
(0.190105 0 -0.000584886)
(0.172735 0 0.00125783)
(0.0189422 0 -0.724354)
(0.0589421 0 -0.628485)
(0.0561998 0 -0.487815)
(0.0633527 0 -0.368901)
(0.0599831 0 -0.27491)
(0.0557138 0 -0.202837)
(0.0494684 0 -0.148575)
(0.0415262 0 -0.108516)
(0.0320847 0 -0.0799828)
(0.021661 0 -0.0601888)
(0.0106371 0 -0.046227)
(-0.00118336 0 -0.036216)
(-0.0140963 0 -0.0292158)
(-0.0282666 0 -0.0243689)
(-0.0433824 0 -0.02117)
(-0.0592694 0 -0.0190747)
(-0.0757231 0 -0.017709)
(-0.0924943 0 -0.0168145)
(-0.109365 0 -0.0161254)
(-0.126272 0 -0.0153303)
(-0.143356 0 -0.0140017)
(-0.160924 0 -0.0116729)
(-0.179095 0 -0.0081173)
(-0.199337 0 -0.00399533)
(-0.222735 0 -0.000894384)
(-0.246778 0 0.000944979)
(-0.269162 0 0.00303192)
(-0.28653 0 0.00641465)
(-0.295379 0 0.00841276)
(-0.302741 0 0.00701607)
(-0.00633495 0 -0.743349)
(-0.00952505 0 -0.620437)
(-0.0590386 0 -0.469003)
(-0.0890968 0 -0.349072)
(-0.124835 0 -0.255102)
(-0.157328 0 -0.183953)
(-0.188222 0 -0.130754)
(-0.217844 0 -0.0918126)
(-0.246742 0 -0.0646908)
(-0.274736 0 -0.046383)
(-0.301359 0 -0.0332032)
(-0.326664 0 -0.0231647)
(-0.35128 0 -0.0160315)
(-0.375487 0 -0.0110968)
(-0.399848 0 -0.00772863)
(-0.42439 0 -0.00558144)
(-0.448915 0 -0.00416401)
(-0.473792 0 -0.00291099)
(-0.499448 0 -0.00146583)
(-0.526134 0 0.000269604)
(-0.553524 0 0.00227777)
(-0.580449 0 0.00462271)
(-0.604939 0 0.00736054)
(-0.62429 0 0.0098862)
(-0.639173 0 0.0111815)
(-0.65253 0 0.01108)
(-0.664739 0 0.0105616)
(-0.675391 0 0.0104744)
(-0.683798 0 0.0104043)
(-0.688833 0 0.00938127)
(-0.0382491 0 -0.710117)
(-0.0896638 0 -0.564007)
(-0.185382 0 -0.412538)
(-0.258911 0 -0.297271)
(-0.330392 0 -0.209405)
(-0.394225 0 -0.144295)
(-0.450851 0 -0.0962128)
(-0.501489 0 -0.0601783)
(-0.548582 0 -0.0335801)
(-0.594858 0 -0.015351)
(-0.640201 0 -0.00380174)
(-0.679437 0 0.00315234)
(-0.714042 0 0.0076016)
(-0.744915 0 0.0105455)
(-0.772727 0 0.0125014)
(-0.798514 0 0.0136365)
(-0.822853 0 0.0142526)
(-0.845586 0 0.0146901)
(-0.866575 0 0.0151918)
(-0.886083 0 0.0158224)
(-0.904731 0 0.0164823)
(-0.922943 0 0.0170295)
(-0.940498 0 0.0173714)
(-0.956603 0 0.0174579)
(-0.970534 0 0.0171754)
(-0.982394 0 0.0164912)
(-0.992622 0 0.0157639)
(-1.00148 0 0.0152582)
(-1.00861 0 0.0145655)
(-1.01239 0 0.0134154)
(-0.0777131 0 -0.620969)
(-0.180279 0 -0.456979)
(-0.32927 0 -0.311305)
(-0.451869 0 -0.206233)
(-0.564382 0 -0.129986)
(-0.66364 0 -0.074373)
(-0.749948 0 -0.0347054)
(-0.823999 0 -0.00717343)
(-0.880992 0 0.0102837)
(-0.924966 0 0.0208524)
(-0.959769 0 0.026365)
(-0.990975 0 0.0289186)
(-1.01906 0 0.0298983)
(-1.04478 0 0.0300372)
(-1.06878 0 0.0296926)
(-1.09151 0 0.0290327)
(-1.11313 0 0.0280495)
(-1.13355 0 0.0269325)
(-1.15272 0 0.0261032)
(-1.17082 0 0.0259136)
(-1.18829 0 0.0263282)
(-1.20548 0 0.0268857)
(-1.22221 0 0.0269526)
(-1.23771 0 0.0261033)
(-1.25108 0 0.0243313)
(-1.26204 0 0.0220896)
(-1.27098 0 0.0201264)
(-1.27853 0 0.0187872)
(-1.28456 0 0.0177149)
(-1.28754 0 0.0167761)
(-0.129345 0 -0.471454)
(-0.28968 0 -0.298584)
(-0.496123 0 -0.168759)
(-0.667836 0 -0.0792373)
(-0.814628 0 -0.0189836)
(-0.926179 0 0.0143495)
(-1.0112 0 0.032915)
(-1.07492 0 0.0423715)
(-1.12706 0 0.0473027)
(-1.17024 0 0.0497162)
(-1.20688 0 0.0505577)
(-1.23863 0 0.0501039)
(-1.26656 0 0.0487277)
(-1.29167 0 0.0470413)
(-1.31487 0 0.0454058)
(-1.33684 0 0.0437875)
(-1.35777 0 0.0419387)
(-1.37751 0 0.0398659)
(-1.39586 0 0.0380052)
(-1.41304 0 0.0368897)
(-1.42963 0 0.0366264)
(-1.44613 0 0.0366717)
(-1.46243 0 0.0360982)
(-1.47763 0 0.0341861)
(-1.49061 0 0.0309396)
(-1.50081 0 0.0271732)
(-1.50866 0 0.0239867)
(-1.51506 0 0.0218784)
(-1.52014 0 0.0205562)
(-1.52254 0 0.019797)
(-0.204402 0 -0.267882)
(-0.443864 0 -0.0736464)
(-0.698588 0 0.0373117)
(-0.881763 0 0.0808156)
(-1.0198 0 0.0941713)
(-1.12917 0 0.0972315)
(-1.21516 0 0.0955539)
(-1.28338 0 0.0917777)
(-1.338 0 0.0870366)
(-1.38243 0 0.0820985)
(-1.41957 0 0.0773857)
(-1.45133 0 0.0727573)
(-1.47888 0 0.0681942)
(-1.50325 0 0.0641357)
(-1.52559 0 0.060901)
(-1.54684 0 0.0581823)
(-1.5672 0 0.0553157)
(-1.58626 0 0.0520653)
(-1.60365 0 0.0489945)
(-1.61963 0 0.0469717)
(-1.6351 0 0.0462729)
(-1.65089 0 0.0461383)
(-1.66696 0 0.0451636)
(-1.68218 0 0.0422234)
(-1.69497 0 0.0373269)
(-1.70447 0 0.0317681)
(-1.71117 0 0.0272194)
(-1.71638 0 0.02443)
(-1.72052 0 0.0230106)
(-1.72243 0 0.0224337)
(-0.297308 0 0.116413)
(-0.57445 0 0.231843)
(-0.850299 0 0.245262)
(-1.0498 0 0.232162)
(-1.20181 0 0.209135)
(-1.31712 0 0.18454)
(-1.40504 0 0.162131)
(-1.47318 0 0.142898)
(-1.52669 0 0.126698)
(-1.56957 0 0.113672)
(-1.60522 0 0.103442)
(-1.63572 0 0.0947842)
(-1.66196 0 0.0869489)
(-1.68477 0 0.0803859)
(-1.70557 0 0.0756329)
(-1.72571 0 0.0720893)
(-1.74542 0 0.0683938)
(-1.76379 0 0.0638711)
(-1.78 0 0.0593143)
(-1.79438 0 0.0562218)
(-1.80836 0 0.0552274)
(-1.82334 0 0.0552773)
(-1.83941 0 0.0542457)
(-1.85504 0 0.0503744)
(-1.86793 0 0.043604)
(-1.8767 0 0.0358724)
(-1.88201 0 0.029751)
(-1.88579 0 0.0263821)
(-1.88892 0 0.0250434)
(-1.89041 0 0.0246554)
(-0.362139 0 0.539564)
(-0.701882 0 0.563773)
(-1.02569 0 0.483094)
(-1.24059 0 0.400262)
(-1.39393 0 0.330199)
(-1.50454 0 0.271534)
(-1.58612 0 0.226076)
(-1.64843 0 0.191443)
(-1.69669 0 0.163959)
(-1.73474 0 0.142968)
(-1.7666 0 0.12777)
(-1.79456 0 0.11559)
(-1.81865 0 0.104402)
(-1.83896 0 0.0950261)
(-1.8573 0 0.0888515)
(-1.87587 0 0.0850134)
(-1.89493 0 0.0809271)
(-1.91275 0 0.075084)
(-1.92762 0 0.0686564)
(-1.93985 0 0.0642742)
(-1.95178 0 0.0632511)
(-1.96577 0 0.0640888)
(-1.98216 0 0.0635398)
(-1.99875 0 0.0588814)
(-2.01211 0 0.0498839)
(-2.02006 0 0.0393868)
(-2.02353 0 0.0313678)
(-2.02544 0 0.0275922)
(-2.02744 0 0.0266377)
(-2.02854 0 0.0264792)
(-0.483355 0 1.05651)
(-0.914733 0 0.967935)
(-1.27307 0 0.743984)
(-1.4717 0 0.563124)
(-1.60389 0 0.441698)
(-1.69579 0 0.346066)
(-1.76018 0 0.279512)
(-1.80991 0 0.234074)
(-1.84898 0 0.197171)
(-1.87893 0 0.168059)
(-1.90464 0 0.148657)
(-1.92915 0 0.134203)
(-1.95066 0 0.119969)
(-1.96747 0 0.107557)
(-1.98206 0 0.10037)
(-1.99838 0 0.0974036)
(-2.01708 0 0.0937801)
(-2.03485 0 0.0864382)
(-2.04825 0 0.0772419)
(-2.05753 0 0.0709345)
(-2.06653 0 0.0701445)
(-2.07923 0 0.0726412)
(-2.09636 0 0.073363)
(-2.11472 0 0.0681229)
(-2.12912 0 0.0563552)
(-2.1361 0 0.0421534)
(-2.13693 0 0.0316958)
(-2.13628 0 0.0278117)
(-2.137 0 0.0278042)
(-2.13781 0 0.027987)
(-0.717199 0 2.0667)
(-1.25248 0 1.63762)
(-1.63373 0 1.03684)
(-1.76086 0 0.648484)
(-1.83391 0 0.513672)
(-1.89021 0 0.401888)
(-1.92253 0 0.324309)
(-1.95378 0 0.272989)
(-1.98332 0 0.22303)
(-2.00285 0 0.18164)
(-2.01905 0 0.16148)
(-2.03916 0 0.150454)
(-2.05838 0 0.135118)
(-2.07071 0 0.118449)
(-2.07962 0 0.109286)
(-2.09288 0 0.1082)
(-2.11208 0 0.105961)
(-2.131 0 0.0966696)
(-2.14299 0 0.0832975)
(-2.14796 0 0.0742464)
(-2.15246 0 0.074463)
(-2.16329 0 0.0803882)
(-2.18176 0 0.0838489)
(-2.20306 0 0.0784999)
(-2.21935 0 0.0632476)
(-2.22508 0 0.0439071)
(-2.222 0 0.0301)
(-2.21762 0 0.0266196)
(-2.21689 0 0.0286177)
(-2.21766 0 0.0294246)
(9.9959 0 0.138442)
(9.98225 0 0.27523)
(9.95811 0 0.412513)
(9.92454 0 0.552258)
(9.88243 0 0.696142)
(9.83217 0 0.845719)
(9.774 0 1.00249)
(9.70817 0 1.16794)
(9.63494 0 1.34353)
(9.55461 0 1.53072)
(9.46743 0 1.731)
(9.37367 0 1.94593)
(9.2736 0 2.17712)
(9.16747 0 2.42634)
(9.05554 0 2.69548)
(8.93802 0 2.98668)
(8.8151 0 3.3024)
(8.68692 0 3.64553)
(8.55355 0 4.01958)
(8.41499 0 4.42893)
(8.27116 0 4.87923)
(8.12196 0 5.37793)
(7.9673 0 5.93521)
(7.80747 0 6.56542)
(7.64365 0 7.28964)
(7.48081 0 8.14046)
(7.33214 0 9.17182)
(7.28763 0 10.4773)
(7.74481 0 12.2016)
(7.92459 0 14.9198)
(9.99638 0 0.143401)
(9.98434 0 0.285085)
(9.96306 0 0.42724)
(9.93352 0 0.571867)
(9.89657 0 0.720655)
(9.85263 0 0.875165)
(9.80198 0 1.0369)
(9.74494 0 1.20734)
(9.68186 0 1.38795)
(9.61312 0 1.58017)
(9.5391 0 1.78548)
(9.46022 0 2.00543)
(9.37692 0 2.24161)
(9.28968 0 2.49575)
(9.19902 0 2.76975)
(9.10551 0 3.06572)
(9.00981 0 3.38607)
(8.91267 0 3.73367)
(8.815 0 4.11197)
(8.71799 0 4.52522)
(8.62322 0 4.97885)
(8.53308 0 5.47989)
(8.45126 0 6.03766)
(8.38402 0 6.66476)
(8.34254 0 7.37841)
(8.34885 0 8.20203)
(8.44176 0 9.1658)
(8.67715 0 10.303)
(9.3237 0 11.5585)
(9.8131 0 12.6484)
(9.99688 0 0.147838)
(9.98651 0 0.293896)
(9.96819 0 0.44039)
(9.94283 0 0.589335)
(9.91121 0 0.742427)
(9.87378 0 0.901217)
(9.83087 0 1.0672)
(9.78285 0 1.24184)
(9.73015 0 1.42656)
(9.67325 0 1.6228)
(9.61265 0 1.83199)
(9.54891 0 2.05563)
(9.48265 0 2.29526)
(9.41457 0 2.55255)
(9.34545 0 2.82929)
(9.27623 0 3.12749)
(9.208 0 3.44941)
(9.1421 0 3.79771)
(9.08021 0 4.17549)
(9.02456 0 4.58651)
(8.97815 0 5.03539)
(8.94527 0 5.5278)
(8.9322 0 6.07072)
(8.94845 0 6.67256)
(9.00853 0 7.34277)
(9.13456 0 8.09)
(9.35754 0 8.91617)
(9.687 0 9.81023)
(10.2529 0 10.7209)
(10.9407 0 11.4384)
(9.9974 0 0.151699)
(9.98874 0 0.301557)
(9.97347 0 0.451795)
(9.95239 0 0.604433)
(9.92623 0 0.761156)
(9.89545 0 0.923499)
(9.86042 0 1.09293)
(9.82158 0 1.27089)
(9.77944 0 1.45876)
(9.73454 0 1.65792)
(9.6875 0 1.86976)
(9.63901 0 2.09567)
(9.58986 0 2.33713)
(9.54096 0 2.59568)
(9.49333 0 2.87296)
(9.44823 0 3.17078)
(9.40713 0 3.49115)
(9.37186 0 3.83633)
(9.34472 0 4.2089)
(9.32869 0 4.61183)
(9.32768 0 5.04854)
(9.34701 0 5.52286)
(9.39392 0 6.03892)
(9.47832 0 6.6007)
(9.6134 0 7.21098)
(9.81602 0 7.86944)
(10.109 0 8.56901)
(10.5009 0 9.29505)
(11.0588 0 10.0374)
(11.8524 0 10.683)
(9.99792 0 0.154938)
(9.99101 0 0.307975)
(9.97884 0 0.461322)
(9.96212 0 0.616983)
(9.9415 0 0.776624)
(9.91746 0 0.941752)
(9.8904 0 1.1138)
(9.86082 0 1.29416)
(9.82929 0 1.48415)
(9.79642 0 1.68509)
(9.76294 0 1.89828)
(9.72965 0 2.12503)
(9.69749 0 2.36666)
(9.66752 0 2.62455)
(9.64099 0 2.90016)
(9.6194 0 3.19502)
(9.60452 0 3.51078)
(9.59853 0 3.84923)
(9.60412 0 4.21228)
(9.62468 0 4.60197)
(9.66454 0 5.02042)
(9.72921 0 5.46965)
(9.82578 0 5.95126)
(9.96321 0 6.46596)
(10.1526 0 7.01267)
(10.4069 0 7.58753)
(10.7436 0 8.18242)
(11.1743 0 8.78265)
(11.7219 0 9.37664)
(12.4757 0 9.88947)
(9.99845 0 0.157512)
(9.9933 0 0.313065)
(9.98427 0 0.468842)
(9.97194 0 0.626818)
(9.9569 0 0.788627)
(9.93962 0 0.955735)
(9.92055 0 1.12953)
(9.90022 0 1.31132)
(9.87925 0 1.50239)
(9.85833 0 1.70395)
(9.83826 0 1.9172)
(9.81993 0 2.14331)
(9.8044 0 2.38346)
(9.79285 0 2.63884)
(9.7867 0 2.91064)
(9.7876 0 3.20008)
(9.79752 0 3.50843)
(9.81882 0 3.83691)
(9.85437 0 4.18676)
(9.90766 0 4.5591)
(9.98298 0 4.95482)
(10.0856 0 5.37442)
(10.2217 0 5.81761)
(10.399 0 6.28296)
(10.6263 0 6.7672)
(10.9132 0 7.26457)
(11.271 0 7.76583)
(11.7078 0 8.25544)
(12.2242 0 8.71667)
(12.9007 0 9.108)
(9.99898 0 0.159381)
(9.9956 0 0.31675)
(9.98971 0 0.474244)
(9.98176 0 0.633793)
(9.97228 0 0.796986)
(9.96173 0 0.965237)
(9.95059 0 1.13987)
(9.93942 0 1.32214)
(9.92887 0 1.51321)
(9.91968 0 1.71422)
(9.91271 0 1.92623)
(9.90893 0 2.15027)
(9.90945 0 2.38734)
(9.91556 0 2.63841)
(9.92875 0 2.90441)
(9.95077 0 3.18622)
(9.98365 0 3.48467)
(10.0298 0 3.80047)
(10.092 0 4.1342)
(10.1737 0 4.48614)
(10.2788 0 4.8562)
(10.4119 0 5.24368)
(10.5784 0 5.647)
(10.784 0 6.06335)
(11.0354 0 6.48825)
(11.3388 0 6.91501)
(11.7005 0 7.33426)
(12.1245 0 7.73258)
(12.6048 0 8.09538)
(13.2107 0 8.40213)
(9.99951 0 0.160512)
(9.99789 0 0.318964)
(9.9951 0 0.477429)
(9.99151 0 0.63778)
(9.98753 0 0.801549)
(9.98362 0 0.970088)
(9.98027 0 1.14465)
(9.97806 0 1.32639)
(9.97768 0 1.51641)
(9.97988 0 1.7157)
(9.98556 0 1.92521)
(9.99573 0 2.14579)
(10.0115 0 2.37827)
(10.0343 0 2.62338)
(10.0656 0 2.88177)
(10.107 0 3.15401)
(10.1607 0 3.44049)
(10.2289 0 3.74147)
(10.3144 0 4.05691)
(10.42 0 4.38646)
(10.5493 0 4.72924)
(10.706 0 5.08373)
(10.8944 0 5.44755)
(11.1187 0 5.81716)
(11.3833 0 6.18768)
(11.6919 0 6.55253)
(12.0473 0 6.90343)
(12.4512 0 7.23005)
(12.8958 0 7.52123)
(13.4393 0 7.76564)
(10 0 0.160876)
(10.0001 0 0.319651)
(10.0004 0 0.478318)
(10.0011 0 0.63868)
(10.0025 0 0.802199)
(10.0051 0 0.970157)
(10.0093 0 1.14372)
(10.0158 0 1.32397)
(10.0252 0 1.51187)
(10.0384 0 1.70832)
(10.0561 0 1.91411)
(10.0795 0 2.12994)
(10.1096 0 2.35643)
(10.1479 0 2.59409)
(10.1957 0 2.84331)
(10.2547 0 3.10434)
(10.3269 0 3.37722)
(10.4143 0 3.66178)
(10.5193 0 3.95753)
(10.6445 0 4.26359)
(10.7927 0 4.57857)
(10.967 0 4.90046)
(11.1703 0 5.22646)
(11.4056 0 5.55285)
(11.6754 0 5.87489)
(11.9817 0 6.18671)
(12.3253 0 6.48145)
(12.706 0 6.75125)
(13.1159 0 6.98777)
(13.604 0 7.18412)
(10.0005 0 0.160453)
(10.0023 0 0.31877)
(10.0056 0 0.476852)
(10.0104 0 0.636417)
(10.017 0 0.798853)
(10.0259 0 0.965359)
(10.0374 0 1.13702)
(10.0523 0 1.3148)
(10.0711 0 1.49957)
(10.0946 0 1.6921)
(10.1237 0 1.89302)
(10.1594 0 2.1029)
(10.2028 0 2.32215)
(10.2551 0 2.55107)
(10.3178 0 2.78981)
(10.3924 0 3.03834)
(10.4806 0 3.2964)
(10.5843 0 3.56349)
(10.7054 0 3.83878)
(10.8461 0 4.12104)
(11.0086 0 4.40856)
(11.1951 0 4.69911)
(11.4076 0 4.98979)
(11.648 0 5.27702)
(11.9175 0 5.55651)
(12.2167 0 5.82328)
(12.5452 0 6.07178)
(12.9018 0 6.29612)
(13.2792 0 6.49023)
(13.7193 0 6.64996)
(10.001 0 0.159227)
(10.0044 0 0.316291)
(10.0106 0 0.47299)
(10.0194 0 0.630947)
(10.0311 0 0.791465)
(10.0459 0 0.955657)
(10.0644 0 1.12451)
(10.0872 0 1.29889)
(10.1148 0 1.47956)
(10.148 0 1.66715)
(10.1877 0 1.86217)
(10.2347 0 2.06501)
(10.2902 0 2.27593)
(10.3552 0 2.49502)
(10.4311 0 2.72223)
(10.5192 0 2.9573)
(10.621 0 3.19974)
(10.7381 0 3.44879)
(10.8721 0 3.7034)
(11.0246 0 3.96213)
(11.1973 0 4.22316)
(11.3915 0 4.48418)
(11.6087 0 4.74244)
(11.8498 0 4.99468)
(12.115 0 5.23716)
(12.4042 0 5.4658)
(12.7162 0 5.67625)
(13.0491 0 5.86416)
(13.3969 0 6.02528)
(13.7958 0 6.15709)
(10.0015 0 0.157191)
(10.0065 0 0.312201)
(10.0154 0 0.466714)
(10.028 0 0.622252)
(10.0445 0 0.780027)
(10.065 0 0.941058)
(10.0901 0 1.10624)
(10.1203 0 1.27633)
(10.1561 0 1.45198)
(10.1983 0 1.6337)
(10.2476 0 1.82187)
(10.3049 0 2.01673)
(10.3712 0 2.21839)
(10.4474 0 2.42678)
(10.5347 0 2.64167)
(10.6343 0 2.86263)
(10.7474 0 3.08899)
(10.8753 0 3.31984)
(11.0191 0 3.55399)
(11.1802 0 3.78993)
(11.3595 0 4.02581)
(11.558 0 4.25946)
(11.7764 0 4.48832)
(12.0149 0 4.70956)
(12.2733 0 4.92005)
(12.5508 0 5.11651)
(12.8459 0 5.29562)
(13.1566 0 5.45422)
(13.4776 0 5.58937)
(13.8412 0 5.69958)
(10.0019 0 0.154343)
(10.0084 0 0.306498)
(10.0199 0 0.458028)
(10.0361 0 0.610346)
(10.0571 0 0.764567)
(10.083 0 0.921619)
(10.1142 0 1.08229)
(10.1512 0 1.24726)
(10.1946 0 1.41704)
(10.245 0 1.59204)
(10.3031 0 1.77253)
(10.3695 0 1.95861)
(10.4453 0 2.15026)
(10.5313 0 2.34728)
(10.6283 0 2.54931)
(10.7374 0 2.75578)
(10.8596 0 2.96592)
(10.9957 0 3.17873)
(11.1468 0 3.39298)
(11.3136 0 3.60715)
(11.4967 0 3.8195)
(11.6967 0 4.02802)
(11.9137 0 4.23046)
(12.1474 0 4.42441)
(12.3973 0 4.60732)
(12.6623 0 4.77662)
(12.9409 0 4.92981)
(13.2309 0 5.06462)
(13.528 0 5.17906)
(13.8611 0 5.27228)
(10.0024 0 0.15069)
(10.0102 0 0.299196)
(10.0241 0 0.446956)
(10.0438 0 0.595268)
(10.0689 0 0.745151)
(10.0997 0 0.897437)
(10.1366 0 1.05282)
(10.1799 0 1.21187)
(10.2302 0 1.37502)
(10.2879 0 1.54256)
(10.3538 0 1.71464)
(10.4283 0 1.89128)
(10.5123 0 2.07233)
(10.6065 0 2.25751)
(10.7116 0 2.44635)
(10.8284 0 2.6382)
(10.9576 0 2.83223)
(11.0999 0 3.02743)
(11.2559 0 3.22255)
(11.426 0 3.41619)
(11.6107 0 3.60672)
(11.8099 0 3.79236)
(12.0235 0 3.97118)
(12.251 0 4.14119)
(12.4915 0 4.30034)
(12.7439 0 4.44665)
(13.0066 0 4.57826)
(13.2777 0 4.69358)
(13.5534 0 4.79127)
(13.8602 0 4.8709)
(10.0027 0 0.146244)
(10.0119 0 0.290321)
(10.0281 0 0.433541)
(10.0508 0 0.577086)
(10.0798 0 0.721876)
(10.1152 0 0.868649)
(10.1572 0 1.01801)
(10.2062 0 1.17043)
(10.2626 0 1.32625)
(10.3269 0 1.48567)
(10.3995 0 1.64875)
(10.481 0 1.81542)
(10.572 0 1.98546)
(10.673 0 2.15849)
(10.7846 0 2.33399)
(10.9074 0 2.51129)
(11.0418 0 2.68953)
(11.1884 0 2.8677)
(11.3474 0 3.04466)
(11.519 0 3.21908)
(11.7033 0 3.38952)
(11.9001 0 3.55444)
(12.1089 0 3.71223)
(12.3292 0 3.86124)
(12.5599 0 3.99989)
(12.7999 0 4.12665)
(13.0477 0 4.24018)
(13.3015 0 4.33935)
(13.5583 0 4.42332)
(13.842 0 4.4919)
(10.0031 0 0.141023)
(10.0134 0 0.279911)
(10.0317 0 0.417844)
(10.0573 0 0.555889)
(10.0898 0 0.694867)
(10.1293 0 0.835429)
(10.1759 0 0.978088)
(10.23 0 1.12323)
(10.2919 0 1.27111)
(10.3618 0 1.42186)
(10.4403 0 1.57545)
(10.5277 0 1.73175)
(10.6244 0 1.89048)
(10.7309 0 2.05122)
(10.8476 0 2.21341)
(10.9749 0 2.37637)
(11.113 0 2.53928)
(11.2622 0 2.70117)
(11.4225 0 2.86098)
(11.5941 0 3.01753)
(11.7766 0 3.16957)
(11.9697 0 3.31579)
(12.173 0 3.45485)
(12.3855 0 3.58545)
(12.6064 0 3.70635)
(12.8344 0 3.8164)
(13.0683 0 3.91465)
(13.3064 0 4.00032)
(13.5462 0 4.07287)
(13.8098 0 4.13231)
(10.0034 0 0.135051)
(10.0148 0 0.268014)