/*--------------------------------*- C++ -*----------------------------------*\
  =========                 |
  \\      /  F ield         | OpenFOAM: The Open Source CFD Toolbox
   \\    /   O peration     | Website:  https://openfoam.org
    \\  /    A nd           | Version:  dev
     \\/     M anipulation  |
\*---------------------------------------------------------------------------*/
FoamFile
{
    version     2.0;
    format      ascii;
    class       surfaceVectorField;
    location    "6.2";
    object      Uf;
}
// * * * * * * * * * * * * * * * * * * * * * * * * * * * * * * * * * * * * * //

dimensions      [0 1 -1 0 0 0 0];

internalField   nonuniform List<vector> 
5457
(
(9.92088 0 0.0251095)
(9.97125 0 0.0387456)
(9.82402 0 0.0328266)
(9.92859 0 0.0485848)
(9.70961 0 0.0393118)
(9.85548 0 0.0587677)
(9.57544 0 0.0460113)
(9.7568 0 0.0705928)
(9.42138 0 0.0529486)
(9.63754 0 0.0830128)
(9.24755 0 0.0601659)
(9.49862 0 0.0959359)
(9.05363 0 0.0678107)
(9.33931 0 0.109612)
(8.83893 0 0.0760343)
(9.15875 0 0.124288)
(8.60253 0 0.0849701)
(8.9561 0 0.140167)
(8.34327 0 0.0947449)
(8.73039 0 0.157433)
(8.05986 0 0.105487)
(8.48041 0 0.17627)
(7.75081 0 0.117328)
(8.20478 0 0.196858)
(7.41457 0 0.130396)
(7.90196 0 0.219363)
(7.04951 0 0.144812)
(7.57031 0 0.243925)
(6.65404 0 0.160674)
(7.2082 0 0.270635)
(6.22672 0 0.178046)
(6.814 0 0.299504)
(5.76643 0 0.196931)
(6.38634 0 0.330418)
(5.27258 0 0.217236)
(5.92417 0 0.363089)
(4.74538 0 0.238739)
(5.42711 0 0.396981)
(4.1862 0 0.261035)
(4.89566 0 0.431242)
(3.59797 0 0.283491)
(4.33164 0 0.464624)
(2.98555 0 0.305205)
(3.73861 0 0.495429)
(2.35612 0 0.325071)
(3.12227 0 0.521516)
(1.7191 0 0.34255)
(2.49107 0 0.54056)
(1.08435 0 0.361883)
(1.85586 0 0.551675)
(0.451833 0 0.348683)
(1.24548 0 0.563022)
(-0.145841 0 0.102463)
(0.608913 0 0.544879)
(-0.423621 0 -0.207096)
(0.0946625 0 0.259369)
(-0.402157 0 -0.361259)
(-0.133673 0 -0.0205268)
(-0.119681 0 -0.393888)
(9.99641 0 0.051672)
(9.99705 0 0.0405042)
(9.95879 0 0.0708609)
(9.97851 0 0.0674538)
(9.89824 0 0.087986)
(9.93378 0 0.089869)
(9.81659 0 0.105984)
(9.86453 0 0.113554)
(9.71359 0 0.124921)
(9.77438 0 0.138513)
(9.58909 0 0.144853)
(9.66436 0 0.164645)
(9.44275 0 0.166089)
(9.53398 0 0.192331)
(9.27391 0 0.188967)
(9.3825 0 0.22203)
(9.08167 0 0.213783)
(9.2092 0 0.254148)
(8.86491 0 0.240816)
(9.01317 0 0.289064)
(8.62231 0 0.270338)
(8.79332 0 0.327153)
(8.3524 0 0.302609)
(8.54837 0 0.368788)
(8.05357 0 0.33786)
(8.27684 0 0.414319)
(7.72413 0 0.376266)
(7.97718 0 0.46405)
(7.36238 0 0.417907)
(7.64772 0 0.518194)
(6.96673 0 0.462713)
(7.28683 0 0.576813)
(6.53583 0 0.510393)
(6.89296 0 0.639733)
(6.06883 0 0.56034)
(6.46481 0 0.706436)
(5.56559 0 0.611527)
(6.0016 0 0.775918)
(5.0271 0 0.662391)
(5.50326 0 0.846533)
(4.45588 0 0.710714)
(4.97089 0 0.915815)
(3.85649 0 0.753545)
(4.40718 0 0.980314)
(3.23619 0 0.7872)
(3.81704 0 1.03546)
(2.60581 0 0.807504)
(3.20845 0 1.07549)
(1.98279 0 0.810468)
(2.59339 0 1.09315)
(1.40528 0 0.776897)
(1.9962 0 1.07708)
(0.929747 0 0.646399)
(1.41949 0 0.978407)
(0.439851 0 0.384336)
(0.937569 0 0.716795)
(0.0591698 0 -0.118617)
(0.443787 0 0.343521)
(0.174919 0 -0.335935)
(9.98903 0 0.0594302)
(9.99481 0 0.0458769)
(9.95434 0 0.0894755)
(9.97368 0 0.0848532)
(9.8973 0 0.11803)
(9.92984 0 0.119172)
(9.82047 0 0.147897)
(9.86357 0 0.153974)
(9.72417 0 0.17942)
(9.77736 0 0.190406)
(9.60822 0 0.212774)
(9.67227 0 0.228635)
(9.47235 0 0.248391)
(9.5481 0 0.269127)
(9.31608 0 0.286773)
(9.40432 0 0.312495)
(9.13869 0 0.328396)
(9.24035 0 0.359324)
(8.93925 0 0.373721)
(9.0555 0 0.410173)
(8.71665 0 0.423206)
(8.8489 0 0.465598)
(8.46961 0 0.477297)
(8.61952 0 0.526153)
(8.19668 0 0.5364)
(8.36616 0 0.592374)
(7.89633 0 0.600844)
(8.08753 0 0.66474)
(7.56692 0 0.670813)
(7.7822 0 0.743621)
(7.20684 0 0.74626)
(7.44874 0 0.829193)
(6.81457 0 0.826787)
(7.08569 0 0.921324)
(6.38888 0 0.911488)
(6.69171 0 1.01941)
(5.92903 0 0.998764)
(6.26572 0 1.12218)
(5.43514 0 1.0861)
(5.80712 0 1.22743)
(4.90855 0 1.16983)
(5.31608 0 1.33175)
(4.35243 0 1.2449)
(4.79397 0 1.4302)
(3.77259 0 1.30455)
(4.24397 0 1.51588)
(3.17873 0 1.33984)
(3.67181 0 1.57943)
(2.58663 0 1.33812)
(3.08632 0 1.60775)
(2.01986 0 1.27297)
(2.50292 0 1.58158)
(1.48695 0 1.09541)
(1.92874 0 1.46425)
(0.958298 0 0.769169)
(1.38525 0 1.2104)
(0.479878 0 0.202449)
(0.829543 0 0.801036)
(0.433731 0 0.134077)
(9.98515 0 0.0716129)
(9.99367 0 0.0531471)
(9.95039 0 0.113629)
(9.97088 0 0.102289)
(9.89437 0 0.154131)
(9.92691 0 0.147952)
(9.81882 0 0.195571)
(9.86185 0 0.193719)
(9.72442 0 0.238809)
(9.77746 0 0.241275)
(9.61113 0 0.284322)
(9.67467 0 0.291161)
(9.47875 0 0.332718)
(9.55343 0 0.343953)
(9.32695 0 0.384672)
(9.41336 0 0.400369)
(9.15524 0 0.440845)
(9.25401 0 0.461137)
(8.96292 0 0.501883)
(9.07485 0 0.52696)
(8.74917 0 0.568428)
(8.87521 0 0.598535)
(8.51305 0 0.641113)
(8.65431 0 0.676562)
(8.25347 0 0.720532)
(8.41123 0 0.761722)
(7.96926 0 0.807192)
(8.145 0 0.854639)
(7.65918 0 0.901441)
(7.85455 0 0.955822)
(7.32193 0 1.00335)
(7.53876 0 1.06557)
(6.95621 0 1.11258)
(7.19646 0 1.18385)
(6.56085 0 1.22814)
(6.82653 0 1.31009)
(6.13489 0 1.34818)
(6.42789 0 1.44292)
(5.67784 0 1.4696)
(5.99967 0 1.57991)
(5.19 0 1.58778)
(5.54134 0 1.71709)
(4.67286 0 1.69603)
(5.05305 0 1.84855)
(4.1298 0 1.78515)
(4.53596 0 1.96584)
(3.56665 0 1.84253)
(3.99273 0 2.05731)
(2.99205 0 1.85072)
(3.4276 0 2.10714)
(2.41584 0 1.78249)
(2.84763 0 2.09448)
(1.84054 0 1.60045)
(2.25623 0 1.98873)
(1.25939 0 1.27842)
(1.66032 0 1.75304)
(0.666775 0 0.789534)
(1.02396 0 1.36776)
(0.523036 0 0.787142)
(9.98337 0 0.0844061)
(9.99316 0 0.0612904)
(9.94821 0 0.136835)
(9.96959 0 0.119925)
(9.89315 0 0.188029)
(9.92575 0 0.176237)
(9.81907 0 0.240166)
(9.862 0 0.232695)
(9.72663 0 0.294464)
(9.77964 0 0.291083)
(9.6159 0 0.351655)
(9.6794 0 0.35227)
(9.48672 0 0.412466)
(9.56128 0 0.416973)
(9.33879 0 0.477672)
(9.42497 0 0.486004)
(9.17172 0 0.548047)
(9.2701 0 0.5602)
(8.98493 0 0.624351)
(9.09621 0 0.640383)
(8.77779 0 0.707341)
(8.90275 0 0.727365)
(8.54954 0 0.797763)
(8.68908 0 0.821954)
(8.29936 0 0.896326)
(8.45445 0 0.924941)
(8.02635 0 1.00365)
(8.19808 0 1.03706)
(7.72958 0 1.12021)
(7.91913 0 1.15892)
(7.40806 0 1.24617)
(7.6167 0 1.29093)
(7.06077 0 1.38128)
(7.28986 0 1.43315)
(6.68669 0 1.52459)
(6.93763 0 1.58511)
(6.28485 0 1.6742)
(6.55899 0 1.74551)
(5.85438 0 1.8268)
(6.15287 0 1.91189)
(5.3947 0 1.97726)
(5.71821 0 2.08017)
(4.90575 0 2.11806)
(5.25407 0 2.2441)
(4.38824 0 2.23861)
(4.75973 0 2.39461)
(3.84394 0 2.32455)
(4.23494 0 2.5192)
(3.27543 0 2.35695)
(3.67988 0 2.60124)
(2.68539 0 2.31059)
(3.09571 0 2.6197)
(2.07269 0 2.155)
(2.48169 0 2.54731)
(1.42938 0 1.86739)
(1.83991 0 2.35371)
(0.742611 0 1.41956)
(1.13136 0 2.02451)
(0.543305 0 1.51448)
(9.98264 0 0.097496)
(9.99299 0 0.0697915)
(9.94744 0 0.159772)
(9.96925 0 0.137581)
(9.89354 0 0.221344)
(9.92597 0 0.203923)
(9.82134 0 0.284088)
(9.86381 0 0.270684)
(9.73134 0 0.349343)
(9.78386 0 0.339577)
(9.62367 0 0.418014)
(9.68665 0 0.411691)
(9.4982 0 0.490933)
(9.57219 0 0.487897)
(9.35466 0 0.568969)
(9.44022 0 0.569098)
(9.1927 0 0.652999)
(9.29044 0 0.656228)
(9.01184 0 0.743893)
(9.12243 0 0.750209)
(8.81152 0 0.842513)
(8.93572 0 0.851953)
(8.59109 0 0.949707)
(8.72974 0 0.962364)
(8.34986 0 1.06628)
(8.50383 0 1.08232)
(8.08707 0 1.19296)
(8.25729 0 1.21265)
(7.80193 0 1.33031)
(7.98938 0 1.35405)
(7.4936 0 1.4786)
(7.6993 0 1.50703)
(7.16119 0 1.6377)
(7.38617 0 1.67177)
(6.80372 0 1.80676)
(7.04903 0 1.84793)
(6.42011 0 1.98398)
(6.68675 0 2.03437)
(6.00912 0 2.16615)
(6.29801 0 2.22885)
(5.5694 0 2.34812)
(5.88119 0 2.4275)
(5.09945 0 2.52222)
(5.43433 0 2.62427)
(4.59773 0 2.67757)
(4.9551 0 2.81031)
(4.06269 0 2.7995)
(4.44083 0 2.97323)
(3.49269 0 2.86911)
(3.8885 0 3.09663)
(2.88582 0 2.86291)
(3.29522 0 3.1599)
(2.23801 0 2.75392)
(2.65689 0 3.1379)
(1.54244 0 2.52102)
(1.97483 0 3.00318)
(0.793645 0 2.13132)
(1.20723 0 2.74059)
(0.556734 0 2.29181)
(9.9825 0 0.110624)
(9.99302 0 0.0783599)
(9.94771 0 0.182321)
(9.96954 0 0.155034)
(9.89523 0 0.253813)
(9.92722 0 0.230881)
(9.82524 0 0.326761)
(9.86697 0 0.307503)
(9.73814 0 0.402549)
(9.78978 0 0.386516)
(9.63404 0 0.482227)
(9.69606 0 0.469141)
(9.51286 0 0.56675)
(9.5858 0 0.55639)
(9.37439 0 0.657086)
(9.45881 0 0.649263)
(9.21829 0 0.754207)
(9.31482 0 0.74878)
(9.04415 0 0.859079)
(9.15348 0 0.855956)
(8.85146 0 0.972659)
(8.97435 0 0.971796)
(8.63964 0 1.09588)
(8.77692 0 1.09729)
(8.40804 0 1.22964)
(8.56059 0 1.23342)
(8.15596 0 1.37475)
(8.32471 0 1.38108)
(7.88265 0 1.53187)
(8.06854 0 1.54109)
(7.58728 0 1.70139)
(7.79126 0 1.71406)
(7.2689 0 1.88331)
(7.49197 0 1.90032)
(6.92643 0 2.07699)
(7.16955 0 2.09972)
(6.55851 0 2.28087)
(6.82266 0 2.31141)
(6.16346 0 2.49207)
(6.44959 0 2.53351)
(5.73912 0 2.70586)
(6.04809 0 2.76267)
(5.28272 0 2.91501)
(5.61523 0 2.99349)
(4.79082 0 3.10917)
(5.14723 0 3.21787)
(4.25928 0 3.27421)
(4.63937 0 3.42429)
(3.68338 0 3.39186)
(4.08604 0 3.59715)
(3.05803 0 3.43968)
(3.4813 0 3.71654)
(2.37772 0 3.39178)
(2.81835 0 3.75812)
(1.6379 0 3.22616)
(2.09914 0 3.69397)
(0.839126 0 2.90083)
(1.27891 0 3.50446)
(0.573355 0 3.11368)
(9.98273 0 0.123579)
(9.99316 0 0.0868156)
(9.94873 0 0.204305)
(9.97027 0 0.172089)
(9.89794 0 0.285247)
(9.92927 0 0.25697)
(9.83051 0 0.367959)
(9.87124 0 0.342981)
(9.74671 0 0.453844)
(9.79716 0 0.431671)
(9.64669 0 0.544069)
(9.70735 0 0.524342)
(9.53039 0 0.639699)
(9.60181 0 0.622126)
(9.39763 0 0.741791)
(9.48039 0 0.726117)
(9.24814 0 0.851407)
(9.34287 0 0.837416)
(9.08154 0 0.9696)
(9.18895 0 0.957124)
(8.89738 0 1.09742)
(9.01826 0 1.08634)
(8.69511 0 1.23588)
(8.83031 0 1.22613)
(8.47414 0 1.38598)
(8.62456 0 1.37758)
(8.23378 0 1.54863)
(8.40038 0 1.54169)
(7.97324 0 1.72461)
(8.15703 0 1.71938)
(7.69162 0 1.91446)
(7.89365 0 1.91144)
(7.38786 0 2.11836)
(7.60921 0 2.11837)
(7.06063 0 2.33598)
(7.30243 0 2.34031)
(6.70821 0 2.56614)
(6.97166 0 2.57678)
(6.32836 0 2.80651)
(6.61472 0 2.82646)
(5.9181 0 3.05307)
(6.22871 0 3.08673)
(5.47345 0 3.29955)
(5.80974 0 3.3532)
(4.9893 0 3.53667)
(5.35264 0 3.61901)
(4.45932 0 3.75143)
(4.85086 0 3.87401)
(3.8762 0 3.92647)
(4.2964 0 4.10395)
(3.23231 0 4.03985)
(3.68053 0 4.28969)
(2.52081 0 4.06497)
(2.99349 0 4.40676)
(1.73836 0 3.97611)
(2.23736 0 4.42456)
(0.889464 0 3.71873)
(1.36334 0 4.31626)
(0.598745 0 3.98486)
(9.98321 0 0.1362)
(9.99339 0 0.0950383)
(9.95032 0 0.225567)
(9.97131 0 0.188585)
(9.90151 0 0.31549)
(9.93193 0 0.282043)
(9.83694 0 0.407495)
(9.87644 0 0.376952)
(9.75684 0 0.503003)
(9.8058 0 0.474831)
(9.66136 0 0.603267)
(9.72031 0 0.57704)
(9.55047 0 0.709449)
(9.61997 0 0.684804)
(9.42405 0 0.822691)
(9.50466 0 0.799305)
(9.28185 0 0.944136)
(9.37424 0 0.921724)
(9.12358 0 1.07492)
(9.22845 0 1.05324)
(8.94881 0 1.21618)
(9.06697 0 1.19503)
(8.75707 0 1.36904)
(8.8894 0 1.34827)
(8.54778 0 1.53458)
(8.69522 0 1.51412)
(8.32027 0 1.71384)
(8.48384 0 1.69371)
(8.07372 0 1.90775)
(8.25453 0 1.88811)
(7.80715 0 2.11704)
(8.00638 0 2.09827)
(7.51934 0 2.34217)
(7.73827 0 2.32498)
(7.20869 0 2.58317)
(7.44875 0 2.5687)
(6.87311 0 2.83941)
(7.13586 0 2.82947)
(6.50978 0 3.10929)
(6.79702 0 3.10666)
(6.11489 0 3.38983)
(6.42868 0 3.39864)
(5.68331 0 3.67605)
(6.02605 0 3.70233)
(5.20837 0 3.96023)
(5.58268 0 4.01251)
(4.68164 0 4.231)
(5.0902 0 4.32099)
(4.09316 0 4.47232)
(4.53814 0 4.6154)
(3.43239 0 4.66253)
(3.91456 0 4.87786)
(2.69002 0 4.77312)
(3.20555 0 5.08356)
(1.86176 0 4.77235)
(2.41115 0 5.19792)
(0.954131 0 4.58966)
(1.47619 0 5.18423)
(0.639152 0 4.91937)
(9.98386 0 0.148366)
(9.99368 0 0.102941)
(9.95235 0 0.245965)
(9.97261 0 0.20439)
(9.90579 0 0.344392)
(9.9351 0 0.305963)
(9.84438 0 0.44519)
(9.88241 0 0.409262)
(9.76834 0 0.549801)
(9.81552 0 0.515806)
(9.67781 0 0.659548)
(9.73472 0 0.627)
(9.57282 0 0.775676)
(9.64 0 0.744146)
(9.45329 0 0.899406)
(9.53131 0 0.868504)
(9.31903 0 1.03196)
(9.40855 0 1.00133)
(9.1698 0 1.17454)
(9.27153 0 1.14386)
(9.00525 0 1.32839)
(9.12001 0 1.29737)
(8.82494 0 1.49471)
(8.95363 0 1.46312)
(8.62837 0 1.6747)
(8.77196 0 1.64236)
(8.41487 0 1.86954)
(8.57445 0 1.83636)
(8.18363 0 2.08033)
(8.3604 0 2.04635)
(7.93363 0 2.30806)
(8.12892 0 2.2735)
(7.6635 0 2.55352)
(7.87883 0 2.51889)
(7.37145 0 2.8172)
(7.60856 0 2.78341)
(7.05506 0 3.09914)
(7.31599 0 3.06771)
(6.71102 0 3.39868)
(6.99821 0 3.37199)
(6.33479 0 3.71411)
(6.65118 0 3.69581)
(5.92023 0 4.04213)
(6.26938 0 4.0377)
(5.45913 0 4.37709)
(5.84527 0 4.39456)
(4.9409 0 4.70991)
(5.36872 0 4.76076)
(4.35253 0 5.02654)
(4.8266 0 5.12676)
(3.67938 0 5.30616)
(4.20296 0 5.47706)
(2.90731 0 5.51812)
(3.47767 0 5.78743)
(2.0275 0 5.62291)
(2.64482 0 6.01942)
(1.04501 0 5.52933)
(1.63756 0 6.12379)
(0.704394 0 5.94289)
(9.98465 0 0.159978)
(9.99402 0 0.11046)
(9.95473 0 0.265376)
(9.97409 0 0.219395)
(9.91065 0 0.371813)
(9.93868 0 0.328605)
(9.85267 0 0.480875)
(9.88905 0 0.439767)
(9.78101 0 0.594034)
(9.82619 0 0.554423)
(9.69582 0 0.712669)
(9.75039 0 0.674013)
(9.59717 0 0.838095)
(9.66168 0 0.799904)
(9.48504 0 0.971603)
(9.56004 0 0.933422)
(9.35929 0 1.11448)
(9.44545 0 1.07588)
(9.21975 0 1.26801)
(9.31778 0 1.2286)
(9.06615 0 1.43351)
(9.17686 0 1.3929)
(8.89813 0 1.61227)
(9.02243 0 1.57014)
(8.71524 0 1.80563)
(8.85413 0 1.76168)
(8.51688 0 2.01489)
(8.67148 0 1.9689)
(8.30228 0 2.24137)
(8.47388 0 2.19321)
(8.07042 0 2.48631)
(8.26047 0 2.43601)
(7.81991 0 2.75091)
(8.03014 0 2.69872)
(7.54885 0 3.03621)
(7.78132 0 2.9827)
(7.25465 0 3.34301)
(7.51185 0 3.28924)
(6.93368 0 3.67174)
(7.21869 0 3.61953)
(6.58093 0 4.02222)
(6.89763 0 3.97444)
(6.18944 0 4.39319)
(6.54271 0 4.3544)
(5.74973 0 4.78168)
(6.14567 0 4.75888)
(5.24904 0 5.18178)
(5.695 0 5.18563)
(4.67082 0 5.58285)
(5.17496 0 5.62929)
(3.99475 0 5.96656)
(4.56492 0 6.07885)
(3.19824 0 6.30166)
(3.83612 0 6.51358)
(2.2616 0 6.54056)
(2.97059 0 6.89397)
(1.18049 0 6.56491)
(1.87893 0 7.15766)
(0.812695 0 7.09912)
(9.98554 0 0.170959)
(9.9944 0 0.117544)
(9.95739 0 0.283692)
(9.97572 0 0.233514)
(9.91601 0 0.397627)
(9.94259 0 0.349861)
(9.8617 0 0.514401)
(9.89624 0 0.468341)
(9.79469 0 0.635523)
(9.83765 0 0.590528)
(9.71518 0 0.762415)
(9.76714 0 0.717896)
(9.62326 0 0.896453)
(9.68477 0 0.85186)
(9.51896 0 1.03899)
(9.59057 0 0.993803)
(9.40223 0 1.19136)
(9.48458 0 1.14509)
(9.27296 0 1.35493)
(9.36676 0 1.3071)
(9.13096 0 1.53107)
(9.23701 0 1.48122)
(8.97599 0 1.72118)
(9.09517 0 1.66886)
(8.80766 0 1.92669)
(8.94099 0 1.87149)
(8.62549 0 2.14908)
(8.77411 0 2.09062)
(8.4288 0 2.38984)
(8.59404 0 2.32781)
(8.21664 0 2.65053)
(8.40005 0 2.58471)
(7.98772 0 2.93273)
(8.19117 0 2.86305)
(7.7402 0 3.23807)
(7.96597 0 3.16468)
(7.4715 0 3.5682)
(7.72246 0 3.49157)
(7.178 0 3.92474)
(7.45777 0 3.84588)
(6.85455 0 4.30919)
(7.16784 0 4.22993)
(6.49388 0 4.7227)
(6.84686 0 4.64618)
(6.08571 0 5.16559)
(6.48648 0 5.09706)
(5.61561 0 5.63637)
(6.07467 0 5.58455)
(5.0635 0 6.12986)
(5.59395 0 6.10914)
(4.40207 0 6.63377)
(5.01946 0 6.66761)
(3.59593 0 7.12113)
(4.31234 0 7.24852)
(2.6041 0 7.54044)
(3.43539 0 7.82006)
(1.39414 0 7.74013)
(2.25617 0 8.31475)
(1.00244 0 8.46458)
(9.9865 0 0.181248)
(9.9948 0 0.124153)
(9.96027 0 0.300825)
(9.97747 0 0.246674)
(9.92177 0 0.421723)
(9.94676 0 0.369637)
(9.87134 0 0.545638)
(9.90388 0 0.494873)
(9.80924 0 0.674108)
(9.84978 0 0.62399)
(9.73569 0 0.808598)
(9.7848 0 0.75849)
(9.65082 0 0.950527)
(9.70904 0 0.899828)
(9.55473 0 1.10129)
(9.6226 0 1.04943)
(9.44745 0 1.26229)
(9.52557 0 1.2087)
(9.32893 0 1.43494)
(9.41801 0 1.37907)
(9.19911 0 1.62065)
(9.29991 0 1.56196)
(9.05783 0 1.82093)
(9.17122 0 1.75886)
(8.90484 0 2.03729)
(9.0318 0 1.9713)
(8.73978 0 2.27134)
(8.88146 0 2.20091)
(8.56214 0 2.52479)
(8.71984 0 2.44938)
(8.37114 0 2.79945)
(8.54646 0 2.71858)
(8.16568 0 3.09731)
(8.36054 0 3.01054)
(7.94418 0 3.42056)
(8.16098 0 3.32753)
(7.70434 0 3.77167)
(7.94613 0 3.67217)
(7.44287 0 4.15345)
(7.71363 0 4.04753)
(7.15503 0 4.56917)
(7.46003 0 4.45728)
(6.83395 0 5.02256)
(7.18032 0 4.90593)
(6.46955 0 5.51773)
(6.86709 0 5.39898)
(6.04697 0 6.05881)
(6.50929 0 5.94315)
(5.54396 0 6.64882)
(6.08997 0 6.54631)
(4.9269 0 7.28704)
(5.58296 0 7.21688)
(4.14474 0 7.96136)
(4.94224 0 7.96158)
(3.12144 0 8.63334)
(4.10891 0 8.77554)
(1.75598 0 9.12737)
(2.87799 0 9.62055)
(1.36442 0 10.1845)
(9.98754 0 0.190794)
(9.99523 0 0.130257)
(9.96333 0 0.316698)
(9.97932 0 0.258817)
(9.92786 0 0.444011)
(9.95115 0 0.387858)
(9.88148 0 0.574475)
(9.91188 0 0.519272)
(9.82449 0 0.709663)
(9.86244 0 0.654698)
(9.75713 0 0.851068)
(9.80318 0 0.795665)
(9.6796 0 1.00014)
(9.73426 0 0.943655)
(9.59203 0 1.15833)
(9.65584 0 1.10012)
(9.49453 0 1.32705)
(9.56807 0 1.26651)
(9.38718 0 1.50776)
(9.4711 0 1.44426)
(9.26999 0 1.70194)
(9.36502 0 1.63485)
(9.14293 0 1.91113)
(9.2499 0 1.83979)
(9.00591 0 2.13693)
(9.12575 0 2.06069)
(8.85875 0 2.38108)
(8.99255 0 2.29924)
(8.70112 0 2.64543)
(8.85015 0 2.55725)
(8.53252 0 2.93203)
(8.69832 0 2.83675)
(8.35217 0 3.2432)
(8.53662 0 3.14)
(8.15889 0 3.58163)
(8.36436 0 3.46963)
(7.95096 0 3.9505)
(8.18048 0 3.82874)
(7.72581 0 4.35369)
(7.98338 0 4.22116)
(7.47971 0 4.79607)
(7.77071 0 4.65167)
(7.20708 0 5.28381)
(7.53897 0 5.12647)
(6.89955 0 5.8249)
(7.28291 0 5.65379)
(6.54413 0 6.4297)
(6.99455 0 6.24474)
(6.12009 0 7.11159)
(6.66116 0 6.91485)
(5.59268 0 7.88771)
(6.26215 0 7.68635)
(4.90041 0 8.77788)
(5.75709 0 8.5927)
(3.9263 0 9.80127)
(5.08667 0 9.68509)
(2.43269 0 10.856)
(3.97866 0 11.0489)
(2.14558 0 12.5671)
(9.98862 0 0.199557)
(9.99567 0 0.135831)
(9.96652 0 0.331253)
(9.98124 0 0.269898)
(9.9342 0 0.464406)
(9.95571 0 0.40446)
(9.89203 0 0.600806)
(9.92017 0 0.541461)
(9.84031 0 0.742049)
(9.87553 0 0.682565)
(9.77933 0 0.88965)
(9.82217 0 0.829319)
(9.70933 0 1.04509)
(9.76029 0 0.983221)
(9.63053 0 1.20983)
(9.69012 0 1.14575)
(9.54309 0 1.38532)
(9.61187 0 1.31835)
(9.4472 0 1.57303)
(9.52579 0 1.50249)
(9.34298 0 1.77449)
(9.43209 0 1.69966)
(9.23055 0 1.99126)
(9.33095 0 1.91141)
(9.10998 0 2.225)
(9.22256 0 2.13935)
(8.98129 0 2.47753)
(9.10708 0 2.38523)
(8.84442 0 2.7508)
(8.9846 0 2.65092)
(8.69917 0 3.04705)
(8.8552 0 2.93855)
(8.5452 0 3.36882)
(8.71883 0 3.25053)
(8.3819 0 3.71916)
(8.57534 0 3.58969)
(8.20832 0 4.10177)
(8.42438 0 3.95945)
(8.023 0 4.5213)
(8.26539 0 4.36408)
(7.82374 0 4.98381)
(8.09744 0 4.80906)
(7.60725 0 5.49734)
(7.91919 0 5.30161)
(7.36851 0 6.07294)
(7.72864 0 5.85159)
(7.09958 0 6.72625)
(7.52292 0 6.47295)
(6.7873 0 7.48047)
(7.29777 0 7.18626)
(6.4081 0 8.37231)
(7.04771 0 8.02388)
(5.91495 0 9.46618)
(6.76251 0 9.0423)
(5.19523 0 10.9082)
(6.46111 0 10.3571)
(3.8834 0 13.1777)
(6.18827 0 12.3034)
(5.25638 0 16.3707)
(0.186383 0 -0.109992)
(0.109298 0 -0.182551)
(0.361888 0 -0.0921436)
(0.265377 0 -0.167837)
(0.504191 0 -0.0690016)
(0.41899 0 -0.132871)
(0.612943 0 -0.0485444)
(0.546389 0 -0.0991448)
(0.692973 0 -0.0321609)
(0.64379 0 -0.0712377)
(0.749726 0 -0.0195748)
(0.71595 0 -0.049325)
(0.78818 0 -0.0101981)
(0.768701 0 -0.0326316)
(0.812681 0 -0.00345106)
(0.806911 0 -0.0203)
(0.826921 0 0.00119295)
(0.834385 0 -0.0115198)
(0.833941 0 0.00420021)
(0.854134 0 -0.00554446)
(0.836188 0 0.00595179)
(0.868531 0 -0.00173319)
(0.835602 0 0.00672034)
(0.879403 0 0.000441137)
(0.833392 0 0.00680079)
(0.888097 0 0.00162492)
(0.830737 0 0.00648322)
(0.89561 0 0.00190612)
(0.828353 0 0.00593273)
(0.90269 0 0.00167066)
(0.826713 0 0.00526464)
(0.909854 0 0.00112212)
(0.826039 0 0.00459772)
(0.917401 0 0.000450708)
(0.826316 0 0.00405513)
(0.925432 0 -0.000180546)
(0.827214 0 0.0037255)
(0.933865 0 -0.000572055)
(0.828208 0 0.00365727)
(0.942461 0 -0.000618379)
(0.828736 0 0.0038323)
(0.950858 0 -0.000320665)
(0.828308 0 0.00415167)
(0.958626 0 0.00025366)
(0.826516 0 0.00452014)
(0.965362 0 0.00103745)
(0.823176 0 0.00488525)
(0.970765 0 0.00188803)
(0.818194 0 0.00521419)
(0.974689 0 0.00274925)
(0.811514 0 0.00547573)
(0.977069 0 0.00359947)
(0.803139 0 0.00565341)
(0.977875 0 0.00440627)
(0.793061 0 0.00563962)
(0.97682 0 0.00517735)
(0.782178 0 0.00490106)
(0.974154 0 0.00545863)
(0.970522 0 0.00411434)
(0.172603 0 -0.26421)
(0.0912565 0 -0.351604)
(0.336887 0 -0.228656)
(0.236023 0 -0.324943)
(0.473378 0 -0.178336)
(0.370716 0 -0.260316)
(0.581958 0 -0.133022)
(0.483771 0 -0.198133)
(0.667137 0 -0.0964285)
(0.572271 0 -0.147058)
(0.733689 0 -0.0680952)
(0.640719 0 -0.107167)
(0.785802 0 -0.0467638)
(0.693955 0 -0.0768533)
(0.826993 0 -0.0311626)
(0.735877 0 -0.0544285)
(0.860142 0 -0.0201251)
(0.769499 0 -0.0383367)
(0.887516 0 -0.0126156)
(0.797163 0 -0.0271667)
(0.910804 0 -0.00777129)
(0.820644 0 -0.019693)
(0.931195 0 -0.00491801)
(0.841226 0 -0.0149132)
(0.949759 0 -0.00348758)
(0.859818 0 -0.0120232)
(0.967129 0 -0.00301371)
(0.87711 0 -0.0105634)
(0.983867 0 -0.00316295)
(0.893567 0 -0.0100609)
(1.00032 0 -0.00366592)
(0.909538 0 -0.010134)
(1.01664 0 -0.00427008)
(0.92524 0 -0.01046)
(1.0329 0 -0.00474375)
(0.940759 0 -0.0107835)
(1.04908 0 -0.00491111)
(0.95614 0 -0.010882)
(1.06512 0 -0.00466198)
(0.971366 0 -0.010593)
(1.08079 0 -0.00397573)
(0.986328 0 -0.00983345)
(1.0957 0 -0.00293024)
(1.00085 0 -0.00858868)
(1.10954 0 -0.00165356)
(1.01464 0 -0.00697746)
(1.12215 0 -0.000263811)
(1.02757 0 -0.00523756)
(1.13346 0 0.00118686)
(1.03962 0 -0.00349098)
(1.14334 0 0.00273025)
(1.05081 0 -0.00172444)
(1.15157 0 0.00423171)
(1.06106 0 7.57062e-05)
(1.15775 0 0.00529437)
(1.07026 0 0.00199953)
(1.16259 0 0.00519315)
(1.07814 0 0.00303585)
(1.08608 0 0.00268727)
(0.146058 0 -0.418735)
(0.0712924 0 -0.49466)
(0.280769 0 -0.363493)
(0.193007 0 -0.453768)
(0.390823 0 -0.286533)
(0.295287 0 -0.363075)
(0.477792 0 -0.217624)
(0.381418 0 -0.27742)
(0.546109 0 -0.162183)
(0.447762 0 -0.20787)
(0.599847 0 -0.119321)
(0.499122 0 -0.15387)
(0.642445 0 -0.0870623)
(0.539244 0 -0.113002)
(0.676736 0 -0.0634358)
(0.571002 0 -0.0828395)
(0.705011 0 -0.0466326)
(0.596653 0 -0.0612109)
(0.729038 0 -0.0350371)
(0.617972 0 -0.0461448)
(0.750079 0 -0.0272888)
(0.636271 0 -0.03592)
(0.769027 0 -0.0223058)
(0.652444 0 -0.0291807)
(0.786547 0 -0.0193012)
(0.667073 0 -0.0249046)
(0.803043 0 -0.0177044)
(0.680514 0 -0.0224047)
(0.818837 0 -0.017039)
(0.693026 0 -0.0211309)
(0.834154 0 -0.0169037)
(0.704815 0 -0.0206156)
(0.849138 0 -0.0169671)
(0.716031 0 -0.020472)
(0.86386 0 -0.0169581)
(0.726774 0 -0.0203881)
(0.878339 0 -0.0166581)
(0.73711 0 -0.0201049)
(0.89254 0 -0.0159177)
(0.747068 0 -0.0194253)
(0.906367 0 -0.014671)
(0.75663 0 -0.0182304)
(0.919702 0 -0.0129641)
(0.765733 0 -0.0164952)
(0.932486 0 -0.0109772)
(0.774322 0 -0.0143781)
(0.94478 0 -0.00891094)
(0.782396 0 -0.0121866)
(0.956736 0 -0.00683403)
(0.790075 0 -0.010089)
(0.96845 0 -0.00465848)
(0.797522 0 -0.00803672)
(0.979699 0 -0.00247399)
(0.80474 0 -0.00584246)
(0.990534 0 -0.000655492)
(0.81187 0 -0.00356665)
(1.00031 0 0.000524492)
(0.818116 0 -0.00186714)
(0.824589 0 -0.000604838)
(0.116761 0 -0.539086)
(0.0512036 0 -0.60902)
(0.21635 0 -0.46313)
(0.144141 0 -0.549005)
(0.294027 0 -0.363525)
(0.207729 0 -0.435603)
(0.354208 0 -0.276293)
(0.263579 0 -0.332285)
(0.401014 0 -0.206907)
(0.303919 0 -0.249533)
(0.437541 0 -0.15358)
(0.334767 0 -0.185617)
(0.466289 0 -0.113602)
(0.358341 0 -0.137397)
(0.489248 0 -0.0844074)
(0.376382 0 -0.101863)
(0.508062 0 -0.0636778)
(0.39031 0 -0.0764306)
(0.523946 0 -0.0493236)
(0.401323 0 -0.058691)
(0.537661 0 -0.0396103)
(0.41027 0 -0.0464975)
(0.549717 0 -0.0332066)
(0.417642 0 -0.0382585)
(0.560423 0 -0.029155)
(0.423651 0 -0.0327758)
(0.57 0 -0.0267701)
(0.428352 0 -0.0292799)
(0.578629 0 -0.0254916)
(0.43189 0 -0.0271791)
(0.586441 0 -0.024854)
(0.4344 0 -0.0259611)
(0.593533 0 -0.0244827)
(0.435999 0 -0.025211)
(0.599991 0 -0.0240748)
(0.436812 0 -0.0246011)
(0.605884 0 -0.0233876)
(0.436987 0 -0.0238586)
(0.611259 0 -0.0222481)
(0.436653 0 -0.0227686)
(0.616123 0 -0.0205675)
(0.435877 0 -0.021184)
(0.620405 0 -0.0184118)
(0.434648 0 -0.0190337)
(0.62408 0 -0.0160491)
(0.432954 0 -0.0165057)
(0.627377 0 -0.0137179)
(0.430797 0 -0.0140504)
(0.630573 0 -0.0114123)
(0.428304 0 -0.0118529)
(0.633897 0 -0.00898972)
(0.425576 0 -0.00982789)
(0.636912 0 -0.00662455)
(0.422724 0 -0.00742858)
(0.639278 0 -0.00488563)
(0.420712 0 -0.00478207)
(0.641137 0 -0.0034159)
(0.415251 0 -0.00279941)
(0.407671 0 -0.000842876)
(0.0825644 0 -0.626844)
(0.0299512 0 -0.689887)
(0.142798 0 -0.529722)
(0.0885363 0 -0.606607)
(0.184654 0 -0.412378)
(0.108583 0 -0.474684)
(0.215316 0 -0.312736)
(0.132257 0 -0.360239)
(0.23802 0 -0.234419)
(0.143888 0 -0.269742)
(0.254748 0 -0.174563)
(0.151749 0 -0.200156)
(0.266914 0 -0.129813)
(0.155957 0 -0.14772)
(0.275587 0 -0.0971818)
(0.157231 0 -0.109049)
(0.281812 0 -0.0740143)
(0.156167 0 -0.0814664)
(0.286291 0 -0.0578546)
(0.153482 0 -0.0622281)
(0.289226 0 -0.0467178)
(0.149681 0 -0.0487615)
(0.290783 0 -0.039084)
(0.144814 0 -0.0394305)
(0.290916 0 -0.0338801)
(0.138747 0 -0.0328738)
(0.289715 0 -0.030442)
(0.131348 0 -0.0284179)
(0.287308 0 -0.028212)
(0.122828 0 -0.0254918)
(0.283803 0 -0.0267138)
(0.113334 0 -0.0235626)
(0.279324 0 -0.025582)
(0.103027 0 -0.0222185)
(0.274039 0 -0.0245336)
(0.0921084 0 -0.021153)
(0.26812 0 -0.0233367)
(0.0807943 0 -0.0200885)
(0.261709 0 -0.0217911)
(0.0692127 0 -0.0187815)
(0.254886 0 -0.0197457)
(0.0573461 0 -0.0170404)
(0.247544 0 -0.0172601)
(0.0450382 0 -0.0146807)
(0.239513 0 -0.0147618)
(0.0322266 0 -0.0118568)
(0.23119 0 -0.0127958)
(0.0181676 0 -0.00934556)
(0.222891 0 -0.0112995)
(0.0023541 0 -0.00727305)
(0.215002 0 -0.00946243)
(-0.0139514 0 -0.00557675)
(0.206847 0 -0.00640606)
(-0.02954 0 -0.00313833)
(0.195657 0 -0.00254214)
(-0.0417386 0 0.000966285)
(0.181323 0 0.000325463)
(-0.0526373 0 0.00439039)
(-0.065003 0 0.00442098)
(0.0430743 0 -0.676993)
(0.00630363 0 -0.732075)
(0.0595098 0 -0.558991)
(0.0247085 0 -0.622324)
(0.0630772 0 -0.429069)
(-0.0014194 0 -0.478015)
(0.0623548 0 -0.322467)
(-0.012872 0 -0.35958)
(0.0583902 0 -0.239304)
(-0.0324258 0 -0.266213)
(0.0523448 0 -0.17603)
(-0.0508072 0 -0.194901)
(0.0447226 0 -0.128785)
(-0.069377 0 -0.141252)
(0.035828 0 -0.09442)
(-0.088159 0 -0.10168)
(0.0260873 0 -0.0702041)
(-0.107329 0 -0.0735865)
(0.0157818 0 -0.0532914)
(-0.126538 0 -0.0540882)
(0.00462212 0 -0.0412814)
(-0.145361 0 -0.040155)
(-0.00797489 0 -0.0327578)
(-0.163924 0 -0.029945)
(-0.0216119 0 -0.0268213)
(-0.182688 0 -0.0228477)
(-0.0362153 0 -0.0227886)
(-0.201877 0 -0.0179349)
(-0.051561 0 -0.0201349)
(-0.221615 0 -0.0147361)
(-0.0675037 0 -0.0184)
(-0.24183 0 -0.0126524)
(-0.083879 0 -0.0172671)
(-0.262319 0 -0.0112768)
(-0.100532 0 -0.0164741)
(-0.283143 0 -0.0102885)
(-0.117354 0 -0.0157326)
(-0.304407 0 -0.00937333)
(-0.134333 0 -0.014674)
(-0.326203 0 -0.00822124)
(-0.151619 0 -0.0128512)
(-0.34844 0 -0.00654352)
(-0.169567 0 -0.00991634)
(-0.370686 0 -0.00403913)
(-0.189192 0 -0.00608095)
(-0.392017 0 -0.000495597)
(-0.211522 0 -0.00246339)
(-0.411813 0 0.00327599)
(-0.235106 0 1.43072e-05)
(-0.430954 0 0.00574239)
(-0.257653 0 0.00197598)
(-0.449654 0 0.0065729)
(-0.277119 0 0.00470307)
(-0.46695 0 0.00710339)
(-0.290944 0 0.00740176)
(-0.48096 0 0.00806794)
(-0.299919 0 0.00772276)
(-0.489589 0 0.00889217)
(-0.495787 0 0.00786798)
(-0.00540466 0 -0.682627)
(-0.022292 0 -0.726782)
(-0.0340067 0 -0.545625)
(-0.0495944 0 -0.594972)
(-0.070146 0 -0.409755)
(-0.12221 0 -0.444271)
(-0.105898 0 -0.302649)
(-0.174004 0 -0.326987)
(-0.140341 0 -0.219953)
(-0.227613 0 -0.235554)
(-0.172892 0 -0.157671)
(-0.275776 0 -0.166611)
(-0.203719 0 -0.111516)
(-0.319537 0 -0.115093)
(-0.233327 0 -0.0784138)
(-0.359666 0 -0.0771483)
(-0.261679 0 -0.0556463)
(-0.397662 0 -0.0506503)
(-0.288584 0 -0.0398718)
(-0.434797 0 -0.0328369)
(-0.314353 0 -0.0282439)
(-0.47078 0 -0.0202817)
(-0.3392 0 -0.0196407)
(-0.503051 0 -0.0112352)
(-0.363545 0 -0.0135937)
(-0.532661 0 -0.00494924)
(-0.387803 0 -0.00943286)
(-0.560201 0 -0.00052089)
(-0.412112 0 -0.00666787)
(-0.586288 0 0.00230201)
(-0.43652 0 -0.0048812)
(-0.611452 0 0.00405101)
(-0.461152 0 -0.00354499)
(-0.635884 0 0.00518153)
(-0.486389 0 -0.00219705)
(-0.659689 0 0.00617596)
(-0.512565 0 -0.000608484)
(-0.683012 0 0.0073005)
(-0.539584 0 0.00126169)
(-0.706109 0 0.00858311)
(-0.566673 0 0.00343623)
(-0.729128 0 0.00990599)
(-0.592331 0 0.00597527)
(-0.751696 0 0.0111742)
(-0.614411 0 0.00860828)
(-0.772718 0 0.0122866)
(-0.631863 0 0.0105261)
(-0.790446 0 0.0131402)
(-0.646044 0 0.0111313)
(-0.804854 0 0.0135687)
(-0.658592 0 0.0108239)
(-0.817462 0 0.0133344)
(-0.66975 0 0.0105185)
(-0.82868 0 0.0129743)
(-0.679318 0 0.0104398)
(-0.838437 0 0.012983)
(-0.686987 0 0.00989889)
(-0.846206 0 0.0127385)
(-0.85061 0 0.0116093)
(-0.0561859 0 -0.637935)
(-0.0579811 0 -0.671751)
(-0.136911 0 -0.489177)
(-0.134972 0 -0.517775)
(-0.217235 0 -0.355593)
(-0.257326 0 -0.369271)
(-0.292958 0 -0.253863)
(-0.35539 0 -0.257952)
(-0.361583 0 -0.177239)
(-0.447387 0 -0.174469)
(-0.422587 0 -0.120541)
(-0.528932 0 -0.113591)
(-0.476563 0 -0.0784109)
(-0.600399 0 -0.0692894)
(-0.525701 0 -0.0470381)
(-0.662744 0 -0.0364352)
(-0.572515 0 -0.0245745)
(-0.714787 0 -0.0127795)
(-0.617858 0 -0.0096454)
(-0.759912 0 0.00297774)
(-0.659763 0 -0.000366252)
(-0.799985 0 0.0120366)
(-0.696777 0 0.00535038)
(-0.835206 0 0.016636)
(-0.729525 0 0.00905598)
(-0.866551 0 0.0191273)
(-0.758782 0 0.0115118)
(-0.894848 0 0.0204814)
(-0.785558 0 0.0130622)
(-0.920753 0 0.0210694)
(-0.810572 0 0.0139409)
(-0.945014 0 0.0211686)
(-0.834067 0 0.0144687)
(-0.967992 0 0.0208806)
(-0.855927 0 0.0149379)
(-0.98957 0 0.0204371)
(-0.876191 0 0.0155033)
(-1.00965 0 0.0202086)
(-0.895257 0 0.0161485)
(-1.02845 0 0.0204411)
(-0.913639 0 0.0167527)
(-1.04651 0 0.0210686)
(-0.931487 0 0.0171984)
(-1.06421 0 0.0217561)
(-0.948398 0 0.0174141)
(-1.08136 0 0.0220769)
(-0.963623 0 0.0173183)
(-1.09716 0 0.0217455)
(-0.976575 0 0.0168374)
(-1.11081 0 0.020717)
(-0.987499 0 0.0161319)
(-1.12222 0 0.0192207)
(-0.996799 0 0.015514)
(-1.1318 0 0.0178672)
(-1.00462 0 0.014916)
(-1.14 0 0.0169983)
(-1.01141 0 0.0139973)
(-1.14659 0 0.0161441)