/*--------------------------------*- C++ -*----------------------------------*\
  =========                 |
  \\      /  F ield         | OpenFOAM: The Open Source CFD Toolbox
   \\    /   O peration     | Website:  https://openfoam.org
    \\  /    A nd           | Version:  dev
     \\/     M anipulation  |
\*---------------------------------------------------------------------------*/
FoamFile
{
    version     2.0;
    format      ascii;
    class       volScalarField;
    location    "3.2";
    object      p;
}
// * * * * * * * * * * * * * * * * * * * * * * * * * * * * * * * * * * * * * //

dimensions      [0 2 -2 0 0 0 0];

internalField   nonuniform List<scalar> 
2790
(
147.402
147.31
147.577
148.148
148.928
149.885
151.018
152.324
153.801
155.442
157.241
159.192
161.286
163.511
165.851
168.287
170.791
173.33
175.861
178.335
180.694
182.871
184.802
186.422
187.682
188.556
188.992
189.047
189.098
189.311
147.2
147.217
147.51
148.078
148.854
149.808
150.936
152.237
153.706
155.338
157.128
159.069
161.152
163.366
165.695
168.12
170.616
173.149
175.679
178.157
180.526
182.721
184.675
186.324
187.608
188.482
188.879
188.934
189.066
189.351
147.001
147.089
147.4
147.958
148.721
149.662
150.775
152.058
153.506
155.113
156.875
158.785
160.833
163.008
165.296
167.678
170.13
172.621
175.113
177.56
179.91
182.102
184.074
185.764
187.115
188.091
188.684
189.039
189.355
189.653
146.776
146.894
147.218
147.768
148.516
149.441
150.534
151.793
153.212
154.786
156.51
158.375
160.374
162.494
164.722
167.04
169.424
171.847
174.274
176.665
178.972
181.143
183.125
184.865
186.319
187.471
188.339
189.01
189.563
190.082
146.515
146.648
146.98
147.522
148.254
149.158
150.225
151.452
152.834
154.365
156.04
157.849
159.784
161.835
163.987
166.222
168.52
170.855
173.197
175.509
177.755
179.89
181.872
183.662
185.232
186.575
187.705
188.668
189.479
190.226
146.214
146.353
146.687
147.219
147.931
148.809
149.845
151.034
152.372
153.851
155.466
157.209
159.07
161.037
163.098
165.236
167.431
169.66
171.897
174.112
176.275
178.352
180.314
182.134
183.797
185.299
186.645
187.851
188.871
189.789
145.872
146.011
146.342
146.861
147.55
148.398
149.397
150.543
151.829
153.249
154.796
156.461
158.236
160.109
162.066
164.092
166.167
168.273
170.386
172.482
174.537
176.527
178.435
180.245
181.951
183.551
185.045
186.424
187.589
188.636
145.487
145.624
145.949
146.451
147.114
147.928
148.886
149.981
151.209
152.562
154.032
155.612
157.29
159.056
160.896
162.795
164.736
166.7
168.668
170.619
172.537
174.404
176.211
177.953
179.631
181.25
182.805
184.277
185.527
186.677
145.061
145.194
145.508
145.991
146.625
147.401
148.313
149.353
150.517
151.796
153.182
154.666
156.238
157.887
159.597
161.356
163.145
164.948
166.748
168.526
170.269
171.967
173.615
175.215
176.776
178.311
179.819
181.289
182.561
183.799
144.594
144.722
145.023
145.483
146.086
146.821
147.682
148.663
149.756
150.955
152.25
153.631
155.088
156.608
158.178
159.782
161.403
163.025
164.631
166.204
167.732
169.206
170.624
171.992
173.324
174.642
175.962
177.3
178.5
179.805
144.089
144.211
144.496
144.932
145.5
146.19
146.997
147.914
148.933
150.046
151.243
152.514
153.848
155.23
156.648
158.084
159.521
160.942
162.329
163.663
164.931
166.12
167.227
168.255
169.218
170.146
171.076
172.074
173.036
174.354
143.547
143.661
143.93
144.338
144.869
145.513
146.262
147.112
148.052
149.074
150.168
151.323
152.526
153.763
155.018
156.275
157.513
158.714
159.856
160.918
161.879
162.721
163.429
163.994
164.42
164.729
164.971
165.278
165.659
166.832
142.97
143.077
143.326
143.706
144.198
144.792
145.482
146.26
147.118
148.046
149.032
150.066
151.132
152.217
153.302
154.369
155.396
156.359
157.235
157.994
158.606
159.04
159.262
159.237
158.932
158.334
157.457
156.463
155.514
156.018
142.361
142.459
142.689
143.039
143.49
144.033
144.661
145.365
146.138
146.968
147.844
148.752
149.677
150.604
151.513
152.382
153.187
153.901
154.492
154.924
155.154
155.131
154.792
154.059
152.836
151.005
148.44
145.135
141.183
139.143
141.721
141.811
142.021
142.339
142.748
143.238
143.802
144.432
145.117
145.847
146.609
147.389
148.171
148.936
149.664
150.331
150.909
151.365
151.661
151.752
151.579
151.068
150.123
148.608
146.328
142.995
138.149
131.128
120.657
108.418
2.02318
1.99529
1.90131
1.77022
1.6297
1.49254
1.36279
1.24131
1.12785
1.02157
0.921447
0.826674
0.73689
0.652163
0.572749
0.49886
0.430865
0.370082
0.319254
0.281225
0.256766
0.242093
0.231081
0.2205
0.208013
0.19012
0.16558
0.132181
0.0895933
0.0388659
1.95272
1.92069
1.83293
1.71262
1.58295
1.45502
1.33284
1.2175
1.1089
1.00634
0.908969
0.816156
0.727764
0.644092
0.565522
0.492132
0.423979
0.362368
0.310891
0.274068
0.252492
0.240699
0.232228
0.223289
0.211901
0.195194
0.170056
0.136054
0.0919111
0.0375073
1.88014
1.84213
1.75813
1.64738
1.52868
1.4106
1.29674
1.18833
1.08533
0.987137
0.893023
0.802535
0.715783
0.633386
0.555971
0.483518
0.415608
0.353464
0.301692
0.266029
0.246576
0.235087
0.226715
0.219586
0.2122
0.197398
0.173103
0.139881
0.0958796
0.0371449
1.8164
1.77242
1.69058
1.58721
1.4778
1.36835
1.26201
1.15998
1.06224
0.968252
0.877341
0.789171
0.70404
0.622881
0.546678
0.475492
0.40819
0.344831
0.290141
0.255116
0.242487
0.238816
0.233829
0.227762
0.217913
0.201057
0.175046
0.140382
0.0950424
0.0361427
1.78188
1.73203
1.65231
1.5535
1.44991
1.34568
1.24388
1.14564
1.05103
0.959537
0.870567
0.783838
0.699705
0.619188
0.543456
0.473009
0.407482
0.347835
0.297606
0.259909
0.240177
0.234443
0.232245
0.228957
0.220482
0.203768
0.177699
0.141656
0.0947078
0.0346913
1.79265
1.73512
1.65649
1.55736
1.45388
1.3495
1.24749
1.14908
1.0544
0.962991
0.874289
0.787998
0.704377
0.624232
0.548501
0.477757
0.412341
0.353764
0.305786
0.271541
0.251159
0.241393
0.236114
0.230957
0.221129
0.202653
0.174216
0.136993
0.0891332
0.0306134
1.8565
1.78983
1.70436
1.59868
1.48783
1.3771
1.26971
1.16689
1.0687
0.974668
0.884241
0.797101
0.713364
0.633534
0.55823
0.487925
0.423171
0.365441
0.317003
0.281249
0.259127
0.246561
0.238565
0.230855
0.218919
0.199012
0.169551
0.130491
0.0818433
0.027109
1.97061
1.88807
1.78514
1.66382
1.53866
1.41591
1.29884
1.18859
1.08499
0.987222
0.894442
0.806096
0.722043
0.642468
0.567684
0.498045
0.434178
0.377216
0.329251
0.292632
0.267753
0.251663
0.240187
0.229204
0.214578
0.192798
0.161767
0.121195
0.0727201
0.0236037
2.11069
2.00216
1.872
1.7281
1.58535
1.44935
1.32247
1.20455
1.09563
0.994548
0.900022
0.811126
0.727397
0.648656
0.574829
0.506033
0.442881
0.386765
0.339465
0.30238
0.275377
0.256115
0.24113
0.226749
0.20934
0.185598
0.152929
0.11074
0.063051
0.0201314
2.23568
2.09405
1.94008
1.77433
1.61336
1.46448
1.32934
1.20731
1.09623
0.994188
0.899495
0.811073
0.728404
0.651138
0.57888
0.511453
0.449378
0.394046
0.347169
0.309741
0.281224
0.259421
0.241291
0.223689
0.203575
0.177884
0.143574
0.0998503
0.0534143
0.0167772
2.32553
2.15072
1.96893
1.78552
1.61335
1.45734
1.31807
1.19437
1.0837
0.983183
0.890363
0.803928
0.723526
0.648816
0.579008
0.513463
0.452584
0.39798
0.351571
0.314217
0.284987
0.261477
0.2408
0.220323
0.197681
0.17012
0.134255
0.0892637
0.0442249
0.0136012
2.34791
2.14098
1.93357
1.7361
1.5612
1.4088
1.27547
1.15793
1.05353
0.958997
0.871068
0.788476
0.711728
0.640954
0.574817
0.511812
0.452138
0.398016
0.352115
0.315448
0.286531
0.262323
0.239801
0.216834
0.191854
0.162572
0.125388
0.0794488
0.0354175
0.0106377
2.22408
1.9742
1.77238
1.59552
1.4434
1.31319
1.19894
1.09642
1.00494
0.921691
0.842019
0.7648
0.69274
0.627391
0.566499
0.506807
0.44809
0.393829
0.348335
0.313158
0.285897
0.262209
0.238578
0.213421
0.186207
0.155372
0.117232
0.0707402
0.0280146
0.00805436
1.83694
1.5565
1.43662
1.34628
1.25298
1.16951
1.09119
1.01245
0.93969
0.873491
0.80549
0.733974
0.666555
0.608215
0.554858
0.499496
0.440981
0.385219
0.339681
0.307049
0.283286
0.261619
0.237558
0.210286
0.180743
0.148489
0.109919
0.0634378
0.0218879
0.0059206
1.01657
0.717124
0.856285
0.994926
0.998635
0.988797
0.965635
0.913067
0.858879
0.816742
0.765414
0.698166
0.633272
0.583582
0.541454
0.491877
0.431779
0.371782
0.325106
0.296523
0.278978
0.261265
0.237293
0.207596
0.175319
0.141715
0.103504
0.0580107
0.0176316
0.00442411
141.042
141.123
141.311
141.596
141.961
142.396
142.894
143.446
144.041
144.668
145.313
145.961
146.595
147.195
147.738
148.197
148.541
148.733
148.727
148.467
147.881
146.872
145.308
142.994
139.632
134.725
127.351
115.594
93.4133
33.5311
140.315
140.386
140.552
140.802
141.121
141.499
141.928
142.399
142.901
143.422
143.946
144.459
144.941
145.371
145.724
145.971
146.077
146.001
145.691
145.082
144.089
142.599
140.454
137.422
133.145
127.039
118.071
104.507
84.985
56.5542
139.545
139.607
139.749
139.963
140.235
140.554
140.913
141.301
141.707
142.119
142.521
142.895
143.224
143.483
143.646
143.681
143.552
143.213
142.608
141.666
140.296
138.378
135.746
132.172
127.329
120.764
111.888
100.064
85.8523
69.2856
138.735
138.786
138.905
139.082
139.305
139.564
139.851
140.155
140.465
140.766
141.045
141.281
141.457
141.546
141.521
141.35
140.993
140.403
139.522
138.277
136.577
134.305
131.309
127.393
122.31
115.768
107.473
97.0945
84.5731
69.4736
137.885
137.926
138.02
138.16
138.334
138.532
138.746
138.966
139.178
139.371
139.526
139.627
139.651
139.574
139.368
138.999
138.427
137.604
136.474
134.965
132.991
130.448
127.205
123.108
117.975
111.609
103.809
94.3354
83.0204
70.0725
136.998
137.028
137.098
137.2
137.324
137.462
137.603
137.739
137.855
137.939
137.974
137.941
137.819
137.583
137.204
136.649
135.879
134.847
133.499
131.77
129.582
126.846
123.456
119.293
114.228
108.126
100.865
92.3472
82.5638
71.9282
136.077
136.097
136.142
136.206
136.281
136.358
136.427
136.48
136.502
136.48
136.397
136.236
135.974
135.587
135.047
134.321
133.373
132.158
130.627
128.722
126.377
123.517
120.062
115.924
111.016
105.259
98.6006
91.0291
82.5887
73.6149
135.125
135.134
135.155
135.182
135.208
135.225
135.224
135.195
135.125
135
134.805
134.521
134.127
133.6
132.912
132.033
130.929
129.559
127.879
125.841
123.39
120.467
117.012
112.966
108.276
102.901
96.8288
90.0793
82.7025
74.9702
134.145
134.144
134.141
134.131
134.109
134.068
133.998
133.89
133.732
133.51
133.208
132.809
132.292
131.636
130.816
129.802
128.564
127.067
125.273
123.141
120.628
117.691
114.287
110.377
105.934
100.942
95.4085
89.3665
82.87
76.1461
133.142
133.131
133.104
133.059
132.99
132.893
132.757
132.574
132.331
132.017
131.615
131.109
130.481
129.709
128.771
127.642
126.293
124.695
122.817
120.626
118.09
115.176
111.858
108.112
103.927
99.3032
94.2588
88.8329
83.0785
77.1802
132.12
132.099
132.05
131.97
131.857
131.705
131.507
131.252
130.93
130.529
130.035
129.432
128.703
127.829
126.79
125.563
124.126
122.452
120.518
118.297
115.767
112.906
109.696
106.128
102.201
97.9229
93.3188
88.4274
83.2966
78.0745
131.084
131.054
130.983
130.87
130.715
130.512
130.254
129.932
129.537
129.056
128.478
127.787
126.969
126.007
124.882
123.576
122.07
120.343
118.376
116.15
113.649
110.86
107.774
104.388
100.709
96.7513
92.5393
88.1096
83.504
78.8415
130.039
130
129.909
129.765
129.57
129.319
129.006
128.622
128.159
127.606
126.952
126.183
125.288
124.25
123.055
121.687
120.13
118.369
116.389
114.177
111.722
109.019
106.063
102.859
99.4149
95.7482
91.8832
87.8524
83.6914
79.4962
128.991
128.945
128.834
128.661
128.429
128.133
127.769
127.328
126.804
126.186
125.464
124.629
123.667
122.566
121.315
119.899
118.308
116.529
114.552
112.369
109.974
107.364
104.541
101.511
98.2852
94.8817
91.3229
87.637
83.8543
80.0523
127.947
127.893
127.764
127.564
127.298
126.961
126.55
126.059
125.479
124.803
124.023
123.13
122.112
120.961
119.666
118.217
116.605
114.822
112.861
110.718
108.389
105.876
103.183
100.318
97.2942
94.1272
90.8378
87.4506
83.9908
80.5218
126.913
126.851
126.706
126.482
126.183
125.81
125.357
124.82
124.191
123.466
122.635
121.693
120.63
119.439
118.112
116.641
115.021
113.244
111.309
109.212
106.955
104.539
101.972
99.2614
96.4207
93.4649
90.4124
87.2841
84.1012
80.9155
125.894
125.826
125.666
125.42
125.093
124.687
124.197
123.619
122.948
122.179
121.306
120.324
119.225
118.004
116.654
115.172
113.552
111.791
109.888
107.843
105.658
103.338
100.889
98.322
95.6473
92.8797
90.0352
87.1315
84.1867
81.2432
124.899
124.826
124.652
124.386
124.034
123.598
123.075
122.462
121.755
120.95
120.042
119.027
117.9
116.658
115.295
113.808
112.196
110.457
108.591
106.6
104.488
102.259
99.9221
97.4854
94.9603
92.3597
89.6975
86.9891
84.2495
81.5137
123.935
123.856
123.671
123.387
123.013
122.551
122
121.356
120.618
119.783
118.847
117.807
116.66
115.403
114.033
112.549
110.951
109.238
107.412
105.476
103.434
101.292
99.0576
96.7398
94.3487
91.8958
89.3933
86.8544
84.2919
81.7347
123.008
122.925
122.729
122.429
122.036
121.552
120.977
120.308
119.545
118.685
117.726
116.667
115.506
114.24
112.87
111.394
109.814
108.129
106.344
104.462
102.487
100.426
98.2861
96.0755
93.8037
91.4811
89.1183
86.7266
84.3169
81.9133
122.127
122.039
121.835
121.522
121.112
120.609
120.013
119.323
118.539
117.66
116.684
115.611
114.441
113.172
111.806
110.341
108.781
107.127
105.383
103.552
101.64
99.6538
97.5993
95.4847
93.3188
91.1105
88.8694
86.6052
84.3274
82.0559
121.299
121.208
120.995
120.671
120.247
119.728
119.115
118.408
117.607
116.713
115.725
114.643
113.468
112.2
110.84
109.389
107.851
106.228
104.523
102.741
100.888
98.9687
96.9909
94.9617
92.8888
90.7805
88.645
86.491
84.3265
82.1684
120.532
120.438
120.219
119.884
119.448
118.916
118.289
117.568
116.755
115.849
114.852
113.765
112.588
111.323
109.972
108.537
107.021
105.428
103.76
102.024
100.223
98.3653
96.4557
94.5016
92.51
90.4883
88.444
86.3845
84.3171
82.2557
119.834
119.738
119.513
119.17
118.723
118.18
117.542
116.811
115.987
115.073
114.07
112.98
111.805
110.545
109.205
107.786
106.292
104.726
103.093
101.397
99.6447
97.8405
95.9908
94.102
92.1806
90.2333
88.2669
86.288
84.3031
82.3238
119.215
119.116
118.885
118.535
118.08
117.527
116.88
116.14
115.309
114.39
113.383
112.293
111.12
109.867
108.537
107.134
105.66
104.12
102.518
100.859
99.148
97.3905
95.5924
93.7594
91.8978
90.0135
88.1128
86.2015
84.2856
82.3747
118.683
118.582
118.345
117.987
117.525
116.965
116.311
115.565
114.729
113.806
112.798
111.708
110.538
109.293
107.973
106.584
105.129
103.612
102.037
100.41
98.7343
97.0166
95.2619
93.4758
91.664
89.8322
87.9859
86.1306
84.2718
82.4176
118.248
118.143
117.899
117.533
117.064
116.499
115.839
115.088
114.248
113.323
112.314
111.226
110.061
108.821
107.512
106.135
104.696
103.198
101.646
100.045
98.3991
96.7138
94.9943
93.246
91.4742
89.6842
87.8812
86.0702
84.2562
82.4461
117.922
117.811
117.558
117.186
116.712
116.142
115.478
114.724
113.881
112.954
111.946
110.859
109.698
108.464
107.163
105.797
104.371
102.889
101.355
99.7743
98.1516
96.4917
94.7998
93.0809
91.3402
89.5827
87.8132
86.0368
84.258
82.483
117.72
117.585
117.315
116.937
116.461
115.888
115.222
114.466
113.622
112.695
111.688
110.603
109.445
108.216
106.921
105.563
104.146
102.675
101.154
99.5872
97.9801
96.3374
94.6639
92.9646
91.2444
89.5081
87.7606
86.0063
84.2498
82.4959
117.702
117.503
117.205
116.82
116.341
115.765
115.096
114.338
113.493
112.566
111.56
110.477
109.321
108.096
106.806
105.453
104.043
102.579
101.067
99.5098
97.9131
96.2814
94.6197
92.9328
91.2254
89.5024
87.7683
86.0277
84.2847
82.5438
-50.6074
-30.4354
-10.9836
36.2766
29.02
17.3654
51.895
39.9089
28.8326
53.2565
42.8778
34.887
57.5622
49.3089
42.5876
61.9287
55.0465
49.1793
65.1776
59.3146
54.2811
67.7502
62.7381
58.4394
69.9184
65.5949
61.893
71.7479
67.9752
64.7526
73.2857
69.9593
67.1251
74.5808
71.6208
69.1038
75.6735
73.0171
70.7616
76.596
74.1934
72.1555
77.3745
75.1859
73.3309
78.0307
76.0242
74.3239
78.5828
76.7319
75.1634
79.0458
77.3286
75.8728
79.4326
77.8305
76.4715
79.7541
78.2515
76.9756
80.0199
78.6031
77.3985
80.2385
78.8955
77.7521
80.4165
79.1369
78.0457
80.5619
79.3362
78.2892
80.6773
79.4968
78.4869
80.7743
79.6312
78.6513
80.8443
79.731
78.7759
80.9159
79.8253
78.8875
80.9491
79.8748
78.951
81.0179
79.9578
79.0404
-1.92009
-1.75425
-0.346135
0.683496
0.754455
0.786741
0.828
0.796458
0.757774
0.759838
0.736043
0.66421
0.591637
0.55046
0.526889
0.486398
0.421521
0.352467
0.302648
0.280537
0.273633
0.262596
0.23882
0.20565
0.169694
0.134634
0.0978614
0.0548891
0.0158578
0.00376443
3.69563
0.547316
1.56877
1.26961
0.235039
0.241675
0.691588
0.762727
0.688487
0.724113
0.718996
0.615116
0.517501
0.496199
0.51767
0.495052
0.416788
0.327809
0.269201
0.256189
0.26749
0.267459
0.243113
0.20422
0.162967
0.126223
0.0925041
0.0545868
0.0173191
0.00418027
14.6348
6.1775
3.27011
1.1512
0.610706
1.27757
1.51316
0.73219
0.229563
0.418702
0.720351
0.630013
0.478581
0.475739
0.547097
0.521373
0.405512
0.278343
0.20507
0.212106
0.262484
0.28267
0.254011
0.204802
0.155664
0.116662
0.0877798
0.058493
0.0236931
0.00592641
24.1981
14.358
8.53232
4.80714
2.88121
2.04444
1.16659
0.525571
0.460261
1.2598
1.42456
0.618135
0.165154
0.152407
0.406281
0.565385
0.430944
0.248552
0.15488
0.193066
0.295345
0.314306
0.26707
0.200181
0.140691
0.0996567
0.0785193
0.064596
0.0359774
0.0091116
33.2894
23.5604
16.2553
10.944
7.25696
4.74953
2.96117
1.87196
1.36929
1.33849
0.94945
0.481054
0.19422
0.40918
1.02244
0.978282
0.427908
0.0908801
-0.058742
0.00206491
0.205975
0.337987
0.295683
0.204722
0.13315
0.091762
0.0813682
0.0905598
0.0731334
0.0169151
41.2075
32.301
24.421
17.9874
13.05
9.37878
6.68133
4.75029
3.40933
2.49978
1.74157
1.14782
0.745176
0.686622
0.800852
0.711576
0.410005
0.0998007
-0.0448943
0.127818
0.529313
0.566705
0.310866
0.158305
0.0782863
0.044831
0.0458825
0.0821702
0.102952
0.012245
47.6639
39.8712
32.1045
25.2174
19.5828
15.0988
11.5525
8.77466
6.64058
5.03145
3.78364
2.78942
2.04421
1.5866
1.3187
1.06184
0.709406
0.348945
0.154772
0.200493
0.350621
0.402038
0.312084
0.200276
0.13176
0.101123
0.107069
0.166735
0.258563
0.0449471
52.9237
46.2003
38.949
32.1205
26.2305
21.2701
17.1137
13.6704
10.8673
8.616
6.79679
5.31535
4.14456
3.27367
2.63185
2.08634
1.54622
1.06399
0.746541
0.623438
0.611342
0.586312
0.469377
0.319367
0.213776
0.16054
0.15286
0.182888
0.235005
-0.0404665
57.2156
51.4026
44.8213
38.3474
32.5241
27.4019
22.9181
19.0367
15.7271
12.9374
10.5946
8.63436
7.01833
5.71439
4.66233
3.7721
2.98304
2.3111
1.80465
1.47438
1.2656
1.08338
0.866093
0.646026
0.475578
0.363247
0.29666
0.254125
0.183905
-0.293532
60.7181
55.6516
49.7495
43.7629
38.2039
33.1497
28.572
24.4666
20.8351
17.66
14.905
12.53
10.5005
8.7832
7.33196
6.0889
5.0105
4.08976
3.34061
2.76112
2.31152
1.92719
1.56459
1.23134
0.952316
0.73118
0.551649
0.378973
0.131695
-0.514942
63.5947
59.1346
53.8533
48.3822
43.1803
38.3307
33.8207
29.6619
25.8755
22.4672
19.4257
16.7304
14.3589
12.2861
10.4804
8.90387
7.52426
6.32626
5.30698
4.45706
3.7469
3.13295
2.58143
2.08486
1.64949
1.27238
0.933265
0.5898
0.16066
-0.598173
65.9771
62.0117
57.2713
52.2886
47.4681
42.8881
38.5418
34.4462
30.6312
27.1156
23.9035
20.9893
18.3626
16.009
13.9088
12.038
10.3738
8.90065
7.60911
6.4869
5.51123
4.65124
3.87961
3.18236
2.55458
1.987
1.45691
0.922705
0.318861
-0.529489
67.9642
64.4065
60.1282
55.5849
51.1326
46.8415
42.7055
38.7417
34.9819
31.4509
28.1613
25.1177
22.319
19.7597
17.4296
15.3151
13.4013
11.6759
10.1282
8.74631
7.51226
6.40334
5.39751
4.47895
3.63673
2.8574
2.11826
1.38358
0.606165
-0.334615
69.6308
66.4123
62.5271
58.3698
54.2559
50.2473
46.3364
42.5381
38.8825
35.3962
32.0963
28.9928
26.0909
23.3917
20.8923
18.5863
16.4655
14.5212
12.7448
11.1258
9.65053
8.30193
7.06231
5.91628
4.85049
3.84992
2.89375
1.95355
0.997514
-0.052846
71.0342
68.1006
64.5501
60.7287
56.9182
53.1731
49.4842
45.8626
42.336
38.9301
35.6636
32.5493
29.5962
26.8098
24.1921
21.742
19.4561
17.3294
15.3559
13.5278
11.8346
10.2636
8.80073
7.43207
6.14421
4.92237
3.74846
2.60061
1.45792
0.273959
72.2194
69.5266
66.2619
62.7318
59.1901
55.6849
52.2053
48.7592
45.3707
42.0639
38.8572
35.7646
32.7971
29.9627
27.2669
24.7119
22.298
20.0232
17.8843
15.8758
13.9903
12.2183
10.5486
8.96942
7.46832
6.03178
4.64438
3.2892
1.95188
0.609297
73.2218
70.7333
67.7135
64.4359
61.1309
57.8412
54.5544
51.2755
48.0251
44.825
41.6927
38.6421
35.6849
32.8309
30.087
27.4582
24.947
22.5541
20.2783
18.1166
16.0639
14.1132
12.2559
10.4821
8.78086
7.14021
5.54687
3.98712
2.44961
0.926935
74.0697
71.7554
68.9459
65.8873
62.7898
59.6919
56.5803
53.4569
50.3394
47.2469
44.1956
41.1988
38.2683
35.414
32.6443
29.9655
27.3818
24.8958
22.508
20.2172
18.0203
15.9125
13.8872
11.9361
10.0499
8.21784
6.42833
4.66924
2.92986
1.21212
74.7866
72.6208
69.9922
67.1234
64.2074
61.2794
58.325
55.3441
52.3512
49.3633
46.3947
43.4578
40.5637
37.7227
34.9433
32.2326
29.596
27.0372
24.5583
22.1595
19.8392
17.5943
15.4196
13.3086
11.2531
9.24348
7.26908
5.31834
3.37974
1.45979
75.3916
73.3526
70.8796
68.1752
65.4176
62.6391
59.8248
56.9727
54.0948
51.2056
48.318
45.4431
42.5913
39.7722
36.9945
34.2656
31.5915
28.9767
26.4243
23.9355
21.5101
19.146
16.8397
14.5854
12.3762
10.2033
8.05644
5.92399
3.79303
1.67141
75.9007
73.9698
71.6305
69.0682
66.4483
63.8007
61.1104
58.3736
55.6001
52.8025
49.992
47.1785
44.3713
41.5795
38.8114
36.0744
33.3748
30.7175
28.1062
25.543
23.0285
20.5617
18.1397
15.7582
13.4106
11.0888
8.78276
6.48048
4.1676
1.85141
76.3277
74.4887
72.2641
69.8241
67.3234
64.7898
62.2081
59.5734
56.8936
54.1795
51.4407
48.6858
45.9234
43.1616
40.4083
37.6705
34.9546
32.2656
29.6076
26.9833
24.3938
21.8389
19.3164
16.8225
14.3514
11.8953
9.44412
6.98551
4.50388
2.00498
76.6835
74.9225
72.7956
70.4604
68.0621
65.6269
63.1397
60.5946
57.9976
55.3582
52.6847
49.9846
47.2652
44.5341
41.7984
39.0649
36.3395
33.6274
30.9329
28.2588
25.6067
22.9768
20.3676
17.7756
15.1954
12.6195
10.0378
7.43748
4.80223
2.13577
76.9792
75.2837
73.2394
70.9932
68.6822
66.3311
63.925
61.4573
58.9326
56.3591
53.7439
51.0934
48.4141
45.7127
42.9958
40.2696
37.5397
34.8113
32.0884
29.3742
26.6704
23.9775
21.2943
18.6176
15.9424
13.2611
10.5639
7.83743
5.06494
2.24769
77.2208
75.5796
73.6044
71.4328
69.195
66.9147
64.5773
62.1754
59.7126
57.1959
54.6314
52.0248
49.3816
46.7078
44.0094
41.292
38.5611
35.8213
33.0768
30.3305
27.5845
24.8393
22.0939
19.3453
16.5887
13.8166
11.0189
8.18246
5.29
2.34044
77.4201
75.8231
73.9046
71.7944
69.6168
67.3949
65.1143
62.7671
60.356
57.887
55.3656
52.7965
50.1847
47.5355
44.8541
42.146
39.416
36.6687
33.9078
31.1366
28.3567
25.569
22.7724
19.9641
17.1393
14.2907
11.408
8.47796
5.48312
2.41922
77.5739
76.0118
74.1381
72.0765
69.9468
67.7714
65.5361
63.2327
60.8631
58.4328
55.9463
53.4079
50.822
48.1933
45.5267
42.8271
40.099
37.3467
34.5738
31.7834
28.9772
26.1559
23.3185
20.4623
17.5825
14.6717
11.7197
8.71302
5.63433
2.47699
77.7044
76.168
74.3284
72.3038
70.2102
68.07
65.869
63.5989
61.261
58.8601
56.4004
53.8857
51.3199
48.7073
46.0525
43.3598
40.6337
37.8781
35.0967
32.292
29.4661
26.6194
23.751
20.8583
17.9362
14.9774
11.9715
8.90492
5.7601
2.52648
77.7846
76.2644
74.4472
72.4476
70.3784
68.2617
66.0837
63.8359
61.5192
59.1381
56.6964
54.1977
51.6456
49.044
46.3971
43.7094
40.9848
38.2273
35.4403
32.6264
29.7873
26.9237
24.0345
21.117
18.1662
15.1747
12.1318
9.02358
5.83248
2.5462
77.8733
76.3542
74.5493
72.5647
70.5093
68.4052
66.2394
64.0033
61.6977
59.3267
56.8941
54.4033
51.8576
49.261
46.6175
43.9314
41.2066
38.447
35.6559
32.8359
29.9887
27.115
24.2137
21.2821
18.3151
15.3051
12.2413
9.10877
5.88732
2.5529
)
;

boundaryField
{
    inlet
    {
        type            zeroGradient;
    }
    outlet
    {
        type            fixedValue;
        value           uniform 0;
    }
    flap
    {
        type            zeroGradient;
    }
    upperWall
    {
        type            zeroGradient;
    }
    lowerWall
    {
        type            zeroGradient;
    }
    frontAndBack
    {
        type            empty;
    }
}


// ************************************************************************* //
