/*--------------------------------*- C++ -*----------------------------------*\
  =========                 |
  \\      /  F ield         | OpenFOAM: The Open Source CFD Toolbox
   \\    /   O peration     | Website:  https://openfoam.org
    \\  /    A nd           | Version:  dev
     \\/     M anipulation  |
\*---------------------------------------------------------------------------*/
FoamFile
{
    version     2.0;
    format      ascii;
    class       surfaceVectorField;
    location    "3.2";
    object      Uf;
}
// * * * * * * * * * * * * * * * * * * * * * * * * * * * * * * * * * * * * * //

dimensions      [0 1 -1 0 0 0 0];

internalField   nonuniform List<vector> 
5457
(
(9.92088 0 0.0251098)
(9.97125 0 0.0387461)
(9.82401 0 0.0328272)
(9.92859 0 0.0485858)
(9.70961 0 0.0393126)
(9.85547 0 0.0587691)
(9.57543 0 0.0460123)
(9.7568 0 0.0705947)
(9.42137 0 0.0529498)
(9.63752 0 0.083015)
(9.24753 0 0.0601672)
(9.4986 0 0.0959383)
(9.05361 0 0.0678119)
(9.33929 0 0.109615)
(8.83891 0 0.0760355)
(9.15872 0 0.124291)
(8.6025 0 0.084971)
(8.95607 0 0.140169)
(8.34324 0 0.0947455)
(8.73036 0 0.157435)
(8.05982 0 0.105487)
(8.48038 0 0.176271)
(7.75078 0 0.117328)
(8.20475 0 0.196857)
(7.41454 0 0.130395)
(7.90193 0 0.219361)
(7.04948 0 0.144809)
(7.57029 0 0.243922)
(6.65402 0 0.160671)
(7.20817 0 0.27063)
(6.22671 0 0.178042)
(6.81399 0 0.299497)
(5.76644 0 0.196926)
(6.38633 0 0.33041)
(5.27259 0 0.21723)
(5.92418 0 0.363079)
(4.74541 0 0.238732)
(5.42713 0 0.39697)
(4.18625 0 0.261029)
(4.8957 0 0.431231)
(3.59803 0 0.283484)
(4.3317 0 0.464613)
(2.98563 0 0.305199)
(3.73867 0 0.495419)
(2.3562 0 0.325066)
(3.12235 0 0.521508)
(1.71919 0 0.342546)
(2.49116 0 0.540555)
(1.08443 0 0.361879)
(1.85595 0 0.551673)
(0.451923 0 0.348697)
(1.24556 0 0.563021)
(-0.145772 0 0.102491)
(0.609012 0 0.544899)
(-0.423584 0 -0.20708)
(0.0947106 0 0.259398)
(-0.402137 0 -0.361249)
(-0.133626 0 -0.0205099)
(-0.119671 0 -0.393868)
(9.99641 0 0.0516731)
(9.99705 0 0.0405052)
(9.95879 0 0.0708628)
(9.97851 0 0.0674558)
(9.89824 0 0.0879885)
(9.93377 0 0.0898719)
(9.81658 0 0.105987)
(9.86452 0 0.113557)
(9.71358 0 0.124924)
(9.77437 0 0.138518)
(9.58907 0 0.144856)
(9.66434 0 0.16465)
(9.44273 0 0.166093)
(9.53396 0 0.192336)
(9.27388 0 0.18897)
(9.38248 0 0.222034)
(9.08164 0 0.213785)
(9.20917 0 0.254152)
(8.86488 0 0.240817)
(9.01314 0 0.289067)
(8.62227 0 0.270338)
(8.79329 0 0.327155)
(8.35236 0 0.302607)
(8.54833 0 0.368787)
(8.05354 0 0.337856)
(8.27681 0 0.414316)
(7.7241 0 0.376259)
(7.97715 0 0.464044)
(7.36236 0 0.417898)
(7.6477 0 0.518184)
(6.96672 0 0.462702)
(7.28681 0 0.5768)
(6.53584 0 0.510379)
(6.89295 0 0.639716)
(6.06885 0 0.560324)
(6.46482 0 0.706416)
(5.56562 0 0.611511)
(6.00162 0 0.775896)
(5.02715 0 0.662375)
(5.5033 0 0.84651)
(4.45594 0 0.710699)
(4.97094 0 0.915793)
(3.85657 0 0.753532)
(4.40725 0 0.980294)
(3.23627 0 0.787191)
(3.81711 0 1.03545)
(2.6059 0 0.8075)
(3.20854 0 1.07548)
(1.98288 0 0.810469)
(2.59348 0 1.09315)
(1.40536 0 0.776908)
(1.99629 0 1.07709)
(0.929818 0 0.646423)
(1.41957 0 0.978433)
(0.439914 0 0.384371)
(0.937629 0 0.716831)
(0.0592005 0 -0.11858)
(0.443842 0 0.343569)
(0.174933 0 -0.335885)
(9.98903 0 0.0594321)
(9.99481 0 0.0458784)
(9.95434 0 0.0894786)
(9.97368 0 0.0848562)
(9.89729 0 0.118035)
(9.92984 0 0.119177)
(9.82046 0 0.147902)
(9.86357 0 0.15398)
(9.72415 0 0.179426)
(9.77735 0 0.190413)
(9.6082 0 0.21278)
(9.67226 0 0.228642)
(9.47233 0 0.248397)
(9.54808 0 0.269135)
(9.31605 0 0.286779)
(9.4043 0 0.312502)
(9.13866 0 0.328401)
(9.24032 0 0.35933)
(8.93922 0 0.373724)
(9.05547 0 0.410178)
(8.71662 0 0.423207)
(8.84887 0 0.4656)
(8.46957 0 0.477294)
(8.61948 0 0.526152)
(8.19665 0 0.536394)
(8.36613 0 0.592369)
(7.8963 0 0.600834)
(8.08749 0 0.66473)
(7.5669 0 0.670798)
(7.78218 0 0.743606)
(7.20683 0 0.746241)
(7.44872 0 0.829173)
(6.81457 0 0.826764)
(7.08568 0 0.921298)
(6.38889 0 0.911462)
(6.69171 0 1.01938)
(5.92906 0 0.998735)
(6.26574 0 1.12215)
(5.43519 0 1.08607)
(5.80716 0 1.2274)
(4.90861 0 1.1698)
(5.31613 0 1.33172)
(4.3525 0 1.24488)
(4.79404 0 1.43017)
(3.77267 0 1.30454)
(4.24405 0 1.51586)
(3.17882 0 1.33984)
(3.6719 0 1.57942)
(2.58672 0 1.33813)
(3.08642 0 1.60775)
(2.01994 0 1.27299)
(2.50302 0 1.5816)
(1.48702 0 1.09545)
(1.92882 0 1.46428)
(0.95835 0 0.769221)
(1.38532 0 1.21046)
(0.479907 0 0.202518)
(0.829585 0 0.801107)
(0.433749 0 0.134154)
(9.98515 0 0.0716156)
(9.99367 0 0.0531492)
(9.95039 0 0.113633)
(9.97087 0 0.102293)
(9.89436 0 0.154137)
(9.9269 0 0.147958)
(9.81881 0 0.195578)
(9.86185 0 0.193727)
(9.72441 0 0.238817)
(9.77745 0 0.241284)
(9.61111 0 0.284331)
(9.67465 0 0.291171)
(9.47872 0 0.332727)
(9.55341 0 0.343963)
(9.32693 0 0.38468)
(9.41334 0 0.400379)
(9.1552 0 0.440851)
(9.25398 0 0.461146)
(8.96288 0 0.501886)
(9.07481 0 0.526966)
(8.74914 0 0.568428)
(8.87517 0 0.598538)
(8.51301 0 0.641109)
(8.65426 0 0.676561)
(8.25343 0 0.720523)
(8.41119 0 0.761715)
(7.96923 0 0.807178)
(8.14497 0 0.854626)
(7.65916 0 0.90142)
(7.85452 0 0.955803)
(7.32191 0 1.00333)
(7.53873 0 1.06555)
(6.95621 0 1.11255)
(7.19645 0 1.18382)
(6.56086 0 1.2281)
(6.82653 0 1.31005)
(6.13492 0 1.34813)
(6.42791 0 1.44288)
(5.67789 0 1.46956)
(5.9997 0 1.57986)
(5.19006 0 1.58774)
(5.54139 0 1.71704)
(4.67294 0 1.696)
(5.05312 0 1.8485)
(4.12989 0 1.78513)
(4.53605 0 1.9658)
(3.56675 0 1.84252)
(3.99283 0 2.05729)
(2.99215 0 1.85073)
(3.4277 0 2.10714)
(2.41593 0 1.78252)
(2.84774 0 2.0945)
(1.84062 0 1.60051)
(2.25632 0 1.98878)
(1.25944 0 1.2785)
(1.66039 0 1.75311)
(0.666804 0 0.78962)
(1.02401 0 1.36785)
(0.523056 0 0.787248)
(9.98337 0 0.0844096)
(9.99316 0 0.061293)
(9.94821 0 0.136841)
(9.96958 0 0.11993)
(9.89314 0 0.188037)
(9.92574 0 0.176245)
(9.81906 0 0.240175)
(9.86199 0 0.232705)
(9.72662 0 0.294475)
(9.77963 0 0.291095)
(9.61588 0 0.351667)
(9.67938 0 0.352283)
(9.48669 0 0.412478)
(9.56126 0 0.416986)
(9.33876 0 0.477683)
(9.42494 0 0.486017)
(9.17168 0 0.548056)
(9.27006 0 0.560212)
(8.98489 0 0.624357)
(9.09617 0 0.640392)
(8.77775 0 0.707343)
(8.90271 0 0.727369)
(8.5495 0 0.797759)
(8.68903 0 0.821954)
(8.29932 0 0.896315)
(8.45441 0 0.924933)
(8.02632 0 1.00364)
(8.19804 0 1.03704)
(7.72955 0 1.12018)
(7.91909 0 1.15889)
(7.40804 0 1.24613)
(7.61666 0 1.29089)
(7.06076 0 1.38123)
(7.28984 0 1.43311)
(6.6867 0 1.52454)
(6.93762 0 1.58506)
(6.28487 0 1.67414)
(6.559 0 1.74545)
(5.85442 0 1.82674)
(6.1529 0 1.91183)
(5.39477 0 1.97721)
(5.71827 0 2.08011)
(4.90583 0 2.11801)
(5.25414 0 2.24404)
(4.38834 0 2.23858)
(4.75982 0 2.39456)
(3.84404 0 2.32453)
(4.23505 0 2.51917)
(3.27554 0 2.35696)
(3.68 0 2.60123)
(2.6855 0 2.31063)
(3.09583 0 2.61973)
(2.07278 0 2.15507)
(2.4818 0 2.54737)
(1.42944 0 1.86749)
(1.84 0 2.35381)
(0.742647 0 1.41967)
(1.13142 0 2.02464)
(0.543332 0 1.51462)
(9.98264 0 0.0975004)
(9.99299 0 0.0697948)
(9.94744 0 0.159779)
(9.96925 0 0.137587)
(9.89354 0 0.221354)
(9.92596 0 0.203933)
(9.82133 0 0.2841)
(9.8638 0 0.270696)
(9.73133 0 0.349357)
(9.78384 0 0.339592)
(9.62365 0 0.418028)
(9.68663 0 0.411707)
(9.49817 0 0.490947)
(9.57216 0 0.487914)
(9.35463 0 0.568982)
(9.44019 0 0.569115)
(9.19266 0 0.653011)
(9.2904 0 0.656243)
(9.0118 0 0.743901)
(9.12239 0 0.75022)
(8.81147 0 0.842516)
(8.93567 0 0.85196)
(8.59105 0 0.949703)
(8.72968 0 0.962364)
(8.34981 0 1.06627)
(8.50377 0 1.08231)
(8.08702 0 1.19294)
(8.25724 0 1.21263)
(7.80189 0 1.33028)
(7.98934 0 1.35402)
(7.49357 0 1.47856)
(7.69926 0 1.50699)
(7.16117 0 1.63764)
(7.38614 0 1.67172)
(6.80372 0 1.8067)
(7.04901 0 1.84786)
(6.42013 0 1.98391)
(6.68675 0 2.0343)
(6.00916 0 2.16608)
(6.29803 0 2.22877)
(5.56946 0 2.34805)
(5.88124 0 2.42741)
(5.09954 0 2.52216)
(5.43441 0 2.62419)
(4.59784 0 2.67753)
(4.95521 0 2.81024)
(4.06281 0 2.79948)
(4.44096 0 2.97319)
(3.49282 0 2.86912)
(3.88865 0 3.09662)
(2.88595 0 2.86296)
(3.29536 0 3.15993)
(2.23812 0 2.75401)
(2.65702 0 3.13798)
(1.54252 0 2.52115)
(1.97495 0 3.0033)
(0.79369 0 2.13148)
(1.20731 0 2.74075)
(0.556769 0 2.29199)
(9.9825 0 0.110629)
(9.99302 0 0.0783638)
(9.9477 0 0.18233)
(9.96954 0 0.155042)
(9.89522 0 0.253825)
(9.92722 0 0.230893)
(9.82523 0 0.326776)
(9.86696 0 0.307518)
(9.73812 0 0.402566)
(9.78976 0 0.386533)
(9.63401 0 0.482245)
(9.69604 0 0.46916)
(9.51283 0 0.566769)
(9.58577 0 0.55641)
(9.37435 0 0.657103)
(9.45877 0 0.649283)
(9.21825 0 0.754221)
(9.31477 0 0.748798)
(9.0441 0 0.85909)
(9.15342 0 0.855971)
(8.8514 0 0.972663)
(8.97429 0 0.971805)
(8.63958 0 1.09588)
(8.77686 0 1.09729)
(8.40798 0 1.22963)
(8.56053 0 1.23341)
(8.1559 0 1.37473)
(8.32464 0 1.38106)
(7.8826 0 1.53183)
(8.06847 0 1.54105)
(7.58724 0 1.70134)
(7.79121 0 1.71401)
(7.26887 0 1.88325)
(7.49192 0 1.90026)
(6.92642 0 2.07691)
(7.16952 0 2.09964)
(6.55852 0 2.28079)
(6.82265 0 2.31132)
(6.1635 0 2.49198)
(6.44961 0 2.53341)
(5.73919 0 2.70577)
(6.04814 0 2.76257)
(5.28282 0 2.91493)
(5.61532 0 2.99339)
(4.79094 0 3.10911)
(5.14734 0 3.21778)
(4.25943 0 3.27418)
(4.63951 0 3.42422)
(3.68353 0 3.39187)
(4.08621 0 3.59713)
(3.05819 0 3.43974)
(3.48148 0 3.71657)
(2.37786 0 3.39189)
(2.81853 0 3.75821)
(1.63801 0 3.22632)
(2.0993 0 3.69412)
(0.839185 0 2.90103)
(1.27901 0 3.50467)
(0.573404 0 3.11392)
(9.98273 0 0.123585)
(9.99316 0 0.0868202)
(9.94873 0 0.204316)
(9.97026 0 0.172099)
(9.89794 0 0.285261)
(9.92926 0 0.256984)
(9.8305 0 0.367977)
(9.87123 0 0.342999)
(9.74669 0 0.453864)
(9.79714 0 0.431692)
(9.64666 0 0.544091)
(9.70733 0 0.524366)
(9.53035 0 0.639721)
(9.60178 0 0.622151)
(9.39759 0 0.741813)
(9.48035 0 0.726141)
(9.24809 0 0.851426)
(9.34282 0 0.837439)
(9.08148 0 0.969614)
(9.1889 0 0.957143)
(8.89731 0 1.09742)
(9.01819 0 1.08635)
(8.69505 0 1.23588)
(8.83024 0 1.22614)
(8.47407 0 1.38597)
(8.62449 0 1.37757)
(8.23371 0 1.54861)
(8.4003 0 1.54167)
(7.97317 0 1.72457)
(8.15695 0 1.71935)
(7.69157 0 1.9144)
(7.89358 0 1.91139)
(7.38782 0 2.11829)
(7.60915 0 2.1183)
(7.0606 0 2.33589)
(7.30239 0 2.34022)
(6.70821 0 2.56604)
(6.97164 0 2.57667)
(6.3284 0 2.80639)
(6.61473 0 2.82633)
(5.91816 0 3.05295)
(6.22876 0 3.0866)
(5.47355 0 3.29944)
(5.80982 0 3.35307)
(4.98944 0 3.53659)
(5.35277 0 3.61889)
(4.4595 0 3.75137)
(4.85103 0 3.87392)
(3.8764 0 3.92647)
(4.29661 0 4.10391)
(3.23251 0 4.03992)
(3.68076 0 4.28971)
(2.521 0 4.06511)
(2.99372 0 4.40687)
(1.73851 0 3.97632)
(2.23756 0 4.42475)
(0.889547 0 3.71899)
(1.36349 0 4.31653)
(0.598813 0 3.98518)
(9.98321 0 0.136208)
(9.99339 0 0.0950437)
(9.95032 0 0.22558)
(9.97131 0 0.188596)
(9.9015 0 0.315507)
(9.93193 0 0.282059)
(9.83693 0 0.407517)
(9.87642 0 0.376973)
(9.75682 0 0.503028)
(9.80578 0 0.474856)
(9.66133 0 0.603294)
(9.72028 0 0.577068)
(9.55043 0 0.709476)
(9.61993 0 0.684834)
(9.424 0 0.822717)
(9.50462 0 0.799335)
(9.2818 0 0.94416)
(9.37418 0 0.921752)
(9.12351 0 1.07494)
(9.22838 0 1.05326)
(8.94874 0 1.21619)
(9.0669 0 1.19505)
(8.75699 0 1.36904)
(8.88932 0 1.34828)
(8.5477 0 1.53457)
(8.69513 0 1.51411)
(8.32018 0 1.71381)
(8.48375 0 1.69369)
(8.07364 0 1.9077)
(8.25443 0 1.88807)
(7.80708 0 2.11697)
(8.00629 0 2.09821)
(7.51928 0 2.34208)
(7.7382 0 2.3249)
(7.20865 0 2.58306)
(7.44868 0 2.56859)
(6.8731 0 2.83928)
(7.13583 0 2.82934)
(6.5098 0 3.10915)
(6.79702 0 3.10651)
(6.11495 0 3.38968)
(6.42872 0 3.39848)
(5.68342 0 3.67591)
(6.02613 0 3.70216)
(5.20853 0 3.96011)
(5.58282 0 4.01236)
(4.68185 0 4.23092)
(5.0904 0 4.32086)
(4.09341 0 4.4723)
(4.5384 0 4.61533)
(3.43265 0 4.6626)
(3.91486 0 4.87787)
(2.69027 0 4.77329)
(3.20586 0 5.08367)
(1.86197 0 4.77261)
(2.41145 0 5.19816)
(0.954249 0 4.59)
(1.4764 0 5.18459)
(0.639252 0 4.91981)
(9.98386 0 0.148374)
(9.99368 0 0.102948)
(9.95235 0 0.24598)
(9.9726 0 0.204402)
(9.90578 0 0.344412)
(9.93509 0 0.305982)
(9.84436 0 0.445214)
(9.8824 0 0.409286)
(9.76831 0 0.54983)
(9.8155 0 0.515836)
(9.67778 0 0.65958)
(9.73469 0 0.627033)
(9.57278 0 0.775709)
(9.63996 0 0.744181)
(9.45324 0 0.899438)
(9.53126 0 0.86854)
(9.31897 0 1.03199)
(9.40848 0 1.00136)
(9.16972 0 1.17457)
(9.27146 0 1.14389)
(9.00516 0 1.3284)
(9.11993 0 1.2974)
(8.82485 0 1.49471)
(8.95354 0 1.46313)
(8.62827 0 1.67469)
(8.77186 0 1.64236)
(8.41477 0 1.86951)
(8.57434 0 1.83634)
(8.18353 0 2.08028)
(8.36029 0 2.04631)
(7.93353 0 2.30799)
(8.12881 0 2.27344)
(7.66341 0 2.55342)
(7.87872 0 2.5188)
(7.37139 0 2.81707)
(7.60847 0 2.78329)
(7.05503 0 3.09899)
(7.31593 0 3.06756)
(6.71103 0 3.39851)
(6.99818 0 3.37181)
(6.33485 0 3.71392)
(6.6512 0 3.69561)
(5.92035 0 4.04194)
(6.26946 0 4.03748)
(5.45931 0 4.37692)
(5.84542 0 4.39434)
(4.94115 0 4.70978)
(5.36896 0 4.76057)
(4.35284 0 5.02648)
(4.82692 0 5.12663)
(3.67973 0 5.30621)
(4.20334 0 5.47703)
(2.90766 0 5.51831)
(3.4781 0 5.78754)
(2.0278 0 5.62326)
(2.64523 0 6.0197)
(1.04519 0 5.5298)
(1.63788 0 6.12427)
(0.704549 0 5.9435)
(9.98465 0 0.159988)
(9.99402 0 0.110467)
(9.95472 0 0.265393)
(9.97408 0 0.21941)
(9.91064 0 0.371836)
(9.93867 0 0.328627)
(9.85265 0 0.480903)
(9.88904 0 0.439795)
(9.78098 0 0.594068)
(9.82617 0 0.554457)
(9.69578 0 0.712706)
(9.75036 0 0.674052)
(9.59713 0 0.838134)
(9.66163 0 0.799946)
(9.48498 0 0.971642)
(9.55999 0 0.933465)
(9.35922 0 1.11452)
(9.44538 0 1.07592)
(9.21967 0 1.26805)
(9.3177 0 1.22864)
(9.06605 0 1.43353)
(9.17677 0 1.39294)
(8.89802 0 1.61228)
(9.02232 0 1.57016)
(8.71512 0 1.80562)
(8.854 0 1.76168)
(8.51676 0 2.01486)
(8.67135 0 1.96889)
(8.30216 0 2.24131)
(8.47374 0 2.19317)
(8.0703 0 2.48623)
(8.26034 0 2.43595)
(7.8198 0 2.7508)
(8.03001 0 2.69862)
(7.54877 0 3.03606)
(7.7812 0 2.98256)
(7.25459 0 3.34283)
(7.51175 0 3.28907)
(6.93367 0 3.67153)
(7.21864 0 3.61931)
(6.58097 0 4.02198)
(6.89762 0 3.97419)
(6.18956 0 4.39295)
(6.54278 0 4.35413)
(5.74993 0 4.78144)
(6.14583 0 4.75859)
(5.24934 0 5.18159)
(5.69526 0 5.18536)
(4.67122 0 5.58274)
(5.17534 0 5.62908)
(3.99522 0 5.96658)
(4.56542 0 6.07875)
(3.19874 0 6.30188)
(3.83671 0 6.51367)
(2.26204 0 6.541)
(2.9712 0 6.89431)
(1.18077 0 6.56556)
(1.87943 0 7.1583)
(0.812951 0 7.1)
(9.98553 0 0.170971)
(9.9944 0 0.117552)
(9.95738 0 0.283712)
(9.97572 0 0.23353)
(9.916 0 0.397653)
(9.94258 0 0.349886)
(9.86168 0 0.514434)
(9.89622 0 0.468373)
(9.79467 0 0.635561)
(9.83763 0 0.590567)
(9.71514 0 0.762458)
(9.76711 0 0.71794)
(9.62321 0 0.896499)
(9.68472 0 0.851909)
(9.51889 0 1.03903)
(9.59051 0 0.993854)
(9.40215 0 1.19141)
(9.4845 0 1.14514)
(9.27286 0 1.35497)
(9.36666 0 1.30715)
(9.13085 0 1.5311)
(9.2369 0 1.48126)
(8.97586 0 1.7212)
(9.09505 0 1.66889)
(8.80752 0 1.92669)
(8.94085 0 1.87151)
(8.62535 0 2.14905)
(8.77396 0 2.09061)
(8.42865 0 2.38979)
(8.59387 0 2.32778)
(8.21649 0 2.65044)
(8.39989 0 2.58465)
(7.98758 0 2.93261)
(8.191 0 2.86295)
(7.74008 0 3.23791)
(7.96582 0 3.16453)
(7.47141 0 3.56799)
(7.72232 0 3.49137)
(7.17795 0 3.92448)
(7.45767 0 3.84563)
(6.85457 0 4.3089)
(7.1678 0 4.22963)
(6.49398 0 4.72238)
(6.8469 0 4.64583)
(6.08593 0 5.16527)
(6.48663 0 5.09668)
(5.61596 0 5.63608)
(6.07495 0 5.58417)
(5.06399 0 6.12965)
(5.5944 0 6.10881)
(4.40269 0 6.63373)
(5.0201 0 6.6674)
(3.59664 0 7.12134)
(4.31315 0 7.24852)
(2.60478 0 7.54099)
(3.4363 0 7.82043)
(1.39459 0 7.74105)
(2.25699 0 8.31561)
(1.0029 0 8.46592)
(9.9865 0 0.181261)
(9.9948 0 0.124162)
(9.96026 0 0.300847)
(9.97747 0 0.246692)
(9.92176 0 0.421754)
(9.94675 0 0.369665)
(9.87132 0 0.545676)
(9.90386 0 0.49491)
(9.80921 0 0.674153)
(9.84975 0 0.624034)
(9.73564 0 0.808648)
(9.78476 0 0.758541)
(9.65076 0 0.95058)
(9.70898 0 0.899885)
(9.55466 0 1.10135)
(9.62253 0 1.04949)
(9.44736 0 1.26235)
(9.52549 0 1.20876)
(9.32883 0 1.43498)
(9.41791 0 1.37912)
(9.19899 0 1.62069)
(9.29979 0 1.56201)
(9.05769 0 1.82095)
(9.17108 0 1.7589)
(8.90468 0 2.03729)
(9.03164 0 1.97133)
(8.73961 0 2.27132)
(8.88128 0 2.20091)
(8.56196 0 2.52474)
(8.71965 0 2.44935)
(8.37096 0 2.79937)
(8.54626 0 2.71852)
(8.1655 0 3.09718)
(8.36034 0 3.01043)
(7.94401 0 3.42038)
(8.16078 0 3.32737)
(7.7042 0 3.77143)
(7.94595 0 3.67195)
(7.44278 0 4.15315)
(7.71348 0 4.04724)
(7.15501 0 4.56881)
(7.45994 0 4.45692)
(6.83403 0 5.02215)
(7.18031 0 4.9055)
(6.46976 0 5.51729)
(6.8672 0 5.39849)
(6.04735 0 6.05838)
(6.50958 0 5.94262)
(5.54455 0 6.64846)
(6.09047 0 6.54579)
(4.92772 0 7.28685)
(5.58375 0 7.21646)
(4.14576 0 7.96151)
(4.94334 0 7.9614)
(3.12253 0 8.63402)
(4.11029 0 8.77584)
(1.7568 0 9.12874)
(2.87941 0 9.62166)
(1.36533 0 10.1866)
(9.98753 0 0.190809)
(9.99523 0 0.130267)
(9.96332 0 0.316723)
(9.97932 0 0.258838)
(9.92784 0 0.444045)
(9.95114 0 0.387889)
(9.88146 0 0.574518)
(9.91186 0 0.519313)
(9.82446 0 0.709714)
(9.86241 0 0.654749)
(9.75709 0 0.851126)
(9.80314 0 0.795724)
(9.67953 0 1.00021)
(9.73421 0 0.943721)
(9.59195 0 1.15839)
(9.65577 0 1.10019)
(9.49444 0 1.32712)
(9.56798 0 1.26658)
(9.38706 0 1.50782)
(9.47099 0 1.44433)
(9.26985 0 1.70199)
(9.36488 0 1.63491)
(9.14277 0 1.91117)
(9.24974 0 1.83985)
(9.00573 0 2.13695)
(9.12557 0 2.06073)
(8.85855 0 2.38107)
(8.99234 0 2.29925)
(8.7009 0 2.64539)
(8.84993 0 2.55724)
(8.53229 0 2.93195)
(8.69808 0 2.8367)
(8.35194 0 3.24307)
(8.53637 0 3.1399)
(8.15867 0 3.58144)
(8.36411 0 3.46947)
(7.95076 0 3.95023)
(8.18024 0 3.82851)
(7.72566 0 4.35335)
(7.98317 0 4.22084)
(7.47963 0 4.79564)
(7.77055 0 4.65126)
(7.20711 0 5.2833)
(7.53889 0 5.12596)
(6.89973 0 5.82432)
(7.28296 0 5.65317)
(6.54453 0 6.42907)
(6.9948 0 6.24404)
(6.12078 0 7.11099)
(6.66168 0 6.91408)
(5.59374 0 7.88726)
(6.26307 0 7.6856)
(4.90188 0 8.77781)
(5.75854 0 8.59215)
(3.92809 0 9.802)
(5.08877 0 9.68509)
(2.43431 0 10.8581)
(3.98131 0 11.0502)
(2.14758 0 12.5709)
(9.98861 0 0.199574)
(9.99567 0 0.135843)
(9.96651 0 0.33128)
(9.98123 0 0.269922)
(9.93419 0 0.464445)
(9.9557 0 0.404496)
(9.892 0 0.600855)
(9.92015 0 0.541508)
(9.84027 0 0.742107)
(9.8755 0 0.682622)
(9.77928 0 0.889716)
(9.82213 0 0.829385)
(9.70926 0 1.04516)
(9.76023 0 0.983296)
(9.63044 0 1.2099)
(9.69004 0 1.14583)
(9.54299 0 1.3854)
(9.61177 0 1.31843)
(9.44707 0 1.57311)
(9.52567 0 1.50257)
(9.34283 0 1.77455)
(9.43194 0 1.69974)
(9.23037 0 1.99131)
(9.33078 0 1.91148)
(9.10978 0 2.22504)
(9.22236 0 2.13941)
(8.98106 0 2.47753)
(9.10685 0 2.38526)
(8.84417 0 2.75077)
(8.98435 0 2.65092)
(8.6989 0 3.04697)
(8.85492 0 2.93851)
(8.54492 0 3.36869)
(8.71853 0 3.25043)
(8.38162 0 3.71895)
(8.57502 0 3.58953)
(8.20805 0 4.10148)
(8.42407 0 3.9592)
(8.02276 0 4.52092)
(8.26509 0 4.36374)
(7.82357 0 4.98331)
(8.09718 0 4.80859)
(7.60719 0 5.49672)
(7.919 0 5.30101)
(7.36862 0 6.07219)
(7.72858 0 5.85084)
(7.09994 0 6.72539)
(7.52306 0 6.47203)
(6.78803 0 7.47953)
(7.29823 0 7.18516)
(6.40937 0 8.37141)
(7.04866 0 8.02266)
(5.91696 0 9.46558)
(6.76424 0 9.04106)
(5.1982 0 10.9086)
(6.46415 0 10.3562)
(3.88704 0 13.1814)
(6.19393 0 12.304)
(5.26606 0 16.378)
(0.231901 0 -0.145451)
(0.133221 0 -0.227133)
(0.448868 0 -0.123368)
(0.32021 0 -0.207487)
(0.631797 0 -0.0984009)
(0.509419 0 -0.170804)
(0.783021 0 -0.0774862)
(0.674395 0 -0.137866)
(0.908231 0 -0.06102)
(0.811073 0 -0.111454)
(1.01267 0 -0.0482497)
(0.924677 0 -0.0907655)
(1.10076 0 -0.0384364)
(1.02095 0 -0.0747556)
(1.17621 0 -0.0309474)
(1.10417 0 -0.0625172)
(1.24197 0 -0.0252144)
(1.17746 0 -0.0531928)
(1.30018 0 -0.0207338)
(1.2431 0 -0.0459781)
(1.35226 0 -0.01709)
(1.30273 0 -0.0401681)
(1.39902 0 -0.0139829)
(1.35736 0 -0.0352082)
(1.44085 0 -0.0112403)
(1.40751 0 -0.0307554)
(1.47803 0 -0.00876601)
(1.45341 0 -0.0266869)
(1.51076 0 -0.00639677)
(1.49526 0 -0.0229384)
(1.53878 0 -0.00377342)
(1.53333 0 -0.019176)
(1.5607 0 -0.000462105)
(1.56746 0 -0.0146488)
(1.57414 0 0.0035793)
(1.59641 0 -0.00876889)
(1.57769 0 0.00745305)
(1.61802 0 -0.00225762)
(1.57184 0 0.00990548)
(1.63079 0 0.0036356)
(1.56051 0 0.0105004)
(1.636 0 0.00687993)
(1.54684 0 0.00959881)
(1.63728 0 0.00810725)
(1.53234 0 0.0077307)
(1.63709 0 0.00839192)
(1.51946 0 0.00516344)
(1.63679 0 0.00728096)
(1.51148 0 0.00182316)
(1.63792 0 0.00440259)
(1.51138 0 -0.00185698)
(1.64266 0 5.50767e-05)
(1.52249 0 -0.00526212)
(1.65281 0 -0.00584768)
(1.54448 0 -0.007925)
(1.66905 0 -0.0112939)
(1.57495 0 -0.00871639)
(1.691 0 -0.0152849)
(1.72377 0 -0.0155313)
(0.201779 0 -0.324405)
(0.102405 0 -0.424763)
(0.397061 0 -0.284846)
(0.269896 0 -0.394236)
(0.565105 0 -0.233571)
(0.428648 0 -0.32771)
(0.707056 0 -0.189502)
(0.568408 0 -0.267278)
(0.827857 0 -0.154602)
(0.685616 0 -0.218983)
(0.931962 0 -0.127512)
(0.784859 0 -0.181245)
(1.02303 0 -0.106717)
(0.87054 0 -0.152031)
(1.10402 0 -0.0908725)
(0.945918 0 -0.129621)
(1.17727 0 -0.0787473)
(1.01339 0 -0.112454)
(1.24453 0 -0.0692359)
(1.07477 0 -0.0991026)
(1.30694 0 -0.0614095)
(1.13137 0 -0.0883042)
(1.36515 0 -0.0545949)
(1.18401 0 -0.0790381)
(1.41943 0 -0.048441)
(1.23305 0 -0.0706604)
(1.47001 0 -0.0428363)
(1.27853 0 -0.0629975)
(1.51736 0 -0.0375664)
(1.32053 0 -0.0561274)
(1.562 0 -0.0319152)
(1.35952 0 -0.0497229)
(1.60365 0 -0.0248675)
(1.39626 0 -0.0424788)
(1.64066 0 -0.0162205)
(1.43077 0 -0.0329099)
(1.67048 0 -0.00744955)
(1.46126 0 -0.0212539)
(1.69307 0 -0.000419249)
(1.48481 0 -0.0104127)
(1.71106 0 0.0047832)
(1.50144 0 -0.0040489)
(1.72672 0 0.0086153)
(1.51526 0 -0.00117363)
(1.74069 0 0.0101863)
(1.52744 0 0.000301629)
(1.75428 0 0.00850914)
(1.53576 0 -0.000402387)
(1.76841 0 0.00378324)
(1.5412 0 -0.00339194)
(1.78374 0 -0.00276776)
(1.54521 0 -0.00820607)
(1.79916 0 -0.0102467)
(1.54737 0 -0.0139626)
(1.81575 0 -0.0178717)
(1.5474 0 -0.0198135)
(1.83522 0 -0.0227391)
(1.5465 0 -0.0250519)
(1.54936 0 -0.024994)
(0.160915 0 -0.503483)
(0.0731329 0 -0.582369)
(0.313082 0 -0.446131)
(0.205686 0 -0.539755)
(0.442091 0 -0.369657)
(0.317468 0 -0.448167)
(0.550723 0 -0.303689)
(0.416984 0 -0.366314)
(0.643144 0 -0.251244)
(0.498856 0 -0.30125)
(0.722735 0 -0.210279)
(0.567846 0 -0.250418)
(0.792284 0 -0.178569)
(0.626829 0 -0.211049)
(0.854017 0 -0.154144)
(0.677976 0 -0.180769)
(0.909682 0 -0.135225)
(0.722978 0 -0.157486)
(0.960608 0 -0.120208)
(0.76316 0 -0.139327)
(1.00768 0 -0.107712)
(0.79953 0 -0.124608)
(1.05132 0 -0.096703)
(0.832766 0 -0.111898)
(1.09155 0 -0.086669)
(0.86319 0 -0.100238)
(1.12833 0 -0.0776125)
(0.890579 0 -0.0894028)
(1.1621 0 -0.0695381)
(0.914428 0 -0.0797964)
(1.19392 0 -0.0614919)
(0.934726 0 -0.0714928)
(1.2243 0 -0.0513343)
(0.952886 0 -0.0627787)
(1.25199 0 -0.0377702)
(0.97109 0 -0.0509751)
(1.27426 0 -0.0237079)
(0.98956 0 -0.0354413)
(1.29053 0 -0.0145174)
(1.0016 0 -0.0205312)
(1.30409 0 -0.0112826)
(0.992306 0 -0.0122866)
(1.31497 0 -0.0108244)
(0.972953 0 -0.00762293)
(1.32118 0 -0.0115264)
(0.953685 0 -0.00328971)
(1.32133 0 -0.0137793)
(0.933105 0 -0.000490518)
(1.31714 0 -0.0169413)
(0.910656 0 -0.00107671)
(1.30894 0 -0.0198204)
(0.889203 0 -0.00378699)
(1.29534 0 -0.0222394)
(0.874936 0 -0.00680857)
(1.27776 0 -0.0243732)
(0.861959 0 -0.0107846)
(1.25924 0 -0.0250767)
(0.851335 0 -0.0157601)
(0.846688 0 -0.0233147)
(0.11737 0 -0.631697)
(0.0450065 0 -0.697326)
(0.219121 0 -0.555248)
(0.134507 0 -0.63706)
(0.300784 0 -0.458192)
(0.191276 0 -0.524418)
(0.368241 0 -0.376246)
(0.245109 0 -0.427813)
(0.424504 0 -0.311449)
(0.284788 0 -0.351332)
(0.471719 0 -0.260837)
(0.316612 0 -0.291454)
(0.511714 0 -0.221616)
(0.34157 0 -0.244988)
(0.545923 0 -0.191343)
(0.360888 0 -0.209112)
(0.575496 0 -0.167863)
(0.375602 0 -0.181411)
(0.601366 0 -0.149236)
(0.386562 0 -0.159761)
(0.624225 0 -0.133729)
(0.394518 0 -0.142237)
(0.644439 0 -0.119949)
(0.400173 0 -0.127119)
(0.661883 0 -0.107122)
(0.404203 0 -0.113063)
(0.675984 0 -0.0953152)
(0.406241 0 -0.0995253)
(0.686457 0 -0.0851032)
(0.405195 0 -0.0871374)
(0.69452 0 -0.0764122)
(0.399218 0 -0.07701)
(0.702272 0 -0.0675846)
(0.386686 0 -0.0679585)
(0.71061 0 -0.0557901)
(0.372387 0 -0.0564152)
(0.713842 0 -0.0390682)
(0.355977 0 -0.0374997)
(0.69836 0 -0.0203579)
(0.33997 0 -0.0109027)
(0.659834 0 -0.00600641)
(0.315044 0 0.011109)
(0.610876 0 0.0031242)
(0.280641 0 0.0214044)
(0.56268 0 0.00972431)
(0.248304 0 0.0246118)
(0.519349 0 0.013309)
(0.218648 0 0.0240017)
(0.482675 0 0.0129597)
(0.190289 0 0.0191631)
(0.456557 0 0.0091009)
(0.165978 0 0.0102862)
(0.440423 0 0.00304126)
(0.156029 0 0.00168022)
(0.434439 0 -0.00460778)
(0.152226 0 -0.00771071)
(0.439032 0 -0.0156336)
(0.1528 0 -0.0180636)
(0.158292 0 -0.0300334)
(0.0679252 0 -0.712328)
(0.0157915 0 -0.763854)
(0.113613 0 -0.616043)
(0.0551585 0 -0.680752)
(0.143401 0 -0.503348)
(0.0521062 0 -0.552231)
(0.164471 0 -0.411109)
(0.056358 0 -0.447022)
(0.178584 0 -0.338292)
(0.0488462 0 -0.363894)
(0.186894 0 -0.281325)
(0.0379866 0 -0.298676)
(0.190381 0 -0.237072)
(0.0230139 0 -0.247947)
(0.189854 0 -0.202825)
(0.00471619 0 -0.208676)
(0.185999 0 -0.176256)
(-0.016313 0 -0.178292)
(0.179418 0 -0.155296)
(-0.0395754 0 -0.154563)
(0.170686 0 -0.138043)
(-0.0645084 0 -0.135503)
(0.160327 0 -0.122775)
(-0.0903464 0 -0.119319)
(0.148594 0 -0.108208)
(-0.116093 0 -0.104437)
(0.135009 0 -0.0939217)
(-0.141416 0 -0.0897736)
(0.117692 0 -0.0802435)
(-0.166575 0 -0.0749999)
(0.093154 0 -0.0669047)
(-0.193122 0 -0.0602176)
(0.0600633 0 -0.0516231)
(-0.223628 0 -0.045848)
(0.0200439 0 -0.030663)
(-0.254717 0 -0.0303067)
(-0.0205064 0 -0.00443428)
(-0.286911 0 -0.0116697)
(-0.0497793 0 0.0190538)
(-0.310612 0 0.00730339)
(-0.0679455 0 0.0323901)
(-0.322684 0 0.0221406)
(-0.0841338 0 0.0361902)
(-0.334164 0 0.0310026)
(-0.100439 0 0.0344708)
(-0.343477 0 0.034051)
(-0.115017 0 0.0283345)
(-0.351835 0 0.0322417)
(-0.126033 0 0.0175104)
(-0.360076 0 0.0252427)
(-0.133024 0 0.00469705)
(-0.367792 0 0.0140534)
(-0.133122 0 -0.00693887)
(-0.370283 0 0.00173163)
(-0.130207 0 -0.0178258)
(-0.369358 0 -0.00920785)
(-0.124806 0 -0.0294979)
(-0.369134 0 -0.0207725)
(-0.370863 0 -0.032085)
(0.0101528 0 -0.738132)
(-0.0169154 0 -0.773798)
(-0.00297923 0 -0.621803)
(-0.0337357 0 -0.668193)
(-0.0278665 0 -0.497864)
(-0.0961877 0 -0.528993)
(-0.0563916 0 -0.400075)
(-0.145662 0 -0.421016)
(-0.0891477 0 -0.322915)
(-0.202062 0 -0.334737)
(-0.124748 0 -0.262854)
(-0.257797 0 -0.267736)
(-0.162491 0 -0.216348)
(-0.313383 0 -0.215918)
(-0.201784 0 -0.180377)
(-0.367944 0 -0.176119)
(-0.242216 0 -0.152351)
(-0.420836 0 -0.145583)
(-0.28343 0 -0.130104)
(-0.471625 0 -0.122009)
(-0.324934 0 -0.111809)
(-0.519999 0 -0.103495)
(-0.365995 0 -0.0959189)
(-0.565608 0 -0.0883998)
(-0.40563 0 -0.0812262)
(-0.608002 0 -0.0752964)
(-0.442834 0 -0.0670155)
(-0.64671 0 -0.0630674)
(-0.476979 0 -0.0531242)
(-0.681446 0 -0.0510675)
(-0.507841 0 -0.0396664)
(-0.712331 0 -0.0390977)
(-0.535987 0 -0.0264398)
(-0.739679 0 -0.0270415)
(-0.560571 0 -0.0128831)
(-0.763024 0 -0.0142684)
(-0.578147 0 0.00119974)
(-0.781327 0 -0.00047393)
(-0.588138 0 0.0154118)
(-0.790894 0 0.0135172)
(-0.593537 0 0.0274623)
(-0.795773 0 0.0254195)
(-0.596849 0 0.0340941)
(-0.798018 0 0.0329664)
(-0.599243 0 0.0345759)
(-0.79836 0 0.0354366)
(-0.600692 0 0.0297911)
(-0.797965 0 0.0330606)
(-0.60194 0 0.0208797)
(-0.79824 0 0.0259314)
(-0.604032 0 0.00981928)
(-0.799975 0 0.0151806)
(-0.606776 0 -0.0020955)
(-0.80238 0 0.00317551)
(-0.607854 0 -0.0145393)
(-0.804197 0 -0.00865418)
(-0.607983 0 -0.0264391)
(-0.808518 0 -0.0207075)
(-0.813301 0 -0.0320123)
(-0.0503458 0 -0.701314)
(-0.0552613 0 -0.724488)
(-0.12599 0 -0.570011)
(-0.130071 0 -0.595854)
(-0.205881 0 -0.443894)
(-0.249403 0 -0.454398)
(-0.287588 0 -0.345975)
(-0.352921 0 -0.346527)
(-0.367699 0 -0.269901)
(-0.454604 0 -0.263427)
(-0.444941 0 -0.211622)
(-0.54917 0 -0.200605)
(-0.518285 0 -0.16738)
(-0.636153 0 -0.153679)
(-0.586897 0 -0.134139)
(-0.715161 0 -0.119272)
(-0.650192 0 -0.109269)
(-0.786218 0 -0.0943792)
(-0.707923 0 -0.0905388)
(-0.849611 0 -0.0764095)
(-0.760118 0 -0.076073)
(-0.905866 0 -0.0632418)
(-0.806926 0 -0.0642791)
(-0.95555 0 -0.0531535)
(-0.84848 0 -0.0538506)
(-0.99915 0 -0.0447448)
(-0.884865 0 -0.0438554)
(-1.03706 0 -0.0369487)
(-0.916204 0 -0.0337853)
(-1.06969 0 -0.0291024)
(-0.942767 0 -0.0234123)
(-1.09753 0 -0.0209197)
(-0.964975 0 -0.0125043)
(-1.12101 0 -0.0122025)
(-0.98302 0 -0.000905314)
(-1.13996 0 -0.00249576)
(-0.995177 0 0.0108479)
(-1.15361 0 0.00726965)
(-1.00126 0 0.0215615)
(-1.16109 0 0.0172996)
(-1.00284 0 0.0297326)
(-1.16428 0 0.026382)
(-1.00185 0 0.033939)
(-1.16411 0 0.0323768)
(-0.999864 0 0.0335598)
(-1.16206 0 0.0342876)
(-0.997788 0 0.0286515)
(-1.15955 0 0.0318869)
(-0.996664 0 0.0199098)
(-1.15796 0 0.0253113)
(-0.997455 0 0.00895114)
(-1.15824 0 0.0156067)
(-0.999925 0 -0.00264511)
(-1.16045 0 0.00447548)
(-1.00322 0 -0.0145799)
(-1.16412 0 -0.00695978)
(-1.00668 0 -0.0260161)
(-1.1703 0 -0.0189765)
(-1.17525 0 -0.0295)
(-0.115807 0 -0.605281)
(-0.099832 0 -0.611062)
(-0.251175 0 -0.465518)
(-0.231878 0 -0.466401)
(-0.386471 0 -0.342716)
(-0.406049 0 -0.328069)
(-0.515144 0 -0.25138)
(-0.557627 0 -0.229221)
(-0.633106 0 -0.183964)
(-0.696776 0 -0.158424)
(-0.738866 0 -0.134969)
(-0.819461 0 -0.108688)
(-0.832351 0 -0.0998144)
(-0.925909 0 -0.0743493)
(-0.91418 0 -0.075076)
(-1.01603 0 -0.051473)
(-0.985404 0 -0.0580329)
(-1.09254 0 -0.0367608)
(-1.04723 0 -0.0463448)
(-1.15766 0 -0.0275715)
(-1.10086 0 -0.0381263)
(-1.21338 0 -0.0218869)
(-1.14728 0 -0.0318958)
(-1.26128 0 -0.0181944)
(-1.1873 0 -0.0265018)
(-1.3025 0 -0.015323)
(-1.22154 0 -0.0211164)
(-1.33788 0 -0.0123699)
(-1.25059 0 -0.0152608)
(-1.36809 0 -0.00874484)
(-1.275 0 -0.00874951)
(-1.39369 0 -0.00421348)
(-1.29498 0 -0.001515)
(-1.41505 0 0.00114996)
(-1.30986 0 0.00647387)
(-1.43207 0 0.00720817)
(-1.32012 0 0.0149682)
(-1.44424 0 0.0138049)
(-1.32584 0 0.0231217)
(-1.45207 0 0.0208609)
(-1.3273 0 0.0294981)
(-1.45564 0 0.0272697)
(-1.326 0 0.0327765)
(-1.45591 0 0.0316034)
(-1.32354 0 0.0323033)
(-1.45431 0 0.0328646)
(-1.32118 0 0.0279543)
(-1.4523 0 0.0305509)
(-1.32003 0 0.0202413)
(-1.45116 0 0.0246795)
(-1.32093 0 0.0103724)
(-1.45185 0 0.0160882)
(-1.32399 0 -0.000531144)
(-1.4549 0 0.0060873)
(-1.32863 0 -0.012045)
(-1.46027 0 -0.00457793)
(-1.33486 0 -0.0227798)
(-1.46787 0 -0.0158495)
(-1.4729 0 -0.0248516)
(-0.185969 0 -0.450974)
(-0.152966 0 -0.428916)
(-0.380841 0 -0.312621)
(-0.348004 0 -0.280043)
(-0.566837 0 -0.203928)
(-0.578053 0 -0.154401)
(-0.734414 0 -0.128588)
(-0.76521 0 -0.0764463)
(-0.88048 0 -0.0768537)