/*--------------------------------*- C++ -*----------------------------------*\
  =========                 |
  \\      /  F ield         | OpenFOAM: The Open Source CFD Toolbox
   \\    /   O peration     | Website:  https://openfoam.org
    \\  /    A nd           | Version:  dev
     \\/     M anipulation  |
\*---------------------------------------------------------------------------*/
FoamFile
{
    version     2.0;
    format      ascii;
    class       surfaceVectorField;
    location    "6.6";
    object      Uf;
}
// * * * * * * * * * * * * * * * * * * * * * * * * * * * * * * * * * * * * * //

dimensions      [0 1 -1 0 0 0 0];

internalField   nonuniform List<vector> 
5457
(
(9.92088 0 0.0251095)
(9.97125 0 0.0387456)
(9.82402 0 0.0328266)
(9.92859 0 0.0485848)
(9.70961 0 0.0393118)
(9.85548 0 0.0587677)
(9.57544 0 0.0460113)
(9.7568 0 0.0705928)
(9.42138 0 0.0529487)
(9.63754 0 0.0830129)
(9.24755 0 0.060166)
(9.49862 0 0.095936)
(9.05363 0 0.0678107)
(9.33931 0 0.109612)
(8.83893 0 0.0760344)
(9.15875 0 0.124289)
(8.60253 0 0.0849702)
(8.9561 0 0.140167)
(8.34327 0 0.0947451)
(8.73039 0 0.157434)
(8.05985 0 0.105488)
(8.48041 0 0.176271)
(7.75081 0 0.117328)
(8.20478 0 0.196858)
(7.41457 0 0.130397)
(7.90195 0 0.219363)
(7.0495 0 0.144812)
(7.57031 0 0.243926)
(6.65403 0 0.160674)
(7.20819 0 0.270636)
(6.22671 0 0.178047)
(6.814 0 0.299505)
(5.76642 0 0.196931)
(6.38633 0 0.330419)
(5.27257 0 0.217236)
(5.92416 0 0.363089)
(4.74537 0 0.238739)
(5.4271 0 0.396982)
(4.18619 0 0.261036)
(4.89565 0 0.431243)
(3.59796 0 0.283491)
(4.33163 0 0.464625)
(2.98554 0 0.305205)
(3.73859 0 0.495429)
(2.3561 0 0.325071)
(3.12226 0 0.521516)
(1.71909 0 0.342549)
(2.49106 0 0.54056)
(1.08433 0 0.361883)
(1.85584 0 0.551674)
(0.451821 0 0.34868)
(1.24547 0 0.563021)
(-0.145849 0 0.102458)
(0.608899 0 0.544875)
(-0.423624 0 -0.207097)
(0.0946582 0 0.259365)
(-0.402158 0 -0.361258)
(-0.13368 0 -0.0205286)
(-0.119681 0 -0.393889)
(9.99641 0 0.051672)
(9.99705 0 0.0405042)
(9.95879 0 0.0708609)
(9.97851 0 0.0674538)
(9.89824 0 0.0879861)
(9.93377 0 0.089869)
(9.81659 0 0.105984)
(9.86453 0 0.113554)
(9.71359 0 0.124921)
(9.77438 0 0.138514)
(9.58909 0 0.144853)
(9.66436 0 0.164645)
(9.44275 0 0.166089)
(9.53398 0 0.192331)
(9.27391 0 0.188967)
(9.3825 0 0.22203)
(9.08167 0 0.213783)
(9.2092 0 0.254148)
(8.86491 0 0.240816)
(9.01317 0 0.289065)
(8.62231 0 0.270338)
(8.79332 0 0.327154)
(8.35239 0 0.302609)
(8.54836 0 0.368789)
(8.05356 0 0.337861)
(8.27684 0 0.41432)
(7.72412 0 0.376267)
(7.97717 0 0.464052)
(7.36237 0 0.417908)
(7.64772 0 0.518196)
(6.96672 0 0.462714)
(7.28682 0 0.576815)
(6.53583 0 0.510394)
(6.89295 0 0.639735)
(6.06882 0 0.560341)
(6.46481 0 0.706438)
(5.56558 0 0.611529)
(6.00159 0 0.77592)
(5.02709 0 0.662392)
(5.50325 0 0.846535)
(4.45586 0 0.710715)
(4.97087 0 0.915816)
(3.85648 0 0.753545)
(4.40717 0 0.980315)
(3.23618 0 0.7872)
(3.81702 0 1.03546)
(2.6058 0 0.807503)
(3.20844 0 1.07549)
(1.98278 0 0.810466)
(2.59337 0 1.09315)
(1.40527 0 0.776894)
(1.99619 0 1.07708)
(0.929737 0 0.646395)
(1.41948 0 0.978403)
(0.439842 0 0.38433)
(0.937561 0 0.71679)
(0.0591653 0 -0.118621)
(0.443779 0 0.343515)
(0.174918 0 -0.33594)
(9.98903 0 0.0594302)
(9.99481 0 0.0458769)
(9.95434 0 0.0894755)
(9.97368 0 0.0848532)
(9.8973 0 0.11803)
(9.92984 0 0.119172)
(9.82047 0 0.147897)
(9.86357 0 0.153974)
(9.72416 0 0.17942)
(9.77736 0 0.190406)
(9.60822 0 0.212774)
(9.67227 0 0.228635)
(9.47235 0 0.248391)
(9.5481 0 0.269128)
(9.31608 0 0.286773)
(9.40432 0 0.312495)
(9.13869 0 0.328397)
(9.24035 0 0.359325)
(8.93925 0 0.373722)
(9.0555 0 0.410174)
(8.71665 0 0.423207)
(8.8489 0 0.465599)
(8.46961 0 0.477298)
(8.61952 0 0.526154)
(8.19668 0 0.536402)
(8.36616 0 0.592375)
(7.89633 0 0.600846)
(8.08752 0 0.664742)
(7.56692 0 0.670815)
(7.7822 0 0.743623)
(7.20683 0 0.746262)
(7.44873 0 0.829196)
(6.81456 0 0.826789)
(7.08568 0 0.921326)
(6.38887 0 0.91149)
(6.6917 0 1.01941)
(5.92902 0 0.998766)
(6.26571 0 1.12218)
(5.43513 0 1.0861)
(5.80711 0 1.22743)
(4.90853 0 1.16983)
(5.31606 0 1.33176)
(4.35242 0 1.2449)
(4.79396 0 1.4302)
(3.77258 0 1.30455)
(4.24396 0 1.51588)
(3.17871 0 1.33984)
(3.6718 0 1.57943)
(2.58662 0 1.33812)
(3.08631 0 1.60775)
(2.01985 0 1.27297)
(2.50291 0 1.58158)
(1.48694 0 1.09541)
(1.92873 0 1.46424)
(0.958291 0 0.769162)
(1.38524 0 1.2104)
(0.479874 0 0.20244)
(0.829537 0 0.801027)
(0.433728 0 0.134067)
(9.98515 0 0.0716129)
(9.99367 0 0.0531471)
(9.95039 0 0.113629)
(9.97088 0 0.102289)
(9.89437 0 0.154131)
(9.92691 0 0.147952)
(9.81882 0 0.195571)
(9.86185 0 0.193719)
(9.72442 0 0.238809)
(9.77746 0 0.241275)
(9.61113 0 0.284322)
(9.67467 0 0.291161)
(9.47875 0 0.332719)
(9.55343 0 0.343953)
(9.32695 0 0.384673)
(9.41336 0 0.40037)
(9.15524 0 0.440846)
(9.25401 0 0.461138)
(8.96292 0 0.501884)
(9.07484 0 0.526961)
(8.74917 0 0.568429)
(8.87521 0 0.598537)
(8.51305 0 0.641114)
(8.6543 0 0.676564)
(8.25347 0 0.720534)
(8.41123 0 0.761724)
(7.96926 0 0.807195)
(8.145 0 0.854641)
(7.65918 0 0.901443)
(7.85455 0 0.955825)
(7.32192 0 1.00335)
(7.53875 0 1.06558)
(6.9562 0 1.11258)
(7.19646 0 1.18386)
(6.56084 0 1.22814)
(6.82652 0 1.31009)
(6.13488 0 1.34818)
(6.42788 0 1.44293)
(5.67783 0 1.46961)
(5.99965 0 1.57991)
(5.18998 0 1.58778)
(5.54133 0 1.71709)
(4.67285 0 1.69603)
(5.05304 0 1.84855)
(4.12978 0 1.78515)
(4.53595 0 1.96584)
(3.56664 0 1.84253)
(3.99272 0 2.05731)
(2.99204 0 1.85072)
(3.42758 0 2.10714)
(2.41583 0 1.78248)
(2.84762 0 2.09448)
(1.84053 0 1.60045)
(2.25622 0 1.98872)
(1.25938 0 1.27841)
(1.66031 0 1.75303)
(0.666772 0 0.789523)
(1.02396 0 1.36774)
(0.523034 0 0.787129)
(9.98337 0 0.0844061)
(9.99316 0 0.0612904)
(9.94821 0 0.136835)
(9.96959 0 0.119925)
(9.89315 0 0.188029)
(9.92575 0 0.176237)
(9.81907 0 0.240166)
(9.862 0 0.232695)
(9.72663 0 0.294464)
(9.77964 0 0.291083)
(9.6159 0 0.351656)
(9.6794 0 0.35227)
(9.48672 0 0.412467)
(9.56128 0 0.416973)
(9.33879 0 0.477673)
(9.42497 0 0.486005)
(9.17171 0 0.548048)
(9.2701 0 0.560201)
(8.98493 0 0.624353)
(9.09621 0 0.640384)
(8.77779 0 0.707343)
(8.90275 0 0.727366)
(8.54954 0 0.797765)
(8.68908 0 0.821957)
(8.29936 0 0.896328)
(8.45445 0 0.924943)
(8.02635 0 1.00366)
(8.19808 0 1.03706)
(7.72958 0 1.12021)
(7.91912 0 1.15892)
(7.40805 0 1.24617)
(7.61669 0 1.29093)
(7.06076 0 1.38128)
(7.28985 0 1.43316)
(6.68668 0 1.5246)
(6.93762 0 1.58512)
(6.28484 0 1.6742)
(6.55898 0 1.74552)
(5.85437 0 1.8268)
(6.15286 0 1.9119)
(5.39469 0 1.97726)
(5.7182 0 2.08018)
(4.90573 0 2.11806)
(5.25406 0 2.2441)
(4.38823 0 2.23861)
(4.75971 0 2.39461)
(3.84392 0 2.32454)
(4.23493 0 2.5192)
(3.27542 0 2.35695)
(3.67987 0 2.60123)
(2.68538 0 2.31058)
(3.0957 0 2.61969)
(2.07268 0 2.15499)
(2.48167 0 2.5473)
(1.42937 0 1.86738)
(1.8399 0 2.3537)
(0.742607 0 1.41954)
(1.13136 0 2.0245)
(0.543302 0 1.51447)
(9.98264 0 0.097496)
(9.99299 0 0.0697915)
(9.94744 0 0.159772)
(9.96925 0 0.137581)
(9.89354 0 0.221344)
(9.92597 0 0.203923)
(9.82134 0 0.284088)
(9.86381 0 0.270684)
(9.73134 0 0.349343)
(9.78386 0 0.339578)
(9.62367 0 0.418014)
(9.68665 0 0.411692)
(9.4982 0 0.490933)
(9.57219 0 0.487897)
(9.35466 0 0.56897)
(9.44022 0 0.569099)
(9.1927 0 0.653001)
(9.29044 0 0.656229)
(9.01184 0 0.743895)
(9.12243 0 0.75021)
(8.81152 0 0.842515)
(8.93572 0 0.851955)
(8.59109 0 0.94971)
(8.72974 0 0.962366)
(8.34986 0 1.06629)
(8.50382 0 1.08232)
(8.08707 0 1.19297)
(8.25729 0 1.21265)
(7.80192 0 1.33031)
(7.98938 0 1.35405)
(7.4936 0 1.47861)
(7.6993 0 1.50704)
(7.16118 0 1.6377)
(7.38617 0 1.67178)
(6.80371 0 1.80676)
(7.04902 0 1.84793)
(6.4201 0 1.98399)
(6.68674 0 2.03438)
(6.00911 0 2.16615)
(6.298 0 2.22886)
(5.56939 0 2.34812)
(5.88117 0 2.4275)
(5.09944 0 2.52222)
(5.43432 0 2.62428)
(4.59772 0 2.67758)
(4.95509 0 2.81031)
(4.06267 0 2.79949)
(4.44082 0 2.97323)
(3.49267 0 2.8691)
(3.88849 0 3.09662)
(2.8858 0 2.86291)
(3.2952 0 3.15989)
(2.238 0 2.75391)
(2.65687 0 3.13789)
(1.54243 0 2.521)
(1.97482 0 3.00316)
(0.79364 0 2.13131)
(1.20723 0 2.74057)
(0.55673 0 2.29179)
(9.9825 0 0.110624)
(9.99302 0 0.0783599)
(9.94771 0 0.182321)
(9.96954 0 0.155034)
(9.89523 0 0.253813)
(9.92722 0 0.230881)
(9.82524 0 0.326761)
(9.86697 0 0.307503)
(9.73814 0 0.402549)
(9.78978 0 0.386516)
(9.63404 0 0.482227)
(9.69606 0 0.469141)
(9.51286 0 0.566751)
(9.5858 0 0.55639)
(9.37439 0 0.657087)
(9.45881 0 0.649264)
(9.21829 0 0.754208)
(9.31482 0 0.748781)
(9.04415 0 0.859081)
(9.15348 0 0.855958)
(8.85146 0 0.972661)
(8.97435 0 0.971798)
(8.63963 0 1.09588)
(8.77692 0 1.0973)
(8.40803 0 1.22965)
(8.56059 0 1.23342)
(8.15596 0 1.37476)
(8.32471 0 1.38108)
(7.88265 0 1.53188)
(8.06853 0 1.54109)
(7.58727 0 1.7014)
(7.79126 0 1.71406)
(7.2689 0 1.88332)
(7.49196 0 1.90032)
(6.92642 0 2.077)
(7.16954 0 2.09973)
(6.5585 0 2.28088)
(6.82265 0 2.31142)
(6.16345 0 2.49208)
(6.44958 0 2.53352)
(5.73911 0 2.70586)
(6.04808 0 2.76268)
(5.28271 0 2.91501)
(5.61522 0 2.99349)
(4.7908 0 3.10917)
(5.14721 0 3.21787)
(4.25926 0 3.27421)
(4.63935 0 3.42429)
(3.68336 0 3.39185)
(4.08602 0 3.59715)
(3.05802 0 3.43967)
(3.48128 0 3.71653)
(2.37771 0 3.39177)
(2.81833 0 3.7581)
(1.63789 0 3.22614)
(2.09913 0 3.69395)
(0.83912 0 2.90081)
(1.2789 0 3.50443)
(0.573351 0 3.11366)
(9.98273 0 0.123579)
(9.99316 0 0.0868156)
(9.94873 0 0.204305)
(9.97027 0 0.172089)
(9.89794 0 0.285247)
(9.92927 0 0.25697)
(9.83051 0 0.367959)
(9.87124 0 0.342981)
(9.74671 0 0.453844)
(9.79716 0 0.431671)
(9.64669 0 0.544069)
(9.70736 0 0.524343)
(9.53039 0 0.6397)
(9.60182 0 0.622127)
(9.39763 0 0.741793)
(9.48039 0 0.726118)
(9.24814 0 0.851409)
(9.34287 0 0.837417)
(9.08154 0 0.969602)
(9.18895 0 0.957126)
(8.89738 0 1.09742)
(9.01826 0 1.08634)
(8.69511 0 1.23588)
(8.83031 0 1.22614)
(8.47414 0 1.38599)
(8.62456 0 1.37758)
(8.23378 0 1.54864)
(8.40038 0 1.54169)
(7.97323 0 1.72461)
(8.15703 0 1.71939)
(7.69162 0 1.91446)
(7.89365 0 1.91145)
(7.38786 0 2.11837)
(7.60921 0 2.11838)
(7.06062 0 2.33599)
(7.30242 0 2.34032)
(6.7082 0 2.56615)
(6.97165 0 2.57679)
(6.32835 0 2.80651)
(6.61471 0 2.82646)
(5.91808 0 3.05308)
(6.2287 0 3.08673)
(5.47343 0 3.29956)
(5.80972 0 3.35321)
(4.98928 0 3.53668)
(5.35262 0 3.61901)
(4.4593 0 3.75142)
(4.85084 0 3.87401)
(3.87618 0 3.92646)
(4.29638 0 4.10395)
(3.23229 0 4.03984)
(3.68051 0 4.28968)
(2.5208 0 4.06496)
(2.99347 0 4.40675)
(1.73835 0 3.97609)
(2.23734 0 4.42454)
(0.889457 0 3.7187)
(1.36333 0 4.31623)
(0.59874 0 3.98482)
(9.98321 0 0.1362)
(9.99339 0 0.0950382)
(9.95032 0 0.225567)
(9.97131 0 0.188585)
(9.90151 0 0.31549)
(9.93193 0 0.282043)
(9.83694 0 0.407496)
(9.87644 0 0.376952)
(9.75685 0 0.503004)
(9.8058 0 0.474831)
(9.66136 0 0.603268)
(9.72031 0 0.57704)
(9.55047 0 0.70945)
(9.61997 0 0.684804)
(9.42405 0 0.822692)
(9.50466 0 0.799306)
(9.28185 0 0.944138)
(9.37424 0 0.921725)
(9.12358 0 1.07492)
(9.22845 0 1.05324)
(8.94881 0 1.21619)
(9.06697 0 1.19503)
(8.75707 0 1.36904)
(8.8894 0 1.34827)
(8.54778 0 1.53459)
(8.69522 0 1.51412)
(8.32027 0 1.71385)
(8.48384 0 1.69371)
(8.07372 0 1.90775)
(8.25452 0 1.88811)
(7.80715 0 2.11704)
(8.00638 0 2.09828)
(7.51933 0 2.34218)
(7.73827 0 2.32499)
(7.20869 0 2.58318)
(7.44874 0 2.56871)
(6.8731 0 2.83942)
(7.13586 0 2.82948)
(6.50977 0 3.1093)
(6.79701 0 3.10667)
(6.11487 0 3.38984)
(6.42867 0 3.39865)
(5.6833 0 3.67605)
(6.02603 0 3.70234)
(5.20835 0 3.96024)
(5.58266 0 4.01252)
(4.68161 0 4.231)
(5.09018 0 4.32099)
(4.09314 0 4.47231)
(4.53812 0 4.6154)
(3.43236 0 4.66252)
(3.91453 0 4.87786)
(2.68999 0 4.7731)
(3.20552 0 5.08354)
(1.86174 0 4.77232)
(2.41113 0 5.19789)
(0.954121 0 4.58962)
(1.47618 0 5.1842)
(0.639144 0 4.91933)
(9.98386 0 0.148366)
(9.99368 0 0.102941)
(9.95235 0 0.245965)
(9.97261 0 0.20439)
(9.90579 0 0.344392)
(9.9351 0 0.305963)
(9.84438 0 0.44519)
(9.88242 0 0.409262)
(9.76834 0 0.549801)
(9.81553 0 0.515806)
(9.67781 0 0.659549)
(9.73472 0 0.627)
(9.57282 0 0.775677)
(9.64 0 0.744146)
(9.45329 0 0.899407)
(9.53131 0 0.868505)
(9.31903 0 1.03196)
(9.40855 0 1.00133)
(9.1698 0 1.17455)
(9.27154 0 1.14386)
(9.00525 0 1.32839)
(9.12001 0 1.29738)
(8.82494 0 1.49471)
(8.95364 0 1.46312)
(8.62837 0 1.67471)
(8.77197 0 1.64237)
(8.41487 0 1.86955)
(8.57445 0 1.83637)
(8.18363 0 2.08034)
(8.3604 0 2.04636)
(7.93362 0 2.30807)
(8.12892 0 2.27351)
(7.66349 0 2.55353)
(7.87882 0 2.5189)
(7.37144 0 2.81721)
(7.60856 0 2.78343)
(7.05505 0 3.09915)
(7.31599 0 3.06772)
(6.71101 0 3.39869)
(6.9982 0 3.372)
(6.33478 0 3.71412)
(6.65117 0 3.69583)
(5.92021 0 4.04214)
(6.26937 0 4.03771)
(5.4591 0 4.3771)
(5.84524 0 4.39457)
(4.94087 0 4.70991)
(5.3687 0 4.76076)
(4.3525 0 5.02653)
(4.82657 0 5.12676)
(3.67935 0 5.30614)
(4.20292 0 5.47705)
(2.90728 0 5.51809)
(3.47763 0 5.78741)
(2.02747 0 5.62288)
(2.64478 0 6.01938)
(1.045 0 5.52928)
(1.63753 0 6.12374)
(0.704382 0 5.94284)
(9.98465 0 0.159978)
(9.99402 0 0.11046)
(9.95473 0 0.265376)
(9.97409 0 0.219395)
(9.91065 0 0.371813)
(9.93868 0 0.328605)
(9.85267 0 0.480875)
(9.88905 0 0.439767)
(9.78101 0 0.594034)
(9.82619 0 0.554423)
(9.69582 0 0.71267)
(9.75039 0 0.674013)
(9.59718 0 0.838096)
(9.66168 0 0.799904)
(9.48504 0 0.971604)
(9.56005 0 0.933422)
(9.35929 0 1.11448)
(9.44545 0 1.07588)
(9.21975 0 1.26802)
(9.31778 0 1.2286)
(9.06615 0 1.43351)
(9.17687 0 1.39291)
(8.89813 0 1.61228)
(9.02243 0 1.57015)
(8.71524 0 1.80563)
(8.85413 0 1.76168)
(8.51688 0 2.0149)
(8.67148 0 1.96891)
(8.30228 0 2.24137)
(8.47388 0 2.19322)
(8.07042 0 2.48632)
(8.26047 0 2.43602)
(7.8199 0 2.75093)
(8.03014 0 2.69873)
(7.54885 0 3.03622)
(7.78132 0 2.98271)
(7.25464 0 3.34302)
(7.51184 0 3.28926)
(6.93367 0 3.67176)
(7.21868 0 3.61954)
(6.58091 0 4.02223)
(6.89761 0 3.97446)
(6.18942 0 4.39321)
(6.54269 0 4.35442)
(5.7497 0 4.78169)
(6.14564 0 4.75889)
(5.24901 0 5.18179)
(5.69497 0 5.18564)
(4.67079 0 5.58284)
(5.17492 0 5.6293)
(3.99471 0 5.96654)
(4.56488 0 6.07885)
(3.1982 0 6.30164)
(3.83607 0 6.51356)
(2.26156 0 6.54051)
(2.97054 0 6.89393)
(1.18047 0 6.56485)
(1.87889 0 7.1576)
(0.812676 0 7.09904)
(9.98554 0 0.170959)
(9.9944 0 0.117543)
(9.95739 0 0.283692)
(9.97572 0 0.233514)
(9.91601 0 0.397626)
(9.94259 0 0.349861)
(9.8617 0 0.514401)
(9.89624 0 0.468341)
(9.7947 0 0.635523)
(9.83765 0 0.590528)
(9.71518 0 0.762415)
(9.76714 0 0.717896)
(9.62326 0 0.896453)
(9.68477 0 0.851861)
(9.51896 0 1.03899)
(9.59057 0 0.993803)
(9.40223 0 1.19136)
(9.48458 0 1.14509)
(9.27296 0 1.35493)
(9.36676 0 1.3071)
(9.13097 0 1.53108)
(9.23701 0 1.48122)
(8.97599 0 1.72119)
(9.09518 0 1.66887)
(8.80766 0 1.9267)
(8.94099 0 1.8715)
(8.62549 0 2.14908)
(8.77412 0 2.09063)
(8.4288 0 2.38985)
(8.59404 0 2.32782)
(8.21664 0 2.65054)
(8.40005 0 2.58472)
(7.98772 0 2.93274)
(8.19117 0 2.86306)
(7.74019 0 3.23809)
(7.96597 0 3.16469)
(7.4715 0 3.56822)
(7.72245 0 3.49159)
(7.17799 0 3.92475)
(7.45776 0 3.8459)
(6.85453 0 4.30921)
(7.16783 0 4.22995)
(6.49385 0 4.72272)
(6.84684 0 4.6462)
(6.08568 0 5.16561)
(6.48645 0 5.09708)
(5.61557 0 5.63638)
(6.07463 0 5.58457)
(5.06345 0 6.12986)
(5.5939 0 6.10915)
(4.40201 0 6.63376)
(5.01941 0 6.66762)
(3.59587 0 7.1211)
(4.31227 0 7.2485)
(2.60405 0 7.54038)
(3.43532 0 7.82002)
(1.3941 0 7.74005)
(2.25612 0 8.31467)
(1.00241 0 8.46448)
(9.9865 0 0.181248)
(9.9948 0 0.124153)
(9.96027 0 0.300824)
(9.97747 0 0.246673)
(9.92177 0 0.421723)
(9.94676 0 0.369637)
(9.87134 0 0.545637)
(9.90388 0 0.494873)
(9.80924 0 0.674108)
(9.84978 0 0.623989)
(9.73569 0 0.808598)
(9.7848 0 0.75849)
(9.65082 0 0.950527)
(9.70904 0 0.899828)
(9.55474 0 1.10129)
(9.6226 0 1.04943)
(9.44745 0 1.2623)
(9.52558 0 1.2087)
(9.32894 0 1.43494)
(9.41802 0 1.37907)
(9.19912 0 1.62066)
(9.29992 0 1.56196)
(9.05783 0 1.82093)
(9.17122 0 1.75886)
(8.90484 0 2.03729)
(9.03181 0 1.97131)
(8.73979 0 2.27135)
(8.88146 0 2.20091)
(8.56214 0 2.5248)
(8.71985 0 2.44939)
(8.37114 0 2.79946)
(8.54646 0 2.71859)
(8.16568 0 3.09733)
(8.36054 0 3.01055)
(7.94417 0 3.42058)
(8.16098 0 3.32755)
(7.70433 0 3.77169)
(7.94613 0 3.67219)
(7.44286 0 4.15347)
(7.71362 0 4.04755)
(7.15502 0 4.56919)
(7.46002 0 4.4573)
(6.83392 0 5.02258)
(7.1803 0 4.90595)
(6.46951 0 5.51775)
(6.86706 0 5.39901)
(6.04692 0 6.05883)
(6.50925 0 5.94317)
(5.5439 0 6.64884)
(6.08991 0 6.54633)
(4.92683 0 7.28703)
(5.58289 0 7.21689)
(4.14466 0 7.96133)
(4.94215 0 7.96157)
(3.12136 0 8.63327)
(4.10881 0 8.77549)
(1.75593 0 9.12726)
(2.8779 0 9.62045)
(1.36436 0 10.1843)
(9.98754 0 0.190793)
(9.99523 0 0.130256)
(9.96333 0 0.316698)
(9.97932 0 0.258816)
(9.92786 0 0.44401)
(9.95115 0 0.387857)
(9.88148 0 0.574475)
(9.91188 0 0.519271)
(9.8245 0 0.709663)
(9.86244 0 0.654698)
(9.75713 0 0.851068)
(9.80318 0 0.795665)
(9.6796 0 1.00015)
(9.73427 0 0.943655)
(9.59203 0 1.15833)
(9.65584 0 1.10012)
(9.49454 0 1.32705)
(9.56808 0 1.26651)
(9.38718 0 1.50777)
(9.4711 0 1.44426)
(9.26999 0 1.70195)
(9.36502 0 1.63485)
(9.14293 0 1.91113)
(9.2499 0 1.8398)
(9.00591 0 2.13694)
(9.12576 0 2.0607)
(8.85875 0 2.38109)
(8.99255 0 2.29924)
(8.70112 0 2.64544)
(8.85016 0 2.55726)
(8.53252 0 2.93204)
(8.69833 0 2.83676)
(8.35217 0 3.24322)
(8.53663 0 3.14002)
(8.15889 0 3.58165)
(8.36436 0 3.46965)
(7.95095 0 3.95052)
(8.18048 0 3.82877)
(7.7258 0 4.35372)
(7.98338 0 4.22118)
(7.47969 0 4.7961)
(7.7707 0 4.6517)
(7.20706 0 5.28385)
(7.53895 0 5.12651)
(6.89951 0 5.82494)
(7.28288 0 5.65383)
(6.54408 0 6.42973)
(6.99451 0 6.24478)
(6.12002 0 7.11161)
(6.6611 0 6.91489)
(5.59259 0 7.88772)
(6.26207 0 7.68638)
(4.9003 0 8.77786)
(5.75698 0 8.59272)
(3.92617 0 9.8012)
(5.08652 0 9.68506)
(2.43258 0 10.8558)
(3.97848 0 11.0488)
(2.14546 0 12.5669)
(9.98862 0 0.199557)
(9.99567 0 0.135831)
(9.96652 0 0.331252)
(9.98124 0 0.269898)
(9.9342 0 0.464406)
(9.95571 0 0.40446)
(9.89203 0 0.600805)
(9.92017 0 0.54146)
(9.84031 0 0.742048)
(9.87553 0 0.682565)
(9.77933 0 0.88965)
(9.82217 0 0.829318)
(9.70934 0 1.04509)
(9.7603 0 0.983221)
(9.63053 0 1.20983)
(9.69012 0 1.14575)
(9.5431 0 1.38532)
(9.61188 0 1.31835)
(9.4472 0 1.57304)
(9.5258 0 1.50249)
(9.34299 0 1.77449)
(9.43209 0 1.69966)
(9.23056 0 1.99126)
(9.33096 0 1.91141)
(9.10999 0 2.22501)
(9.22257 0 2.13936)
(8.9813 0 2.47754)
(9.10708 0 2.38523)
(8.84442 0 2.75082)
(8.98461 0 2.65093)
(8.69918 0 3.04706)
(8.85521 0 2.93857)
(8.5452 0 3.36884)
(8.71884 0 3.25055)
(8.3819 0 3.71918)
(8.57534 0 3.58971)
(8.20832 0 4.10179)
(8.42439 0 3.95948)
(8.02299 0 4.52133)
(8.26539 0 4.36411)
(7.82373 0 4.98385)
(8.09744 0 4.80909)
(7.60723 0 5.49738)
(7.91918 0 5.30165)
(7.36848 0 6.07298)
(7.72862 0 5.85164)
(7.09953 0 6.7263)
(7.52288 0 6.47301)
(6.78723 0 7.48052)
(7.29771 0 7.18632)
(6.408 0 8.37235)
(7.04762 0 8.02394)
(5.9148 0 9.46618)
(6.76237 0 9.04235)
(5.19503 0 10.9082)
(6.4609 0 10.3571)
(3.88317 0 13.1775)
(6.1879 0 12.3033)
(5.25581 0 16.3702)
(0.188507 0 -0.111576)
(0.11053 0 -0.184631)
(0.366341 0 -0.0935568)
(0.268358 0 -0.170064)
(0.510707 0 -0.0700074)
(0.424124 0 -0.134797)
(0.620812 0 -0.0489609)
(0.553391 0 -0.100379)
(0.701085 0 -0.0318722)
(0.651908 0 -0.0714543)
(0.756729 0 -0.0185542)
(0.724093 0 -0.0483601)
(0.792669 0 -0.00849577)
(0.775616 0 -0.030498)
(0.813347 0 -0.00116502)
(0.811376 0 -0.0171334)
(0.822657 0 0.00391985)
(0.83533 0 -0.00753119)
(0.824064 0 0.00707174)
(0.85067 0 -0.00111147)
(0.819878 0 0.00867245)
(0.85992 0 0.00322866)
(0.812479 0 0.0092319)
(0.865083 0 0.00557101)
(0.803586 0 0.00911123)
(0.867786 0 0.00653878)
(0.794405 0 0.00856316)
(0.869293 0 0.00659067)
(0.785775 0 0.00777591)
(0.870524 0 0.00604865)
(0.778222 0 0.00688972)
(0.8721 0 0.00516865)
(0.772022 0 0.00601091)
(0.874394 0 0.00414272)
(0.767221 0 0.00522597)
(0.877579 0 0.00313221)
(0.763642 0 0.00460485)
(0.881624 0 0.00227981)
(0.760914 0 0.00419163)
(0.886302 0 0.00169665)
(0.758557 0 0.0039883)
(0.891247 0 0.00143091)
(0.756108 0 0.00395303)
(0.896062 0 0.00145217)
(0.753216 0 0.00402658)
(0.900433 0 0.00167445)
(0.749632 0 0.00417127)
(0.904164 0 0.00202573)
(0.745089 0 0.00438031)
(0.90709 0 0.00250735)
(0.739226 0 0.0046268)
(0.908968 0 0.0031592)
(0.731736 0 0.00484413)
(0.909443 0 0.00394062)
(0.722578 0 0.00487994)
(0.908124 0 0.0047043)
(0.712583 0 0.00425684)
(0.905238 0 0.00501294)
(0.901371 0 0.00384359)
(0.174322 0 -0.26733)
(0.0922001 0 -0.355368)
(0.340716 0 -0.231722)
(0.238527 0 -0.329188)
(0.479293 0 -0.18072)
(0.37526 0 -0.264189)
(0.589506 0 -0.134202)
(0.49026 0 -0.200857)
(0.675478 0 -0.0960518)
(0.580209 0 -0.147981)
(0.741787 0 -0.066054)
(0.649247 0 -0.10599)
(0.792624 0 -0.0431542)
(0.702066 0 -0.073638)
(0.831635 0 -0.0261924)
(0.742633 0 -0.049455)
(0.861811 0 -0.0140589)
(0.774134 0 -0.0319434)
(0.885308 0 -0.00580513)
(0.799022 0 -0.0196709)
(0.90415 0 -0.000575287)
(0.819147 0 -0.011302)
(0.919623 0 0.00240899)
(0.835933 0 -0.00608049)
(0.932921 0 0.00375711)
(0.850454 0 -0.00323784)
(0.945004 0 0.00396231)
(0.863566 0 -0.0020831)
(0.956567 0 0.00341942)
(0.8759 0 -0.00205542)
(0.968075 0 0.00243951)
(0.887878 0 -0.00270728)
(0.979828 0 0.00128526)
(0.899773 0 -0.00371037)
(0.991934 0 0.000191922)
(0.911746 0 -0.00476548)
(1.0043 0 -0.000641827)
(0.923828 0 -0.00559854)
(1.01668 0 -0.001091)
(0.935909 0 -0.00600339)
(1.02877 0 -0.00113683)
(0.947791 0 -0.00591061)
(1.04034 0 -0.0008511)
(0.959279 0 -0.0054075)
(1.05128 0 -0.00033051)
(0.970272 0 -0.00465756)
(1.06154 0 0.000392868)
(0.980787 0 -0.00377344)
(1.07098 0 0.00138775)
(0.990875 0 -0.00270451)
(1.07924 0 0.0027025)
(1.00047 0 -0.00129178)
(1.08587 0 0.00411509)
(1.00931 0 0.000452496)
(1.09063 0 0.00513627)
(1.01711 0 0.00225971)
(1.09419 0 0.00504435)
(1.02363 0 0.00322953)
(1.03006 0 0.00285595)
(0.147498 0 -0.42364)
(0.072074 0 -0.499834)
(0.284083 0 -0.368561)
(0.195091 0 -0.459805)
(0.396186 0 -0.290765)
(0.299245 0 -0.368862)
(0.484977 0 -0.22012)
(0.387316 0 -0.281805)
(0.554436 0 -0.162339)
(0.45536 0 -0.209808)
(0.60841 0 -0.116993)
(0.507755 0 -0.152899)
(0.650384 0 -0.0824723)
(0.548072 0 -0.109257)
(0.683367 0 -0.0569677)
(0.5793 0 -0.0767824)
(0.709792 0 -0.0386763)
(0.603924 0 -0.0533211)
(0.731479 0 -0.0259251)
(0.623864 0 -0.0368005)
(0.749866 0 -0.017395)
(0.640487 0 -0.0254821)
(0.765924 0 -0.0121192)
(0.654721 0 -0.018172)
(0.780437 0 -0.00926322)
(0.667244 0 -0.0139078)
(0.793964 0 -0.00809156)
(0.678603 0 -0.0117941)
(0.806835 0 -0.00801638)
(0.689144 0 -0.011076)
(0.819283 0 -0.00859311)
(0.699015 0 -0.0112264)
(0.831479 0 -0.00945234)
(0.708332 0 -0.0118596)
(0.843519 0 -0.0102589)
(0.717205 0 -0.0126203)
(0.8554 0 -0.0107298)
(0.725702 0 -0.0131664)
(0.867018 0 -0.0107038)
(0.733809 0 -0.013229)
(0.878251 0 -0.0101931)
(0.741444 0 -0.012732)
(0.889068 0 -0.00934256)
(0.748534 0 -0.0118207)
(0.899556 0 -0.00831894)
(0.755097 0 -0.0107291)
(0.909921 0 -0.00716311)
(0.761312 0 -0.0096326)
(0.920314 0 -0.00572529)
(0.767432 0 -0.00844029)
(0.930615 0 -0.0038688)
(0.773625 0 -0.00684242)
(0.940519 0 -0.0018053)
(0.779816 0 -0.00475783)
(0.949962 0 -1.25709e-05)
(0.785863 0 -0.00259132)
(0.958382 0 0.00112385)
(0.791058 0 -0.00099368)
(0.796052 0 4.48523e-05)
(0.117951 0 -0.545478)
(0.051845 0 -0.61536)
(0.21914 0 -0.469979)
(0.145772 0 -0.556572)
(0.298746 0 -0.369569)
(0.210989 0 -0.443192)
(0.360874 0 -0.280239)
(0.26861 0 -0.338444)
(0.409142 0 -0.207844)
(0.310815 0 -0.252774)
(0.446415 0 -0.151301)
(0.343169 0 -0.185293)
(0.475288 0 -0.10846)
(0.367689 0 -0.133759)
(0.498009 0 -0.0769465)
(0.386275 0 -0.0956079)
(0.516368 0 -0.0543676)
(0.400637 0 -0.0681729)
(0.531534 0 -0.0385641)
(0.412095 0 -0.048779)
(0.544252 0 -0.0279003)
(0.421388 0 -0.035291)
(0.555131 0 -0.0211819)
(0.428811 0 -0.0263632)
(0.564708 0 -0.0173644)
(0.434639 0 -0.0209495)
(0.573295 0 -0.0155064)
(0.439245 0 -0.017958)
(0.580963 0 -0.0148931)
(0.442833 0 -0.0164503)
(0.587791 0 -0.0150329)
(0.445299 0 -0.0158989)
(0.593884 0 -0.0155305)
(0.446682 0 -0.0159307)
(0.599344 0 -0.0160116)
(0.447124 0 -0.0161829)
(0.604208 0 -0.016141)
(0.446785 0 -0.0162644)
(0.608392 0 -0.015729)
(0.44575 0 -0.0158316)
(0.611799 0 -0.01482)
(0.444012 0 -0.0148007)
(0.614466 0 -0.0136145)
(0.441531 0 -0.013402)
(0.616586 0 -0.012318)
(0.438294 0 -0.0119562)
(0.618564 0 -0.0109826)
(0.434538 0 -0.010751)
(0.620781 0 -0.00938926)
(0.430578 0 -0.00966363)
(0.623127 0 -0.0073823)
(0.426705 0 -0.00810652)
(0.625166 0 -0.00529299)
(0.42346 0 -0.00583046)
(0.626731 0 -0.00371527)
(0.419494 0 -0.00339537)
(0.627667 0 -0.00234632)
(0.412918 0 -0.00146312)
(0.404656 0 0.000181738)
(0.0834778 0 -0.634445)
(0.0304527 0 -0.697121)
(0.14496 0 -0.538132)
(0.0896597 0 -0.615367)
(0.188466 0 -0.420219)
(0.110946 0 -0.483815)
(0.221022 0 -0.318369)
(0.135955 0 -0.368124)
(0.245434 0 -0.236606)
(0.149411 0 -0.274504)
(0.263502 0 -0.173066)
(0.15923 0 -0.200996)
(0.27681 0 -0.125187)
(0.165296 0 -0.145051)
(0.286772 0 -0.090186)
(0.168482 0 -0.103863)
(0.294551 0 -0.0651562)
(0.169691 0 -0.0744657)
(0.300564 0 -0.0474578)
(0.1697 0 -0.0535285)
(0.304748 0 -0.0352435)
(0.168676 0 -0.0385179)
(0.307232 0 -0.0272885)
(0.166141 0 -0.0282331)
(0.30837 0 -0.0224613)
(0.161825 0 -0.0217866)
(0.308307 0 -0.019632)
(0.156041 0 -0.0179129)
(0.306833 0 -0.0180092)
(0.148969 0 -0.0154169)
(0.303963 0 -0.0171704)
(0.140402 0 -0.0139348)
(0.299839 0 -0.0167781)
(0.130498 0 -0.0131755)
(0.294701 0 -0.0164628)
(0.119566 0 -0.0128307)
(0.28873 0 -0.0158496)
(0.107919 0 -0.0124607)
(0.281911 0 -0.0147783)
(0.0956939 0 -0.011591)
(0.274129 0 -0.0134142)
(0.0826664 0 -0.0100746)
(0.265394 0 -0.0121161)
(0.067873 0 -0.00822304)
(0.255898 0 -0.0111447)
(0.0511313 0 -0.00645882)
(0.246091 0 -0.0104022)
(0.0333946 0 -0.00520803)
(0.236707 0 -0.00943549)
(0.0157804 0 -0.00448478)
(0.22798 0 -0.00749812)
(-0.00100804 0 -0.00340368)
(0.217999 0 -0.00421432)
(-0.0156664 0 -0.000579432)
(0.204609 0 -0.000710864)
(-0.0270878 0 0.00348335)
(0.189762 0 0.00145305)
(-0.038598 0 0.00598319)
(-0.0514075 0 0.0054921)
(0.0436889 0 -0.685413)
(0.00668666 0 -0.739912)
(0.0609072 0 -0.568579)
(0.0253138 0 -0.631833)
(0.0656121 0 -0.438502)
(-0.000167038 0 -0.488208)
(0.0664164 0 -0.329892)
(-0.0109921 0 -0.368858)
(0.0642237 0 -0.243196)
(-0.0290796 0 -0.272552)
(0.0601288 0 -0.176145)
(-0.0453029 0 -0.197437)
(0.0548618 0 -0.125934)
(-0.0613355 0 -0.140581)
(0.0489878 0 -0.0896001)
(-0.0771975 0 -0.0989956)
(0.0429291 0 -0.0638584)
(-0.0929187 0 -0.0695644)
(0.0364581 0 -0.0454022)
(-0.108124 0 -0.0484172)
(0.0288287 0 -0.0321315)
(-0.122826 0 -0.032634)
(0.0196266 0 -0.0232127)
(-0.138133 0 -0.021304)
(0.00891827 0 -0.0176832)
(-0.156084 0 -0.0139137)
(-0.00371581 0 -0.0141746)
(-0.176292 0 -0.00884357)
(-0.0178463 0 -0.0118503)
(-0.196945 0 -0.00551296)
(-0.0332723 0 -0.0104793)
(-0.218234 0 -0.00337817)
(-0.0497124 0 -0.00989879)
(-0.240085 0 -0.00219056)
(-0.0667817 0 -0.00973324)
(-0.262346 0 -0.00169484)
(-0.0842117 0 -0.00929578)
(-0.284815 0 -0.00135793)
(-0.102454 0 -0.00776537)
(-0.307241 0 -0.000245645)
(-0.122765 0 -0.0048917)
(-0.329097 0 0.0022599)
(-0.146228 0 -0.00157261)
(-0.350333 0 0.00568818)
(-0.171866 0 0.000873717)
(-0.371536 0 0.00838328)
(-0.197552 0 0.0020373)
(-0.392773 0 0.00931054)
(-0.221716 0 0.0026774)
(-0.413372 0 0.00885084)
(-0.243176 0 0.00412973)
(-0.432518 0 0.00816022)
(-0.259949 0 0.00687572)
(-0.449099 0 0.00824501)
(-0.271614 0 0.00925218)
(-0.460563 0 0.00947553)
(-0.280276 0 0.00913249)
(-0.468817 0 0.0103278)
(-0.475417 0 0.00907149)
(-0.00513181 0 -0.691431)
(-0.0219493 0 -0.734885)
(-0.033473 0 -0.555807)
(-0.0493775 0 -0.60473)
(-0.0692539 0 -0.420126)
(-0.122071 0 -0.454799)
(-0.104127 0 -0.311429)
(-0.174212 0 -0.337065)
(-0.137088 0 -0.225646)
(-0.227254 0 -0.243212)
(-0.167521 0 -0.160251)
(-0.274073 0 -0.170988)
(-0.195571 0 -0.11209)
(-0.316391 0 -0.116778)
(-0.22164 0 -0.0780684)
(-0.355478 0 -0.0773962)
(-0.245809 0 -0.0543987)
(-0.39296 0 -0.0500125)
(-0.268476 0 -0.0367715)
(-0.429699 0 -0.0305135)
(-0.290851 0 -0.0224997)
(-0.463466 0 -0.0153783)
(-0.314999 0 -0.0112079)
(-0.493029 0 -0.00312053)
(-0.341767 0 -0.00330202)
(-0.520269 0 0.00576638)
(-0.369667 0 0.00149148)
(-0.546636 0 0.0111847)
(-0.397482 0 0.00427939)
(-0.572119 0 0.0139825)
(-0.425077 0 0.00594872)
(-0.596992 0 0.0155062)
(-0.452547 0 0.00687513)
(-0.621425 0 0.0161642)
(-0.479923 0 0.00742838)
(-0.645513 0 0.0161653)
(-0.506963 0 0.00819026)
(-0.669287 0 0.0158663)
(-0.532715 0 0.00978692)
(-0.692594 0 0.0157705)
(-0.555747 0 0.0121723)
(-0.714642 0 0.0162463)
(-0.575478 0 0.0143976)
(-0.734232 0 0.0173865)
(-0.592896 0 0.0154112)
(-0.751549 0 0.018467)
(-0.60902 0 0.0148894)
(-0.767464 0 0.0184242)
(-0.623994 0 0.0134219)
(-0.782296 0 0.0171151)
(-0.637386 0 0.0120451)
(-0.795702 0 0.0153765)
(-0.648837 0 0.0115465)
(-0.807248 0 0.0142695)
(-0.657984 0 0.0116334)
(-0.816676 0 0.0141741)
(-0.665132 0 0.0111258)
(-0.82402 0 0.013913)
(-0.828322 0 0.0126949)
(-0.0560706 0 -0.646742)
(-0.0574037 0 -0.679968)
(-0.137028 0 -0.499086)
(-0.134476 0 -0.52731)
(-0.217862 0 -0.365689)
(-0.257271 0 -0.379322)
(-0.293936 0 -0.262735)
(-0.356519 0 -0.267711)
(-0.362499 0 -0.183389)
(-0.448842 0 -0.182182)
(-0.423416 0 -0.123445)
(-0.529665 0 -0.118044)
(-0.478029 0 -0.0785439)
(-0.600013 0 -0.0704347)
(-0.529038 0 -0.045255)
(-0.661612 0 -0.0351331)
(-0.578515 0 -0.0214247)
(-0.71384 0 -0.00998677)
(-0.625258 0 -0.0050875)
(-0.759451 0 0.00640698)
(-0.666038 0 0.00614614)
(-0.798992 0 0.0160722)
(-0.699018 0 0.0140494)
(-0.832477 0 0.0217127)
(-0.725711 0 0.0192481)
(-0.860308 0 0.0253919)
(-0.749175 0 0.0222596)
(-0.884498 0 0.0280281)
(-0.771523 0 0.023845)
(-0.907135 0 0.029646)
(-0.793188 0 0.0244624)
(-0.928704 0 0.0303324)
(-0.814218 0 0.0242989)
(-0.949448 0 0.0302161)
(-0.834629 0 0.0235872)
(-0.969436 0 0.0294811)
(-0.854472 0 0.0227262)
(-0.988749 0 0.0285064)
(-0.873776 0 0.0221898)
(-1.00754 0 0.0277762)
(-0.892472 0 0.022284)
(-1.02588 0 0.0275993)
(-0.910134 0 0.0227468)
(-1.04353 0 0.0278591)
(-0.926307 0 0.0227598)
(-1.06001 0 0.0278292)
(-0.940886 0 0.0217145)
(-1.07505 0 0.0266648)
(-0.953848 0 0.0198456)
(-1.08844 0 0.0242685)
(-0.965119 0 0.0179959)
(-1.1 0 0.02145)
(-0.974613 0 0.0168049)
(-1.1097 0 0.0192648)
(-0.982192 0 0.0160268)
(-1.11771 0 0.0180674)
(-0.988552 0 0.0150352)
(-1.12396 0 0.0171029)
(-1.12718 0 0.0160332)