/*--------------------------------*- C++ -*----------------------------------*\
  =========                 |
  \\      /  F ield         | OpenFOAM: The Open Source CFD Toolbox
   \\    /   O peration     | Website:  https://openfoam.org
    \\  /    A nd           | Version:  dev
     \\/     M anipulation  |
\*---------------------------------------------------------------------------*/
FoamFile
{
    version     2.0;
    format      ascii;
    class       volScalarField;
    location    "6.3";
    object      p;
}
// * * * * * * * * * * * * * * * * * * * * * * * * * * * * * * * * * * * * * //

dimensions      [0 2 -2 0 0 0 0];

internalField   nonuniform List<scalar> 
2790
(
146.849
146.757
147.024
147.595
148.375
149.332
150.465
151.771
153.248
154.889
156.688
158.639
160.733
162.958
165.298
167.734
170.238
172.777
175.309
177.783
180.142
182.319
184.25
185.87
187.13
188.004
188.44
188.496
188.546
188.759
146.647
146.664
146.957
147.525
148.301
149.255
150.383
151.683
153.153
154.785
156.575
158.516
160.599
162.813
165.142
167.568
170.064
172.597
175.127
177.605
179.974
182.169
184.123
185.772
187.056
187.931
188.328
188.382
188.515
188.799
146.448
146.536
146.847
147.405
148.168
149.109
150.222
151.505
152.952
154.56
156.322
158.232
160.28
162.455
164.743
167.126
169.578
172.068
174.56
177.008
179.358
181.55
183.523
185.212
186.563
187.539
188.132
188.487
188.803
189.102
146.223
146.341
146.665
147.214
147.963
148.888
149.981
151.239
152.659
154.233
155.956
157.822
159.821
161.941
164.169
166.487
168.872
171.295
173.722
176.113
178.42
180.591
182.573
184.313
185.767
186.919
187.787
188.458
189.011
189.53
145.962
146.095
146.427
146.969
147.701
148.605
149.672
150.899
152.281
153.812
155.486
157.296
159.231
161.282
163.434
165.669
167.968
170.303
172.644
174.957
177.203
179.338
181.32
183.11
184.681
186.023
187.154
188.116
188.927
189.674
145.661
145.8
146.134
146.666
147.378
148.256
149.292
150.481
151.818
153.298
154.913
156.656
158.516
160.484
162.545
164.683
166.878
169.108
171.345
173.56
175.723
177.8
179.762
181.583
183.246
184.748
186.094
187.3
188.32
189.238
145.319
145.458
145.789
146.308
146.997
147.845
148.844
149.99
151.275
152.695
154.242
155.908
157.683
159.556
161.513
163.539
165.615
167.72
169.833
171.929
173.984
175.976
177.883
179.694
181.399
183
184.494
185.873
187.038
188.084
144.934
145.071
145.396
145.898
146.561
147.375
148.332
149.428
150.656
152.009
153.479
155.058
156.737
158.503
160.343
162.242
164.183
166.147
168.115
170.067
171.984
173.852
175.659
177.401
179.08
180.699
182.254
183.726
184.976
186.127
144.508
144.641
144.955
145.438
146.072
146.848
147.759
148.8
149.963
151.242
152.628
154.113
155.685
157.333
159.044
160.802
162.592
164.395
166.195
167.973
169.717
171.415
173.063
174.663
176.225
177.76
179.269
180.739
182.011
183.249
144.041
144.169
144.47
144.93
145.533
146.268
147.129
148.109
149.203
150.402
151.696
153.078
154.535
156.055
157.624
159.228
160.85
162.472
164.078
165.652
167.18
168.654
170.072
171.44
172.773
174.092
175.413
176.751
177.951
179.255
143.536
143.658
143.943
144.379
144.947
145.637
146.444
147.361
148.38
149.492
150.69
151.961
153.294
154.677
156.094
157.53
158.968
160.389
161.775
163.11
164.378
165.568
166.675
167.703
168.667
169.596
170.527
171.526
172.489
173.807
142.994
143.109
143.377
143.785
144.316
144.96
145.709
146.558
147.498
148.521
149.615
150.769
151.972
153.209
154.464
155.721
156.959
158.16
159.302
160.364
161.326
162.168
162.877
163.443
163.869
164.179
164.423
164.731
165.114
166.287
142.417
142.524
142.774
143.153
143.645
144.239
144.929
145.707
146.565
147.492
148.479
149.512
150.579
151.663
152.748
153.814
154.841
155.805
156.68
157.439
158.052
158.487
158.709
158.684
158.381
157.784
156.91
155.919
154.973
155.479
141.808
141.906
142.137
142.486
142.937
143.48
144.107
144.812
145.585
146.414
147.29
148.198
149.123
150.05
150.958
151.827
152.632
153.346
153.937
154.369
154.599
154.576
154.238
153.506
152.283
150.455
147.894
144.594
140.65
138.617
141.169
141.259
141.468
141.786
142.195
142.685
143.249
143.878
144.564
145.293
146.055
146.835
147.617
148.382
149.11
149.776
150.354
150.81
151.106
151.196
151.023
150.512
149.567
148.053
145.774
142.443
137.602
130.589
120.136
107.927
0.8561
0.836289
0.770354
0.680888
0.589895
0.507945
0.438159
0.380337
0.333021
0.294317
0.26229
0.235087
0.211736
0.191075
0.172217
0.154539
0.137625
0.121231
0.105251
0.0897559
0.0748901
0.0608614
0.0480411
0.0366263
0.0266794
0.0181777
0.0111691
0.00579159
0.00214939
-0.000247091
0.81081
0.788855
0.727106
0.644899
0.561425
0.485961
0.421408
0.367728
0.323646
0.287422
0.257299
0.231879
0.209654
0.18971
0.171323
0.153943
0.137197
0.120871
0.104896
0.0893013
0.0742844
0.0602021
0.0473612
0.0359864
0.0261002
0.0176383
0.010682
0.00536709
0.00197262
0.000549659
0.760539
0.734594
0.675485
0.600137
0.524872
0.457018
0.398949
0.35064
0.310903
0.278088
0.250564
0.226983
0.206175
0.187278
0.169635
0.152757
0.136315
0.120122
0.104123
0.0883989
0.0731967
0.0589314
0.0460195
0.034682
0.0248638
0.0163602
0.00919603
0.00403076
0.00120154
0.000706287
0.71186
0.681693
0.624336
0.55485
0.487276
0.426776
0.375135
0.332255
0.296955
0.267612
0.242699
0.221047
0.201737
0.183958
0.167117
0.15079
0.134711
0.118733
0.102818
0.0870649
0.0717531
0.0573849
0.0445161
0.0333514
0.0237575
0.0153775
0.00825862
0.00310098
0.000304942
-0.000366821
0.677594
0.643192
0.587257
0.521886
0.459892
0.404608
0.357539
0.31856
0.286476
0.259614
0.23652
0.216217
0.198016
0.18106
0.164814
0.148907
0.133133
0.117372
0.101586
0.0858702
0.0705088
0.0560942
0.0433442
0.0323543
0.0228583
0.0144227
0.00718003
0.0023425
0.000255976
-0.000459875
0.669593
0.629789
0.574476
0.510245
0.450178
0.396538
0.350915
0.313246
0.282291
0.256231
0.233641
0.213691
0.196037
0.179376
0.163318
0.147525
0.13184
0.116164
0.100461
0.084782
0.0693921
0.0550303
0.042645
0.0323145
0.0233121
0.015037
0.00751708
0.00185983
-0.000782392
-0.000885944
0.698769
0.650911
0.593248
0.525277
0.461464
0.404579
0.356421
0.316903
0.284646
0.257602
0.23422
0.213675
0.195468
0.178741
0.16254
0.146603
0.13089
0.115359
0.0999492
0.0845941
0.0693744
0.0547208
0.0415854
0.030817
0.0220247
0.0142827
0.00741037
0.002004
-0.00101532
-0.00100887
0.770837
0.712639
0.644569
0.566223
0.492226
0.426993
0.372393
0.328156
0.292836
0.26395
0.238877
0.216515
0.196509
0.178137
0.16114
0.144833
0.128886
0.113281
0.0980143
0.08301
0.0682688
0.0540875
0.041154
0.0302666
0.0213275
0.0137164
0.0070516
0.00153216
-0.0018347
-0.00123492
0.885389
0.806903
0.719452
0.624116
0.53525
0.458596
0.395432
0.343963
0.301675
0.267441
0.239695
0.216415
0.195962
0.177334
0.159928
0.143254
0.127128
0.11158
0.0965699
0.0818673
0.0672748
0.0529854
0.0397374
0.0284663
0.0194733
0.0122956
0.00617215
0.00078711
-0.00262289
-0.00142718
1.02165
0.910415
0.794353
0.678618
0.574494
0.484363
0.410657
0.352479
0.306869
0.270222
0.240292
0.21543
0.194169
0.175209
0.157503
0.140452
0.124061
0.108613
0.0941114
0.0800525
0.0658128
0.0513126
0.037393
0.025433
0.0163235
0.00977076
0.00452353
-0.000321955
-0.00338775
-0.0015891
1.14118
0.995767
0.850192
0.709839
0.589924
0.492429
0.414154
0.35248
0.304577
0.266769
0.236111
0.210845
0.189701
0.171168
0.15367
0.136394
0.119699
0.104429
0.0907591
0.0777337
0.063987
0.0489908
0.0338103
0.0206685
0.0113859
0.00585547
0.00207001
-0.0016913
-0.00406147
-0.00171515
1.23394
1.03752
0.861043
0.703875
0.575056
0.474612
0.396886
0.337062
0.291381
0.255554
0.226095
0.201668
0.181796
0.164846
0.148301
0.130871
0.113586
0.0984754
0.0861766
0.0749511
0.0620809
0.0462411
0.0288928
0.0137125
0.00407735
0.000191678
-0.00119835
-0.00318418
-0.00459158
-0.00179616
1.23903
0.974922
0.776721
0.621781
0.504685
0.418302
0.352557
0.301974
0.264491
0.235263
0.20952
0.187048
0.169704
0.156071
0.141683
0.12405
0.105405
0.0901513
0.0800058
0.071889
0.060638
0.043521
0.0226346
0.00401671
-0.00635265
-0.00764351
-0.00519334
-0.00455384
-0.00491928
-0.0018246
0.988177
0.661281
0.523704
0.434928
0.362485
0.316067
0.279521
0.246537
0.22351
0.206543
0.186983
0.166438
0.152608
0.145068
0.134993
0.116876
0.0950766
0.0786985
0.0718027
0.0690025
0.060684
0.0416857
0.0151606
-0.00914551
-0.0209852
-0.0182356
-0.00966979
-0.00532059
-0.00494331
-0.001795
0.293107
-0.0925117
0.00341435
0.127766
0.140745
0.175546
0.190493
0.173759
0.165784
0.169893
0.160935
0.14052
0.13011
0.132714
0.130511
0.110732
0.0817751
0.0619124
0.0600249
0.0665615
0.0636363
0.0419941
0.00671238
-0.0267882
-0.0414442
-0.0324887
-0.0141414
-0.00457218
-0.00446341
-0.00170583
140.489
140.57
140.759
141.043
141.408
141.843
142.341
142.893
143.488
144.115
144.759
145.407
146.041
146.641
147.183
147.642
147.986
148.177
148.171
147.91
147.324
146.315
144.75
142.436
139.074
134.168
126.799
115.052
92.9059
33.1722
139.762
139.834
140
140.249
140.568
140.946
141.375
141.846
142.348
142.868
143.392
143.904
144.386
144.816
145.169
145.415
145.521
145.445
145.134
144.524
143.53
142.04
139.894
136.861
132.583
126.475
117.506
103.942
84.4174
55.9517
138.993
139.054
139.197
139.411
139.682
140.001
140.36
140.748
141.154
141.565
141.967
142.341
142.669
142.928
143.09
143.125
142.996
142.656
142.05
141.107
139.736
137.816
135.183
131.606
126.76
120.189
111.303
99.4624
85.2139
68.5625
138.182
138.234
138.352
138.529
138.752
139.011
139.298
139.602
139.911
140.213
140.491
140.727
140.902
140.991
140.966
140.794
140.436
139.845
138.963
137.716
136.015
133.741
130.742
126.822
121.734
115.183
106.874
96.4721
83.9134
68.7573
137.333
137.373
137.468
137.607
137.781
137.979
138.193
138.412
138.625
138.817
138.972
139.072
139.096
139.019
138.812
138.442
137.87
137.046
135.914
134.403
132.428
129.882
126.636
122.534
117.394
111.018
103.203
93.7079
82.3633
69.3759
136.446
136.476
136.546
136.648
136.772
136.909
137.05
137.186
137.302
137.385
137.42
137.387
137.264
137.027
136.648
136.092
135.321
134.288
132.939
131.207
129.018
126.279
122.884
118.716
113.643
107.531
100.257
91.7203
81.9122
71.2446
135.525
135.545
135.59
135.654
135.729
135.805
135.875
135.927
135.948
135.926
135.843
135.681
135.419
135.031
134.49
133.764
132.815
131.599
130.066
128.159
125.811
122.949
119.489
115.345
110.43
104.664
97.9932
90.4058
81.945
72.9467
134.573
134.582
134.603
134.63
134.655
134.672
134.671
134.642
134.572
134.447
134.251
133.967
133.572
133.044
132.356
131.476
130.37
128.999
127.318
125.278
122.824
119.898
116.439
112.388
107.69
102.308
96.2245
89.4619
82.0694
74.3192
133.593
133.592
133.589
133.579
133.557
133.516
133.446
133.338
133.179
132.956
132.654
132.255
131.738
131.081
130.26
129.245
128.006
126.507
124.712
122.578
120.063
117.122
113.714
109.8
105.351
100.352
94.809
88.7567
82.2484
75.5118
132.59
132.579
132.552
132.507
132.439
132.341
132.205
132.021
131.779
131.463
131.061
130.555
129.926
129.154
128.215
127.085
125.735
124.136
122.256
120.064
117.525
114.608
111.286
107.536
103.346
98.7166
93.6652
88.2315
82.4684
76.5611
131.568
131.548
131.498
131.418
131.305
131.153
130.955
130.7
130.378
129.976
129.482
128.878
128.149
127.274
126.234
125.007
123.568
121.894
119.958
117.735
115.203
112.339
109.126
105.555
101.623
97.341
92.7316
87.8345
82.6976
77.4694
130.532
130.503
130.431
130.319
130.163
129.96
129.702
129.38
128.985
128.504
127.925
127.234
126.415
125.452
124.327
123.02
121.513
119.785
117.816
115.589
113.086
110.295
107.206
103.818
100.136
96.1746
91.9588
87.525
82.9154
78.249
129.488
129.449
129.358
129.214
129.019
128.768
128.454
128.07
127.607
127.054
126.399
125.631
124.734
123.696
122.5
121.132
119.574
117.812
115.83
113.617
111.162
108.456
105.499
102.292
98.846
95.1768
91.3092
87.2758
83.1124
78.9152
128.441
128.394
128.283
128.11
127.878
127.582
127.218
126.777
126.252
125.634
124.912
124.076
123.114
122.013
120.761
119.345
117.753
115.974
113.996
111.812
109.415
106.804
103.979
100.948
97.7207
94.3157
90.7554
87.0681
83.2842
79.4815
127.397
127.342
127.214
127.014
126.747
126.41
126
125.508
124.928
124.252
123.472
122.578
121.56
120.409
119.113
117.664
116.052
114.268
112.306
110.162
107.832
105.319
102.625
99.7593
96.7343
93.5664
90.2765
86.8888
83.4289
79.9601
126.362
126.301
126.156
125.932
125.633
125.26
124.807
124.269
123.641
122.915
122.084
121.142
120.079
118.887
117.56
116.089
114.468
112.691
110.756
108.658
106.4
103.985
101.417
98.7061
95.8651
92.9092
89.8568
86.7289
83.5467
80.362
125.344
125.276
125.116
124.87
124.543
124.137
123.647
123.068
122.398
121.629
120.756
119.773
118.674
117.453
116.103
114.621
113
111.239
109.336
107.291
105.106
102.786
100.338
97.7703
95.096
92.3288
89.485
86.5823
83.6388
80.697
124.35
124.276
124.103
123.836
123.484
123.048
122.525
121.912
121.205
120.4
119.492
118.477
117.351
116.108
114.745
113.258
111.646
109.907
108.041
106.051
103.938
101.71
99.3735
96.9374
94.4131
91.8133
89.1524
86.4454
83.7076
80.9739
123.385
123.307
123.121
122.837
122.463
122.002
121.45
120.807
120.069
119.234
118.298
117.258
116.111
114.854
113.484
112.001
110.403
108.69
106.864
104.928
102.887
100.746
98.5121
96.1952
93.8052
91.3536
88.8528
86.3157
83.7554
81.2007
122.459
122.376
122.18
121.881
121.487
121.003
120.428
119.759
118.996
118.136
117.178
116.119
114.958
113.693
112.322
110.847
109.267
107.583
105.798
103.917
101.943
99.8825
97.7435
95.5341
93.2638
90.9428
88.5819
86.1924
83.7852
81.3844
121.578
121.491
121.286
120.973
120.563
120.06
119.464
118.775
117.991
117.112
116.136
115.064
113.894
112.625
111.259
109.795
108.236
106.582
104.839
103.009
101.098
99.1126
97.0594
94.9463
92.7821
90.5757
88.3368
86.075
83.7999
81.5314
120.75
120.659
120.447
120.123
119.698
119.18
118.567
117.86
117.06
116.165
115.177
114.096
112.921
111.654
110.294
108.845
107.307
105.684
103.98
102.2
100.347
98.4298
96.4535
94.426
92.3551
90.2488
88.1158
85.9643
83.8028
81.6478
119.984
119.89
119.671
119.336
118.9
118.368
117.742
117.021
116.208
115.302
114.305
113.219
112.042
110.778
109.428
107.994
106.479
104.886
103.219
101.484
99.685
97.8285
95.9206
93.9684
91.9789
89.9595
87.9177
85.861
83.7966
81.7385
119.287
119.19
118.965
118.622
118.176
117.633
116.995
116.264
115.44
114.527
113.524
112.435
111.26
110.001
108.661
107.243
105.75
104.185
102.553
100.859
99.1082
97.3056
95.4577
93.5709
91.6518
89.707
87.7433
85.7672
83.7854
81.8095
118.668
118.569
118.338
117.987
117.532
116.98
116.334
115.594
114.763
113.844
112.838
111.748
110.576
109.324
107.995
106.592
105.119
103.58
101.98
100.322
98.6129
96.8573
95.0611
93.2303
91.371
89.4893
87.5913
85.683
83.7703
81.8628
118.136
118.034
117.798
117.44
116.978
116.419
115.765
115.019
114.183
113.26
112.253
111.164
109.995
108.75
107.432
106.044
104.59
103.074
101.5
99.8742
98.2006
96.4848
94.7321
92.9483
91.1389
89.3097
87.4663
85.614
83.7584
81.9077
117.701
117.596
117.352
116.987
116.518
115.952
115.293
114.542
113.703
112.778
111.77
110.682
109.518
108.279
106.971
105.595
104.157
102.661
101.11
99.5106
97.8664
96.1831
94.4657
92.7197
90.9504
89.1631
87.363
85.5551
83.7444
81.9377
117.375
117.264
117.011
116.639
116.165
115.596
114.932
114.178
113.336
112.41
111.402
110.316
109.155
107.923
106.622
105.258
103.833
102.352
100.82
99.2406
97.6197
95.9618
94.2721
92.5556
90.8174
89.0626
87.2962
85.5228
83.7474
81.9758
117.173
117.038
116.769
116.391
115.914
115.342
114.676
113.92
113.077
112.151
111.144
110.06
108.903
107.675
106.381
105.024
103.608
102.138
100.619
99.054
97.4488
95.8081
94.1369
92.4399
90.7223
88.9888
87.2442
85.4931
83.7399
81.9895
117.155
116.956
116.658
116.274
115.795
115.219
114.551
113.792
112.949
112.022
111.016
109.934
108.779
107.555
106.265
104.914
103.505
102.043
100.532
98.9768
97.382
95.7524
94.0929
92.4084
90.7036
88.9834
87.2522
85.5147
83.7751
82.0376
-50.5696
-30.3222
-11.1552
35.5794
28.1361
16.1056
51.0497
38.9581
27.7433
52.4771
42.0517
34.0058
56.8183
48.528
41.7687
61.2071
54.2965
48.4037
64.4822
58.5997
53.5497
67.0803
62.0546
57.7449
69.2707
64.9378
61.2285
71.1197
67.3405
64.1133
72.6745
69.344
66.507
73.9846
71.0221
68.5036
75.0905
72.4328
70.1767
76.0246
73.6215
71.5838
76.8132
74.625
72.7706
77.4783
75.4726
73.7734
78.0382
76.1886
74.6214
78.5082
76.7925
75.3383
78.901
77.3007
75.9434
79.2279
77.7272
76.4531
79.4983
78.0836
76.8809
79.7209
78.3801
77.2387
79.9024
78.625
77.5358
80.0508
78.8274
77.7824
80.1686
78.9905
77.9826
80.2677
79.1269
78.1492
80.3393
79.2284
78.2754
80.412
79.3239
78.3881
80.446
79.3742
78.4524
80.5151
79.4573
78.542
-2.82548
-2.71803
-1.24789
-0.10854
-0.0758864
0.0187239
0.0834834
0.0626103
0.0784849
0.138278
0.148831
0.114151
0.0974951
0.114841
0.129575
0.107436
0.0648678
0.0375188
0.0438273
0.0668976
0.0735325
0.0474944
-0.00189591
-0.0504984
-0.0706341
-0.0522306
-0.017808
-0.000515441
-0.00296984
-0.00155981
2.33685
-0.592154
0.996935
0.463579
-0.867258
-0.631798
-0.00435282
0.040694
0.0564795
0.157604
0.142346
0.0491807
0.0187486
0.0860262
0.15298
0.124234
0.0500173
0.00142601
0.0163097
0.0677563
0.091924
0.0587472
-0.0125608
-0.0847453
-0.114332
-0.0810453
-0.0191376
0.0105249
0.000889801
-0.00138754
13.4801
5.10975
2.31674
-0.12664
-0.459216
0.939146
1.12487
-0.156488
-0.53807
-0.187605
0.160634
0.0587809
0.0052673
0.13468
0.222897
0.143687
0.00238063
-0.0857714
-0.0470593
0.0727784
0.13898
0.0914246
-0.0147896
-0.124388
-0.17283
-0.121098
-0.0150977
0.0353827
0.0104432
-0.00129639
23.2484
13.3675
7.49541
3.72497
1.98938
1.42955
0.247069
-0.428209
-0.08413
1.08558
1.00143
-0.0809488
-0.468665
-0.269504
0.192092
0.239003
0.00349072
-0.146615
-0.0704289
0.142879
0.22593
0.131304
-0.0324199
-0.200495
-0.282605
-0.204978
-0.0053414
0.0843931
0.0318243
-0.00161173
32.4203
22.6514
15.3315
10.0417
6.4091
3.93952
2.08
1.07928
0.80348
0.810136
0.303881
-0.285878
-0.373102
0.508099
1.04539
0.470827
-0.131871
-0.475265
-0.434405
0.0128804
0.312571
0.210742
-0.0238161
-0.259364
-0.376339
-0.228856
0.0344155
0.173498
0.0730641
-0.00309074
40.4005
31.4706
23.582
17.1509
12.2279
8.58756
5.92035
4.04258
2.77367
1.87194
1.1047
0.51089
0.279532
0.532983
0.537802
0.287563
-0.180982
-0.495357
-0.248818
0.566158
0.753282
0.279091
-0.0711166
-0.398276
-0.633425
-0.568008
-3.60619e-05
0.301536
0.13805
-0.00815117
46.913
39.1039
31.3256
24.4346
18.8115
14.3564
10.8386
8.08925
5.99673
4.42556
3.20558
2.2454
1.60082
1.27058
0.997485
0.655818
0.182306
-0.131267
-0.0253692
0.341832
0.472849
0.286014
-0.0434346
-0.423891
-0.681583
-0.406042
0.373181
0.571129
0.216059
-0.0211885
52.217
45.4826
38.2224
31.3916
25.5102
20.568
16.4317
13.0131
10.2462
8.03371
6.24648
4.8019
3.6973
2.90584
2.28678
1.69005
1.09969
0.68316
0.565738
0.645578
0.657857
0.446877
0.0784555
-0.295888
-0.495989
-0.290193
0.176732
0.409508
0.311939
-0.0622263
56.5437
50.7245
44.138
37.6635
31.8464
26.7371
22.2708
18.4124
15.1324
12.3747
10.0632
8.13916
6.57314
5.32361
4.2949
3.38959
2.59493
1.98335
1.60983
1.411
1.21139
0.882926
0.467627
0.0914873
-0.109119
-0.0226966
0.252069
0.403372
0.268506
-0.30109
60.0745
55.0051
49.1007
43.1151
37.5617
32.5186
27.9566
23.8714
20.2645
17.1169
14.3917
12.0501
10.0598
8.38176
6.95515
5.72077
4.65763
3.78625
3.12251
2.62001
2.16929
1.6869
1.18845
0.753345
0.471581
0.398777
0.462231
0.444734
0.180104
-0.516245
62.9743
58.5135
53.2322
47.7634
42.5675
37.728
33.232
29.091
25.3259
21.9421
18.9277
16.2621
13.9227
11.8818
10.102
8.54512
7.18848
6.02959
5.0648
4.25946
3.54715
2.87301
2.23508
1.67647
1.25066
0.981473
0.810127
0.588162
0.178402
-0.591715
65.3761
61.4116
56.6727
51.6934
46.8792
42.3087
37.9751
33.8954
30.0994
26.6056
23.4176
20.5296
17.9307
15.6051
13.5307
11.6831
10.0436
8.60187
7.34684
6.25254
5.27711
4.3832
3.56144
2.83112
2.21899
1.72999
1.31721
0.879504
0.314348
-0.52126
67.3796
63.8237
59.5481
55.009
50.5632
46.2812
42.1569
38.2075
34.4647
30.9531
27.6851
24.6649
21.8909
19.3568
17.0513
14.9604
13.0707
11.3715
9.85076
8.48898
7.25872
6.13415
5.10373
4.17224
3.34884
2.62825
1.9737
1.31607
0.583952
-0.330362
69.0601
65.8441
61.9623
57.8098
53.7025
49.7026
45.8027
42.0175
38.3773
34.9085
31.6279
28.5454
25.6658
22.9895
20.5132
18.2299
16.1319
14.2107
12.4562
10.8544
9.38678
8.03516
6.78811
5.64253
4.59744
3.64286
2.75018
1.87228
0.961946
-0.0549537
70.4754
67.5447
63.9982
60.1819
56.3781
52.6414
48.9627
45.3533
41.8407
38.4507
35.2016
32.1064
29.1735
26.4081
23.8119
21.3832
19.1187
17.0131
15.0594
13.2478
11.5658
10.0003
8.54115
7.18163
5.91576
4.73202
3.60818
2.51195
1.41284
0.264973
71.6708
68.9812
65.7208
62.1961
58.6611
55.1641
51.6941
48.2593
44.8837
41.5914
38.4006
35.3254
32.3764
29.5614
26.8855
24.3507
21.957
19.7021
17.5821
15.5904
13.7189
11.9581
10.2993
8.73477
7.25665
5.85346
4.5077
3.19667
1.90009
0.593835
72.6819
70.1969
67.1816
63.9096
60.6112
57.3294
54.0518
50.7835
47.5451
44.3583
41.2407
38.2061
35.266
32.4299
29.7047
27.0949
24.603
22.2292
19.9719
17.8277
15.791
13.8553
12.0133
10.2577
8.58019
6.9701
5.41317
3.89246
2.39306
0.90595
73.5375
71.2267
68.4219
65.3689
62.278
59.1878
56.0849
52.9715
49.8652
46.7852
43.7476
40.7657
37.851
35.0135
32.2614
29.6006
27.0354
24.5679
22.1985
19.9257
17.7464
15.656
13.6488
11.7181
9.85609
8.05301
6.29669
4.57329
2.86992
1.18683
74.2609
72.0987
69.4749
66.6118
63.7023
60.7817
57.8357
54.8643
51.882
48.9058
45.95
43.027
40.1479
37.3227
34.5599
31.8665
29.2477
26.7071
24.2465
21.8661
19.5644
17.3384
15.1836
13.0943
11.0634
9.08182
7.13866
5.22146
3.3174
1.43141
74.8716
72.8362
70.368
67.6693
64.9181
62.1468
59.3407
56.4977
53.6298
50.7518
47.8763
45.0146
42.1769
39.3728
36.611
33.8988
31.2419
28.6449
26.1107
23.6406
21.2344
18.8902
16.6047
14.3731
12.1888
10.0434
7.9266
5.82637
3.72903
1.64101
75.3856
73.4584
71.1239
68.5672
65.9537
63.3131
60.6306
57.9026
55.1387
52.3518
49.5528
46.7518
43.9581
41.1807
38.4279
35.707
33.0242
30.3844
27.7912
25.2468
22.7519
20.3055
17.9051
15.5467
13.2242
10.9296
8.65304
6.38223
4.10246
1.81981
75.8168
73.9815
71.7616
69.3273
66.8328
64.3061
61.732
59.1058
56.4353
53.7314
51.0037
48.2609
45.5114
42.7634
40.0248
37.3027
34.6031
31.9314
29.2915
26.686
24.1163
21.5821
19.0816
16.6112
14.1653
11.7363
9.31423
6.8867
4.43795
1.97274
76.1763
74.4189
72.2967
69.9671
67.575
65.1465
62.6667
60.1298
57.5419
54.9124
52.2496
49.561
46.8542
44.1364
41.4151
38.6967
35.9874
33.2924
30.6157
27.9605
25.3283
22.7193
20.1323
17.5639
15.009
12.4602
9.9075
7.33815
4.73574
2.10326
76.475
74.7831
72.7435
70.5029
68.1979
65.8534
63.4546
60.9949
58.479
55.9151
53.3102
50.671
48.0039
45.3155
42.6126
39.9012
37.1872
34.4756
31.7704
29.075
26.3911
23.7192
21.0583
18.4054
15.7555
13.1014
10.4331
7.73762
4.99804
2.21511
76.7191
75.0816
73.111
70.9449
68.7131
66.4393
64.1091
61.715
59.2608
56.7534
54.199
51.6034
48.9721
46.311
43.6263
40.9235
38.2081
35.485
32.758
30.0305
27.3043
24.5802
21.8572
19.1325
16.4012
13.6563
10.8877
8.0822
5.22279
2.30789
76.9205
75.3271
73.4133
71.3084
69.1368
66.9213
64.6477
62.3082
59.9055
57.4457
54.9342
52.3759
49.7757
47.1389
44.471
41.7773
39.0627
36.3318
33.5884
30.8358
28.0757
25.3091
22.5349
19.7505
16.9512
14.1298
11.2763
8.37725
5.41562
2.38675
77.0759
75.5174
73.6483
71.5921
69.4682
67.2992
65.0709
62.775
60.4137
57.9924
55.5156
52.9878
50.4134
47.797
45.1437
42.4582
39.7453
37.0093
34.2538
31.4819
28.6955
25.8952
23.0803
20.2481
17.3938
14.5103
11.5875
8.61194
5.56663
2.44465
77.2076
75.6748
73.8398
71.8204
69.7327
67.5987
65.4047
63.142
60.8123
58.4202
55.9702
53.4659
50.9114
48.311
45.6693
42.9907
40.2796
37.5403
34.7761
31.9899
29.1837
26.358
23.5121
20.6433
17.7468
14.8153
11.8387
8.80339
5.6921
2.49417
77.2886
75.7719
73.9592
71.9649
69.9016
67.7911
65.62
63.3795
61.071
58.6987
56.2666
53.7782
51.2372
48.6477
46.0139
43.3401
40.6306
37.8892
35.1194
32.3239
29.5045
26.6619
23.7951
20.9016
17.9765
15.0123
11.9987
8.92184
5.7644
2.51408
77.3775
75.862
74.0615
72.0822
70.0326
67.9347
65.7757
63.5469
61.2494
58.8872
56.4641
53.9835
51.449
48.8644
46.2339
43.5616
40.8518
38.1083
35.3343
32.5327
29.7052
26.8525
23.9736
21.066
18.1246
15.142
12.1075
9.00638
5.81868
2.52052
)
;

boundaryField
{
    inlet
    {
        type            zeroGradient;
    }
    outlet
    {
        type            fixedValue;
        value           uniform 0;
    }
    flap
    {
        type            zeroGradient;
    }
    upperWall
    {
        type            zeroGradient;
    }
    lowerWall
    {
        type            zeroGradient;
    }
    frontAndBack
    {
        type            empty;
    }
}


// ************************************************************************* //
