/*--------------------------------*- C++ -*----------------------------------*\
  =========                 |
  \\      /  F ield         | OpenFOAM: The Open Source CFD Toolbox
   \\    /   O peration     | Website:  https://openfoam.org
    \\  /    A nd           | Version:  dev
     \\/     M anipulation  |
\*---------------------------------------------------------------------------*/
FoamFile
{
    version     2.0;
    format      ascii;
    class       surfaceScalarField;
    location    "6.3";
    object      phi;
}
// * * * * * * * * * * * * * * * * * * * * * * * * * * * * * * * * * * * * * //

dimensions      [0 3 -1 0 0 0 0];

internalField   nonuniform List<scalar> 
5457
(
0.198418
0.00158236
0.19648
0.00193733
0.194192
0.00228802
0.191509
0.0026835
0.188428
0.00308111
0.184951
0.00347666
0.181073
0.00387846
0.176779
0.00429389
0.172051
0.00472809
0.166865
0.00518509
0.161197
0.00566837
0.155016
0.0061809
0.148291
0.00672484
0.14099
0.00730122
0.133081
0.00790939
0.124534
0.00854635
0.115329
0.0092058
0.105452
0.00987711
0.0949075
0.010544
0.083724
0.0111835
0.0719594
0.0117646
0.059711
0.0122483
0.0471223
0.0125888
0.034382
0.0127403
0.0216869
0.0126951
0.0090366
0.0126503
-0.00291685
0.0119535
-0.00847244
0.00555559
-0.00804314
-0.000429301
-0.00804314
0.199928
0.00165418
0.199176
0.00268973
0.197965
0.0034989
0.196332
0.00431661
0.194272
0.00514107
0.191782
0.00596663
0.188855
0.00680533
0.185478
0.00767064
0.181633
0.00857288
0.177298
0.00952037
0.172446
0.0105204
0.167048
0.0115791
0.161071
0.0127015
0.154482
0.01389
0.147248
0.0151444
0.139335
0.0164594
0.130717
0.0178236
0.121377
0.0192172
0.111312
0.0206088
0.100542
0.0219533
0.0891174
0.0231891
0.0771298
0.024236
0.0647237
0.0249948
0.0521162
0.0253479
0.0396557
0.0251556
0.0281056
0.0242004
0.0185949
0.0214641
0.00879698
0.0153535
0.00118338
0.0071843
-0.00685976
0.199781
0.0018736
0.199087
0.00338353
0.197946
0.00463978
0.196409
0.00585316
0.194483
0.00706712
0.192164
0.00828559
0.189447
0.00952266
0.186322
0.010796
0.182774
0.0121207
0.178785
0.0135091
0.174333
0.0149724
0.169392
0.0165201
0.163934
0.01816
0.157927
0.0198971
0.151338
0.0217325
0.144137
0.023661
0.136291
0.0256691
0.127778
0.0277311
0.118581
0.0298057
0.108703
0.0318312
0.0981709
0.033721
0.0870485
0.0353584
0.0754517
0.0365916
0.0635745
0.0372251
0.0517325
0.0369975
0.0403972
0.0355358
0.0297389
0.0321224
0.0191659
0.0259264
0.00959755
0.0167527
0.00273779
0.199703
0.00217051
0.199008
0.0040788
0.197887
0.00576025
0.196376
0.007364
0.194488
0.00895515
0.192223
0.0105515
0.189575
0.0121703
0.186539
0.0138319
0.183105
0.015555
0.179258
0.0173555
0.174983
0.0192473
0.170261
0.0212426
0.165069
0.0233515
0.159385
0.0255812
0.153184
0.0279342
0.146439
0.0304062
0.139124
0.0329834
0.131217
0.0356383
0.122698
0.0383248
0.113557
0.0409721
0.1038
0.0434779
0.0934572
0.045701
0.0825959
0.0474529
0.071333
0.048488
0.059841
0.0484896
0.0483168
0.0470599
0.0368108
0.0436285
0.0251877
0.0375495
0.0133355
0.0286049
0.0160733
0.199667
0.00250308
0.198964
0.00478203
0.197863
0.00686152
0.196381
0.00884561
0.194533
0.0108039
0.192318
0.012766
0.189734
0.014754
0.186776
0.0167904
0.183434
0.0188966
0.179699
0.0210911
0.175556
0.0233901
0.170991
0.0258076
0.165987
0.0283552
0.160527
0.0310414
0.154592
0.0338696
0.148161
0.0368366
0.141215
0.0399292
0.133734
0.0431198
0.125697
0.0463617
0.117088
0.0495816
0.107894
0.0526715
0.0981149
0.0554801
0.0877648
0.057803
0.0768787
0.0593741
0.0655086
0.0598597
0.0537078
0.0588607
0.0414537
0.0558825
0.0285875
0.0504157
0.0148522
0.0423402
0.0309255
0.199653
0.00285027
0.198949
0.00548605
0.197871
0.00793941
0.196427
0.0102897
0.194627
0.0126038
0.192473
0.0149195
0.189964
0.0172635
0.187093
0.0196611
0.183854
0.0221358
0.180237
0.0247083
0.17623
0.0273965
0.171822
0.0302161
0.166997
0.0331799
0.161741
0.0362972
0.156039
0.0395724
0.149872
0.0430032
0.143224
0.0465774
0.136074
0.0502692
0.128402
0.054034
0.120182
0.0578013
0.111388
0.061466
0.101989
0.0648791
0.0919546
0.0678374
0.0812537
0.0700751
0.0698537
0.0712596
0.0577163
0.0709981
0.0447601
0.0688387
0.0308487
0.0643272
0.0158729
0.057316
0.0467984
0.19965
0.00320019
0.198954
0.006182
0.197905
0.00898898
0.196505
0.0116894
0.194763
0.0143459
0.192681
0.0170014
0.190257
0.019687
0.187488
0.0224306
0.184366
0.0252577
0.180883
0.0281911
0.177029
0.0312503
0.172793
0.0344526
0.168161
0.0378119
0.163119
0.0413387
0.157653
0.0450386
0.151746
0.0489107
0.145378
0.0529449
0.138528
0.0571187
0.13117
0.0613924
0.123269
0.0657022
0.114782
0.0699528
0.105654
0.0740071
0.0958163
0.0776754
0.0851856
0.0807058
0.0736675
0.0827778
0.0611606
0.083505
0.0475544
0.0824449
0.0327579
0.0791236
0.0167825
0.0732915
0.0635808
0.199655
0.00354552
0.198975
0.00686208
0.197959
0.0100047
0.19661
0.013038
0.194934
0.0160219
0.192934
0.0190018
0.190608
0.022013
0.187953
0.0250857
0.184963
0.0282476
0.181631
0.031523
0.177948
0.0349336
0.173902
0.0384978
0.169483
0.0422313
0.164676
0.046146
0.159465
0.0502494
0.153832
0.0545429
0.147757
0.0590201
0.141213
0.0636635
0.134164
0.0684407
0.126567
0.0732991
0.118362
0.0781582
0.109469
0.0829001
0.0997858
0.0873584
0.0891864
0.0913053
0.077524
0.0944402
0.0646461
0.0963829
0.0504162
0.0966748
0.0347671
0.0947727
0.0177893
0.0902693
0.0813701
0.199664
0.00388133
0.199006
0.00751986
0.19803
0.0109809
0.196739
0.0143294
0.195137
0.0176238
0.193227
0.0209116
0.191009
0.0242307
0.188481
0.0276142
0.185637
0.0310914
0.182472
0.0346886
0.178976
0.0384289
0.175141
0.0423326
0.170956
0.0464171
0.166405
0.0506963
0.161474
0.0551804
0.156143
0.0598743
0.150387
0.0647764
0.144174
0.0698764
0.137462
0.0751523
0.130196
0.0805658
0.122298
0.0860561
0.113666
0.0915316
0.104167
0.0968572
0.0936326
0.10184
0.0818631
0.10621
0.0686476
0.109598
0.0538002
0.111522
0.0372351
0.111338
0.0190826
0.108422
0.100453
0.199677
0.00420409
0.199047
0.00815006
0.198116
0.0119122
0.196888
0.0155576
0.195367
0.0191447
0.193556
0.0227221
0.191456
0.0263305
0.189066
0.0300049
0.186381
0.0337765
0.183396
0.0376733
0.180105
0.04172
0.176499
0.0459387
0.172567
0.0503486
0.168297
0.0549663
0.163673
0.0598051
0.158673
0.0648744
0.15327
0.070179
0.147429
0.0757173
0.141101
0.0814801
0.13422
0.0874467
0.126696
0.0935807
0.118405
0.0998228
0.109182
0.106079
0.0988178
0.112205
0.0870504
0.117977
0.0735875
0.123061
0.0581461
0.126964
0.0405499
0.128934
0.0209002
0.128072
0.121353
0.199693
0.00451115
0.199095
0.00874841
0.198213
0.0127937
0.197053
0.0167172
0.19562
0.020578
0.193916
0.0244258
0.191943
0.0283034
0.189701
0.0322477
0.187186
0.0362914
0.184395
0.0404641
0.181323
0.044792
0.177963
0.049299
0.174305
0.0540064
0.170338
0.0589335
0.166046
0.0640971
0.161408
0.0695117
0.156398
0.0751892
0.150977
0.0811384
0.145093
0.0873641
0.138674
0.093866
0.131619
0.100636
0.123789
0.107653
0.114994
0.114874
0.104981
0.122218
0.0934163
0.129541
0.0798948
0.136583
0.0639646
0.142894
0.0452318
0.147667
0.0236098
0.149694
0.144963
0.199711
0.00480044
0.199148
0.00931139
0.19832
0.0136213
0.197234
0.0178034
0.195894
0.021918
0.194304
0.0260161
0.192465
0.0301418
0.190379
0.0343337
0.188045
0.038626
0.185459
0.0430495
0.182619
0.0476319
0.17952
0.0523986
0.176153
0.057373
0.17251
0.0625769
0.168576
0.0680309
0.164333
0.0737548
0.159754
0.0797677
0.154804
0.0860888
0.14943
0.092738
0.14356
0.0997361
0.137091
0.107105
0.129877
0.114866
0.121714
0.123037
0.112312
0.13162
0.10127
0.140584
0.0880411
0.149811
0.0719183
0.159017
0.0520817
0.167503
0.0278825
0.173893
0.172845
0.19973
0.00507036
0.199205
0.00983613
0.198435
0.0143912
0.197427
0.018812
0.196185
0.02316
0.194714
0.0274872
0.193016
0.0318391
0.191095
0.0362555
0.188949
0.0407718
0.186579
0.0454197
0.183982
0.0502283
0.181157
0.0552243
0.178097
0.0604327
0.174796
0.0658779
0.171243
0.0715838
0.167423
0.0775748
0.163314
0.0838769
0.158884
0.090519
0.154087
0.0975349
0.148857
0.104965
0.143101
0.112862
0.136679
0.121288
0.129391
0.130325
0.120939
0.140072
0.110879
0.150644
0.0985376
0.162153
0.0828944
0.17466
0.0624285
0.187969
0.0351194
0.201202
0.207965
0.199751
0.00531963
0.199267
0.0103203
0.198557
0.0151006
0.19763
0.0197395
0.19649
0.0242998
0.195143
0.0288344
0.193592
0.0333898
0.191841
0.0380068
0.189891
0.0427216
0.187744
0.0475668
0.1854
0.0525722
0.182859
0.0577654
0.180118
0.0631731
0.177175
0.0688212
0.174022
0.0747364
0.17065
0.0809468
0.167043
0.0874839
0.163178
0.0943845
0.159019
0.101694
0.154516
0.109468
0.149594
0.117784
0.144142
0.12674
0.137991
0.136476
0.130882
0.147181
0.122401
0.159125
0.111853
0.172701
0.0980077
0.188505
0.0785253
0.207452
0.0486532
0.231074
0.256618
0.199772
0.00554731
0.19933
0.0107622
0.198684
0.015747
0.197841
0.020583
0.196806
0.0253341
0.195587
0.030054
0.194187
0.0347898
0.192611
0.039583
0.190862
0.0444703
0.188944
0.0494847
0.18686
0.0546565
0.184611
0.060014
0.1822
0.0655845
0.179626
0.071395
0.176888
0.0774739
0.173983
0.0838517
0.170904
0.0905633
0.167638
0.0976505
0.164166
0.105165
0.16046
0.113175
0.156475
0.121769
0.152145
0.13107
0.14737
0.141251
0.141991
0.152559
0.135746
0.165371
0.128162
0.180285
0.118298
0.198369
0.103904
0.221846
0.0776669
0.257311
0.334285
0.00373906
-0.00373906
0.00726054
-0.00352148
0.0101157
-0.00285511
0.0122953
-0.00217963
0.0138943
-0.00159897
0.0150205
-0.00112627
0.0157737
-0.000753227
0.0162417
-0.00046795
0.0164994
-0.000257735
0.0166093
-0.000109867
0.0166236
-1.42848e-05
0.0165764
4.72019e-05
0.0164994
7.69918e-05
0.0164145
8.48464e-05
0.0163363
7.82095e-05
0.0162742
6.21606e-05
0.0162329
4.1314e-05
0.0162128
2.01092e-05
0.0162092
3.55444e-06
0.0162123
-3.05104e-06
0.0162106
1.6219e-06
0.0161932
1.74267e-05
0.0161527
4.05323e-05
0.016085
6.76531e-05
0.0159878
9.72208e-05
0.0158585
0.000129345
0.0156953
0.000163195
0.015498
0.000197238
0.0152846
0.000213408
0.000165165
0.00346098
-0.00720004
0.00675724
-0.00681774
0.00949683
-0.0055947
0.0116752
-0.00435798
0.0133807
-0.00330446
0.014708
-0.00245363
0.0157413
-0.00178647
0.0165517
-0.00127839
0.0171979
-0.00090394
0.0177258
-0.000637712
0.0181676
-0.000456134
0.0185522
-0.000337402
0.0188978
-0.000268606
0.0192198
-0.000237174
0.0195301
-0.000232022
0.019836
-0.000243786
0.0201415
-0.00026417
0.0204472
-0.000285591
0.0207518
-0.00030108
0.0210535
-0.000304711
0.0213476
-0.000292495
0.0216281
-0.000263068
0.0218896
-0.000220959
0.0221294
-0.000172092
0.0223458
-0.000119242
0.0225353
-6.01343e-05
0.0226916
6.83875e-06
0.0228079
8.10229e-05
0.0228979
0.000123417
0.000111331
0.00292863
-0.0101287
0.0056325
-0.00952162
0.00784373
-0.00780592
0.00959149
-0.00610574
0.0109622
-0.00467515
0.0120363
-0.00352772
0.0128831
-0.00263326
0.0135603
-0.00195568
0.0141151
-0.00145869
0.0145831
-0.00110569
0.0149897
-0.000862745
0.0153545
-0.000702262
0.0156903
-0.000604329
0.0160057
-0.000552604
0.0163073
-0.00053367
0.0165995
-0.000535964
0.0168851
-0.000549742
0.0171658
-0.000566298
0.0174422
-0.000577469
0.0177135
-0.000575998
0.0179774
-0.000556424
0.0182317
-0.000517338
0.0184758
-0.000465072
0.0187118
-0.000408144
0.0189432
-0.000350563
0.0191709
-0.000287836
0.0193895
-0.000211801
0.0195989
-0.0001284
0.0197871
-6.47213e-05
-1.75839e-05
0.00234153
-0.0124702
0.00434192
-0.011522
0.00590563
-0.00936963
0.00711911
-0.00731923
0.00806206
-0.0056181
0.00879525
-0.00426091
0.00936935
-0.00320735
0.0098258
-0.00241214
0.0101987
-0.00183159
0.0105124
-0.0014194
0.0107817
-0.00113207
0.0110172
-0.000937719
0.0112262
-0.000813315
0.0114131
-0.000739509
0.0115811
-0.000701667
0.0117322
-0.000687082
0.0118684
-0.000685938
0.0119917
-0.000689593
0.0121037
-0.000689502
0.0122053
-0.000677616
0.0122958
-0.000646905
0.0123731
-0.00059465
0.0124386
-0.000530521
0.0124974
-0.000466957
0.0125562
-0.000409358
0.0126184
-0.000350091
0.0126749
-0.000268215
0.0127181
-0.000171653
0.0127505
-9.71261e-05
-2.33916e-05
0.00165634
-0.0141265
0.00286816
-0.0127338
0.00371473
-0.0102162
0.00433865
-0.00794315
0.00480202
-0.00608147
0.0051433
-0.00460219
0.00539156
-0.00345561
0.00557026
-0.00259084
0.00570163
-0.00196296
0.00579888
-0.00151665
0.00586426
-0.00119745
0.00589963
-0.000973084
0.00590776
-0.000821447
0.00588922
-0.000720967
0.00584563
-0.000658077
0.00577798
-0.000619439
0.00568894
-0.000596889
0.00558242
-0.000583081
0.00546245
-0.000569528
0.00533214
-0.000547305
0.00519197
-0.000506739
0.00503789
-0.000440564
0.00486967
-0.000362301
0.00469601
-0.000293295
0.00452387
-0.000237223
0.00436256
-0.000188783
0.00419308
-9.87281e-05
0.00396119
6.02344e-05
0.00367243
0.000191635
0.000191704
0.000865081
-0.0149916
0.00119874
-0.0130675
0.00127758
-0.010295
0.00127317
-0.00793873
0.00120505
-0.00601335
0.00109538
-0.00449252
0.000954888
-0.00331512
0.000791142
-0.00242709
0.000613549
-0.00178537
0.000426025
-0.00132913
0.00022122
-0.000992642
-1.16702e-05
-0.000740194
-0.000274505
-0.000558612
-0.000557301
-0.000438171
-0.000857927
-0.000357452
-0.00117489
-0.000302472
-0.00150415
-0.000267627
-0.00184147
-0.00024577
-0.00218289
-0.000228101
-0.0025273
-0.0002029
-0.00287899
-0.000155043
-0.00325239
-6.71658e-05
-0.00367586
6.11645e-05
-0.00415157
0.000182417
-0.00463315
0.00024436
-0.00508224
0.0002603
-0.00546037
0.000279409
-0.0057253
0.000325164
-0.00590131
0.000367642
0.00033326
-0.000106496
-0.0148851
-0.000676321
-0.0124977
-0.0013953
-0.00957606
-0.00210254
-0.00723149
-0.00278015
-0.00533575
-0.00341724
-0.00385543
-0.00401811
-0.00271424
-0.00459285
-0.00185235
-0.00514019
-0.00123803
-0.0056587
-0.000810617
-0.00615609
-0.000495256
-0.00664026
-0.000256026
-0.00712386
-7.50103e-05
-0.00761925
5.72209e-05
-0.00812302
0.000146318
-0.00862946
0.000203965
-0.0091421
0.000245011
-0.00966727
0.000279401
-0.0102073
0.000311905
-0.0107557
0.000345505
-0.0112938
0.000383125
-0.0117877
0.000426705
-0.012198
0.000471487
-0.0125272
0.000511566
-0.0128104
0.0005276
-0.0130659
0.000515801
-0.0132914
0.000504894
-0.0134814
0.000515142
-0.0136319
0.000518178
0.000484566
-0.00112346
-0.0137617
-0.00273908
-0.010882
-0.00434696
-0.00796818
-0.00586014
-0.00571831
-0.0072282
-0.00396769
-0.00844243
-0.00264121
-0.00951946
-0.00163721
-0.0105083
-0.000863545
-0.0114605
-0.000285845
-0.0123819
0.000110784
-0.0132261
0.000348971
-0.0139645
0.000482362
-0.0146044
0.000564971
-0.0151654
0.00061816
-0.0156743
0.000655268
-0.0161509
0.000680547
-0.0165994
0.000693478
-0.0170196
0.00069958
-0.0174153
0.0007076
-0.0177947
0.000724912
-0.0181646
0.000753015
-0.0185233
0.000785486
-0.0188612
0.000809344
-0.0191618
0.000812122
-0.0194185
0.000784391
-0.0196378
0.000735018
-0.0198247
0.000691815
-0.0199801
0.000670539
-0.0201137
0.000651826
0.000626417
-0.00231825
-0.0114434
-0.00506593
-0.00813436
-0.00771306
-0.00532105
-0.010131
-0.00330035
-0.0122817
-0.00181698
-0.0141497
-0.000773239
-0.0157434
-4.3462e-05
-0.0170316
0.000424588
-0.0180261
0.000708722
-0.0188035
0.000888181
-0.0194555
0.00100094
-0.0200394
0.00106631
-0.0205714
0.00109693
-0.0210632
0.00110997
-0.0215247
0.00111674
-0.0219616
0.00111742
-0.0223758
0.00110772
-0.0227662
0.00109001
-0.0231342
0.00107559
-0.0234865
0.00107717
-0.023831
0.00109755
-0.0241693
0.00112375
-0.0244919
0.00113198
-0.024781
0.00110122
-0.0250236
0.00102698
-0.0252199
0.000931294
-0.025378
0.00084996
-0.0255079
0.000800377
-0.0256261
0.000770036
0.000755627
-0.00375502
-0.0076884
-0.00777269
-0.00411669
-0.0115169
-0.00157687
-0.0147668
-5.04137e-05
-0.0173587
0.000774869
-0.0193474
0.00121548
-0.020844
0.00145317
-0.0219992
0.00157977
-0.0229395
0.00164902
-0.0237286
0.00167724
-0.0244058
0.00167816
-0.0249968
0.00165734
-0.0255223
0.00162246
-0.0260004
0.00158799
-0.0264467
0.00156309
-0.0268711
0.0015418
-0.0272744
0.00151098
-0.027652
0.00146769
-0.0280033
0.00142684
-0.0283359
0.0014098
-0.0286617
0.00142338
-0.0289861
0.00144812
-0.0293002
0.00144602
-0.0295829
0.00138396
-0.0298151
0.0012592
-0.0299924
0.00110855
-0.030126
0.000983532
-0.0302341
0.00090856
-0.0303372
0.00087305
0.000868737
-0.00582445
-0.00186395
-0.0113347
0.00139357
-0.0156966
0.00278498
-0.0189893
0.00324237
-0.0214883
0.00327387
-0.023437
0.00316414
-0.024977
0.00299321
-0.0262041
0.00280686
-0.0271873
0.00263216
-0.027994
0.002484
-0.0286764
0.0023605
-0.0292653
0.00224624
-0.0297799
0.00213714
-0.0302403
0.00204834
-0.0306685
0.00199129
-0.031079
0.0019523
-0.0314709
0.00190288
-0.0318341
0.00183089
-0.0321644
0.00175716
-0.0324726
0.00171799
-0.0327775
0.00172832
-0.0330901
0.00176067
-0.0334012
0.00175712
-0.0336836
0.00166635
-0.0339086
0.00148427
-0.034067
0.00126692
-0.0341752
0.00109172
-0.0342615
0.000994912
-0.0343486
0.000960072
0.000964935
-0.00785907
0.00599512
-0.0142348
0.00776928
-0.0189553
0.00750553
-0.022511
0.006798
-0.0252044
0.00596726
-0.0272331
0.00519284
-0.0287891
0.00454926
-0.0300048
0.00402253
-0.0309629
0.00359033
-0.0317383
0.00325937
-0.0323932
0.00301543
-0.0329591
0.00281216
-0.0334468
0.00262478
-0.0338742
0.00247575
-0.0342724
0.00238951
-0.0346636
0.00234353
-0.0350437
0.00228292
-0.0353913
0.00217851
-0.0356953
0.00206113
-0.0359711
0.00199382
-0.0362499
0.00200715
-0.0365517
0.00206244
-0.0368665
0.00207193
-0.0371564
0.00195627
-0.0373782
0.00170606
-0.0375153
0.00140401
-0.0375926
0.00116905
-0.0376535
0.00105579
-0.0377236
0.00103012
0.00104428
-0.00964618
0.0156413
-0.0173483
0.0154714
-0.0226807
0.0128379
-0.0263722
0.0104895
-0.0290216
0.00861674
-0.0309317
0.00710293
-0.0323616
0.00597916
-0.0334734
0.00513433
-0.034334
0.00445092
-0.0350186
0.00394396
-0.0356082
0.00360501
-0.0361324
0.00333632
-0.0365781
0.00307052
-0.0369535
0.00285118
-0.0373053
0.00274126
-0.0376715
0.00270975
-0.0380427
0.00265412
-0.0383769
0.00251274
-0.0386485
0.00233273
-0.0388802
0.00222546
-0.0391242
0.00225119
-0.0394156
0.00235383
-0.0397427
0.00239903
-0.0400511
0.00226464
-0.0402749
0.00192988
-0.0403858
0.00151489
-0.0404214
0.00120468
-0.0404498
0.00108415
-0.040503
0.00108331
0.00110857
-0.0128212
0.0284625
-0.0222137
0.0248639
-0.0275344
0.0181586
-0.0307517
0.0137067
-0.0330576
0.0109227
-0.0345988
0.00864412
-0.0357113
0.00709165
-0.0366233
0.00604633
-0.0373228
0.00515046
-0.0378532
0.0044743
-0.0383386
0.00409046
-0.0388137
0.00381134
-0.0392099
0.00346681
-0.0395088
0.00315004
-0.0397887
0.00302115
-0.0401234
0.00304448
-0.0404959
0.00302656
-0.0408253
0.00284219
-0.0410576
0.00256505
-0.0412262
0.00239402
-0.0414208
0.00244583
-0.0417017
0.00263467
-0.0420531
0.00275046
-0.0423956
0.00260719
-0.0426295
0.00216374
-0.0427061
0.00159147
-0.0426814
0.00118
-0.0426654
0.00106816
-0.0427046
0.00112251
0.00116425
-0.0182776
0.0467401
-0.0296487
0.036235
-0.0342297
0.0227396
-0.0357178
0.0151948
-0.0373647
0.0125696
-0.0381891
0.00946847
-0.0387151
0.00761766
-0.0394039
0.00673516
-0.0399547
0.00570128
-0.0402514
0.00477099
-0.0405699
0.00440894
-0.0410001
0.00424153
-0.0413535
0.00382025
-0.0415455
0.00334208
-0.0417133
0.00318887
-0.0420121
0.00334331
-0.0424109
0.00342538
-0.0427568
0.00318811
-0.0429407
0.00274887
-0.0430127
0.00246603
-0.0431315
0.00256467
-0.0434001
0.00290324
-0.0437925
0.00314294
-0.0441917
0.00300634
-0.0444479
0.0024199
-0.0444779
0.0016215
-0.0443618
0.00106397
-0.0442815
0.000987799
-0.044315
0.00115606
0.00122868
0.207447
0.00576006
0.207034
0.0111748
0.206432
0.0163495
0.205647
0.0213674
0.204688
0.0262933
0.203561
0.0311814
0.202272
0.0360792
0.200826
0.0410286
0.19923
0.0460664
0.197489
0.0512259
0.195608
0.0565372
0.193593
0.0620287
0.19145
0.0677278
0.189183
0.0736618
0.186798
0.0798593
0.184298
0.0863516
0.181687
0.0931747
0.178965
0.100372
0.176135
0.107996
0.173193
0.116117
0.170135
0.124826
0.166957
0.134248
0.163654
0.144554
0.160227
0.155987
0.156697
0.1689
0.15316
0.183823
0.149977
0.201551
0.148824
0.222999
0.160481
0.245654
0.258849
0.235917
0.21249
0.00595246
0.212118
0.0115476
0.211574
0.016893
0.210868
0.0220732
0.210008
0.0271536
0.209
0.0321888
0.207854
0.0372262
0.206574
0.0423076
0.205171
0.0474699
0.203651
0.0527458
0.202023
0.058165
0.200297
0.0637554
0.198481
0.0695436
0.196586
0.0755562
0.194625
0.0818207
0.192609
0.0883672
0.190554
0.0952298
0.188477
0.102449
0.186398
0.110074
0.184348
0.118168
0.182365
0.126809
0.180511
0.136102
0.178885
0.14618
0.177657
0.157214
0.17715
0.169407
0.178016
0.182957
0.18167
0.197897
0.190712
0.213957
0.206148
0.230218
0.245758
0.219239
0.217658
0.00612238
0.217329
0.0118766
0.21685
0.0173716
0.21623
0.0226929
0.215478
0.0279059
0.214602
0.0330653
0.21361
0.0382182
0.212511
0.0434061
0.211316
0.0486651
0.210034
0.0540272
0.208678
0.0595211
0.20726
0.0651733
0.205795
0.0710091
0.204298
0.077053
0.202789
0.0833303
0.201288
0.0898678
0.199823
0.0966951
0.198425
0.103846
0.197138
0.111362
0.196016
0.119289
0.195138
0.127687
0.194617
0.136623
0.194622
0.146174
0.195419
0.156418
0.197415
0.167411
0.201223
0.179149
0.207611
0.191509
0.217242
0.204326
0.229839
0.21762
0.228813
0.246784
0.222951
0.00626782
0.22267
0.0121578
0.222262
0.0177798
0.221736
0.0232191
0.2211
0.0285414
0.220365
0.0338007
0.219539
0.0390438
0.218634
0.044311
0.217662
0.0496376
0.216635
0.0550543
0.215567
0.0605883
0.214476
0.0662642
0.213381
0.0721049
0.212302
0.0781321
0.211264
0.0843674
0.2103
0.0908325
0.209444
0.0975509
0.208743
0.104547
0.208255
0.11185
0.208057
0.119488
0.208251
0.127493
0.208978
0.135896
0.210431
0.144722
0.212872
0.153976
0.21665
0.163633
0.222183
0.173616
0.229922
0.18377
0.240438
0.19381
0.254651
0.203407
0.21031
0.273154
0.228374
0.00638693
0.228144
0.0123878
0.227812
0.0181123
0.227386
0.0236454
0.226875
0.0290521
0.22629
0.0343858
0.225641
0.0396922
0.224942
0.0450106
0.224205
0.0503748
0.223445
0.0558137
0.222681
0.0613526
0.221931
0.0670136
0.22122
0.0728166
0.220572
0.0787796
0.22002
0.0849194
0.219601
0.0912519
0.219359
0.0977925
0.219351
0.104556
0.219645
0.111555
0.22033
0.118803
0.221519
0.126304
0.223356
0.134059
0.226027
0.142051
0.229763
0.150241
0.234842
0.158553
0.241596
0.166863
0.250401
0.174965
0.261706
0.182505
0.275984
0.189129
0.193752
0.292543
0.233929
0.006478
0.233754
0.0125633
0.233502
0.0183644
0.233182
0.0239656
0.232803
0.0294308
0.232376
0.0348123
0.231914
0.0401544
0.23143
0.0454951
0.230938
0.0508662
0.230457
0.0562946
0.230007
0.0618032
0.229609
0.0674113
0.229291
0.073135
0.229082
0.0789883
0.229019
0.0849827
0.229143
0.0911274
0.229506
0.0974294
0.230169
0.103893
0.231206
0.110518
0.232709
0.1173
0.234788
0.124224
0.237582
0.131266
0.241252
0.138381
0.245992
0.145501
0.252023
0.152523
0.259586
0.1593
0.268924
0.165626
0.280217
0.171213
0.29356
0.175786
0.178833
0.308478
0.23962
0.00653957
0.239502
0.0126813
0.239334
0.0185322
0.239125
0.0241746
0.238884
0.0296714
0.238623
0.0350733
0.238355
0.0404229
0.238093
0.0457565
0.237856
0.0511037
0.237661
0.0564893
0.237531
0.0619332
0.237491
0.0674515
0.237569
0.0730568
0.237799
0.0787582
0.23822
0.084562
0.238877
0.0904708
0.239822
0.0964837
0.24112
0.102595
0.242845
0.108794
0.245083
0.115061
0.247939
0.121369
0.251532
0.127673
0.255997
0.133915
0.261484
0.140013
0.26815
0.145857
0.276144
0.151305
0.285587
0.156183
0.296525
0.160275
0.308946
0.163365
0.165185
0.322594
0.245448
0.00657036
0.24539
0.0127396
0.24531
0.018612
0.245217
0.0242682
0.245119
0.0297689
0.245029
0.0351633
0.24496
0.040492
0.244927
0.0457892
0.244949
0.0510822
0.245045
0.0563933
0.245239
0.0617395
0.245557
0.0671335
0.246029
0.072584
0.246692
0.078096
0.247583
0.0836702
0.248751
0.0893033
0.250247
0.0949875
0.252133
0.100709
0.254479
0.106448
0.257364
0.112176
0.260878
0.117854
0.26512
0.123432
0.270193
0.128842
0.276205
0.134001
0.283256
0.138807
0.291426
0.143135
0.300763
0.146846
0.311257
0.149782
0.322839
0.151783
0.152717
0.335307
0.251418
0.00656935
0.251422
0.0127361
0.251432
0.0186013
0.251458
0.0242429
0.251507
0.0297196
0.251592
0.0350784
0.251726
0.0403579
0.251925
0.0455898
0.252208
0.0507993
0.252596
0.0560056
0.253112
0.0612231
0.253785
0.0664611
0.254644
0.0717247
0.255725
0.0770147
0.257068
0.0823272
0.258718
0.0876538
0.260725
0.0929809
0.263145
0.098289
0.266041
0.103552
0.269482
0.108735
0.27354
0.113796
0.278293
0.118679
0.283815
0.12332
0.290176
0.127641
0.297432
0.13155
0.305618
0.134949
0.314735
0.137729
0.324738
0.139779
0.335528
0.140993
0.141312
0.346933
0.257532
0.00653581
0.257599
0.0126694
0.257702
0.018498
0.257849
0.0240965
0.258047
0.0295211
0.258309
0.0348164
0.258648
0.0400188
0.259081
0.0451576
0.259625
0.0502553
0.260302
0.0553286
0.261136
0.060389
0.262154
0.0654428
0.263387
0.0704917
0.264869
0.0755328
0.266637
0.0805586
0.268735
0.0855567
0.271206
0.0905092
0.274102
0.0953929
0.277476
0.100178
0.281384
0.104827
0.285882
0.109297
0.291026
0.113535
0.296865
0.117481
0.303439
0.121066
0.310773
0.124217
0.318869
0.126854
0.327699
0.128899
0.337199
0.130278
0.347265
0.130927
0.130823
0.357755
0.263794
0.00646925
0.263925
0.0125386
0.264122
0.018301
0.264391
0.0238277
0.264739
0.0291723
0.265179
0.0343768
0.265723
0.039475
0.266386
0.0444939
0.267188
0.0494534
0.268149
0.0543678
0.269292
0.0592458
0.270644
0.0640909
0.272234
0.0689021
0.274093
0.0736735
0.276257
0.0783948
0.278763
0.0830506
0.281651
0.0876207
0.284965
0.0920797
0.288746
0.0963968
0.293038
0.100535
0.297882
0.104453
0.303315
0.108103
0.309365
0.111431
0.316049
0.114382
0.323369
0.116896
0.331307
0.118916
0.339819
0.120387
0.348835
0.121262
0.358256
0.121505
0.121116
0.367963
0.270207
0.00636951
0.270402
0.0123436
0.270693
0.0180101
0.271084
0.0234366
0.271583
0.0286737
0.272199
0.0337606
0.272945
0.0387289
0.273836
0.0436027
0.27489
0.0483997
0.276126
0.0531318
0.277566
0.0578052
0.279236
0.0624213
0.281161
0.0669766
0.283372
0.0714633
0.285898
0.0758687
0.288772
0.0801762
0.292028
0.0843644
0.295701
0.0884075
0.299822
0.0922754
0.304423
0.0959338
0.309532
0.0993445
0.315169
0.102466
0.321347
0.105254
0.328065
0.107664
0.335309
0.109651
0.34305
0.111175
0.351237
0.1122
0.3598
0.112699
0.368651
0.112654
0.112077
0.377689
0.276774
0.00623668
0.277033
0.0120844
0.277417
0.0176258
0.27793
0.0229241
0.278576
0.0280269
0.279366
0.0329708
0.280311
0.0377845
0.281423
0.0424899
0.282721
0.0471024
0.284221
0.0516316
0.285944
0.0560819
0.287913
0.0604526
0.290151
0.0647387
0.292683
0.0689308
0.295537
0.0730153
0.298738
0.076975
0.302314
0.0807885
0.30629
0.0844312
0.31069
0.087875
0.315535
0.091089
0.32084
0.0940401
0.326612
0.0966935
0.332852
0.0990141
0.339548
0.100968
0.346677
0.102523
0.354201
0.103651
0.36207
0.104332
0.370217
0.104552
0.378565
0.104306
0.103613
0.38703
0.283498
0.00607114
0.283821
0.0117619
0.284297
0.0171493
0.284929
0.0222923
0.285721
0.0272351
0.28668
0.0320115
0.287817
0.0366478
0.289143
0.0411635
0.290674
0.0455718
0.292425
0.0498806
0.294414
0.0540925
0.296661
0.0582055
0.299187
0.0622134
0.302011
0.0661061
0.305157
0.0698699
0.308644
0.0734876
0.312494
0.0769392
0.316723
0.0802018
0.321348
0.0832504
0.326378
0.0860583
0.331821
0.0885977
0.337673
0.0908409
0.343927
0.0927607
0.350562
0.0943324
0.35755
0.0955343
0.364852
0.0963495
0.372417
0.096767
0.380185
0.0967831
0.38809
0.0964013
0.0956419
0.396061
0.290384
0.00587355
0.290768
0.0113774
0.291335
0.0165827
0.292083
0.0215441
0.293016
0.0263023
0.294139
0.0308884
0.295461
0.0353262
0.296991
0.0396329
0.298743
0.04382
0.30073
0.0478937
0.302967
0.0518553
0.305471
0.0557018
0.308258
0.0594267
0.311344
0.0630194
0.314747
0.0664669
0.318482
0.0697529
0.322562
0.0728591
0.326999
0.0757652
0.331799
0.0784497
0.336967
0.0808902
0.342501
0.0830645
0.34839
0.084951
0.354621
0.08653
0.361169
0.0877843
0.368003
0.0887004
0.375083
0.0892693
0.382363
0.0894874
0.389789
0.0893573
0.397303
0.0888871
0.088098
0.404847
0.297435
0.00564475
0.297879
0.0109326
0.298533
0.0159287
0.299394
0.0206833
0.300463
0.0252337
0.301743
0.0296082
0.303241
0.0338282
0.304965
0.0379089
0.306925
0.0418602
0.309131
0.0456869
0.311597
0.0493894
0.314335
0.0529642
0.317357
0.0564045
0.320676
0.0597004
0.324303
0.0628395
0.328249
0.0658071
0.332521
0.0685872
0.337124
0.0711622
0.34206
0.0735142
0.347324
0.0756253
0.352911
0.0774782
0.358805
0.0790569
0.364987
0.0803479
0.371431
0.0813402
0.378105
0.0820264
0.384971
0.0824034
0.391986
0.0824727
0.399103
0.0822406
0.406272
0.0817179
0.0809256
0.413444
0.304654
0.00538582
0.305157
0.0104296
0.305895
0.0151906
0.306864
0.0197145
0.308062
0.0240353
0.309492
0.0281786
0.311157
0.0321634
0.313062
0.0360033
0.315216
0.0397066
0.317626
0.043277
0.320301
0.0467143
0.32325
0.050015
0.326482
0.0531724
0.330006
0.0561773
0.333826
0.0590185
0.33795
0.0616834
0.342379
0.0641579
0.347114
0.0664278
0.352149
0.0684786
0.357479
0.0702962
0.363089
0.071868
0.368963
0.0731829
0.375079
0.074232
0.38141
0.0750093
0.387924
0.0755121
0.394586
0.0757414
0.401357
0.0757018
0.408195
0.075402
0.415059
0.074854
0.0740776
0.421907
0.312046
0.00509796
0.312605
0.00987085
0.313424
0.014372
0.314495
0.0186426
0.315817
0.0227136
0.317388
0.0266077
0.319209
0.030342
0.321284
0.0339282
0.323618
0.0373735
0.326214
0.0406807
0.329079
0.0438494
0.332218
0.0468759
0.335636
0.0497542
0.339337
0.0524762
0.343324
0.055032
0.347596
0.0574108
0.352153
0.0596013
0.356989
0.0615918
0.362096
0.0633711
0.367464
0.0649289
0.373075
0.0662562
0.378912
0.0673459
0.384951
0.068193
0.391166
0.0687952
0.397524
0.0691531
0.403995
0.0692704
0.410544
0.0691537
0.417133
0.0688128
0.423727
0.0682601
0.0675137
0.430291
0.319615
0.00478251
0.320227
0.00925888
0.321122
0.0134767
0.322292
0.0174731
0.32373
0.0212755
0.325433
0.0249043
0.327401
0.0283744
0.329633
0.031696
0.332131
0.0348752
0.334898
0.0379144
0.337934
0.0408129
0.341243
0.0435673
0.344825
0.0461723
0.34868
0.0486208
0.352807
0.0509046
0.357203
0.0530149
0.361862
0.0549425
0.366776
0.0566783
0.371932
0.0582142
0.377318
0.0595429
0.382916
0.0606584
0.388705
0.0615569
0.394662
0.0622363
0.40076
0.0626969
0.406972
0.0629417
0.413266
0.062976
0.419612
0.0628075
0.425979
0.0624463
0.432334
0.0619045
0.0611986
0.438649
0.327365
0.00444082
0.328027
0.00859641
0.328995
0.012509
0.330257
0.0162114
0.331804
0.0197281
0.333632
0.0230769
0.335735
0.0262709
0.338112
0.0293188
0.340762
0.0322258
0.343682
0.0349938
0.346873
0.0376222
0.350333
0.040108
0.354058
0.0424465
0.358047
0.044632
0.362294
0.0466578
0.366792
0.0485168
0.371533
0.0502019
0.376504