/*--------------------------------*- C++ -*----------------------------------*\
  =========                 |
  \\      /  F ield         | OpenFOAM: The Open Source CFD Toolbox
   \\    /   O peration     | Website:  https://openfoam.org
    \\  /    A nd           | Version:  dev
     \\/     M anipulation  |
\*---------------------------------------------------------------------------*/
FoamFile
{
    version     2.0;
    format      ascii;
    class       surfaceVectorField;
    location    "6.3";
    object      Uf;
}
// * * * * * * * * * * * * * * * * * * * * * * * * * * * * * * * * * * * * * //

dimensions      [0 1 -1 0 0 0 0];

internalField   nonuniform List<vector> 
5457
(
(9.92088 0 0.0251095)
(9.97125 0 0.0387456)
(9.82402 0 0.0328266)
(9.92859 0 0.0485848)
(9.70961 0 0.0393118)
(9.85548 0 0.0587677)
(9.57544 0 0.0460113)
(9.7568 0 0.0705928)
(9.42138 0 0.0529486)
(9.63754 0 0.0830128)
(9.24755 0 0.0601659)
(9.49862 0 0.0959359)
(9.05363 0 0.0678107)
(9.33931 0 0.109612)
(8.83893 0 0.0760343)
(9.15875 0 0.124288)
(8.60253 0 0.0849701)
(8.9561 0 0.140167)
(8.34327 0 0.0947449)
(8.73039 0 0.157433)
(8.05986 0 0.105487)
(8.48041 0 0.17627)
(7.75081 0 0.117328)
(8.20478 0 0.196858)
(7.41457 0 0.130396)
(7.90196 0 0.219363)
(7.04951 0 0.144812)
(7.57031 0 0.243925)
(6.65404 0 0.160674)
(7.20819 0 0.270636)
(6.22672 0 0.178046)
(6.814 0 0.299504)
(5.76643 0 0.196931)
(6.38634 0 0.330418)
(5.27258 0 0.217236)
(5.92417 0 0.363089)
(4.74537 0 0.238739)
(5.4271 0 0.396981)
(4.1862 0 0.261035)
(4.89565 0 0.431242)
(3.59797 0 0.283491)
(4.33164 0 0.464624)
(2.98555 0 0.305205)
(3.7386 0 0.495429)
(2.35611 0 0.325071)
(3.12227 0 0.521516)
(1.7191 0 0.34255)
(2.49107 0 0.54056)
(1.08434 0 0.361883)
(1.85585 0 0.551675)
(0.45183 0 0.348682)
(1.24548 0 0.563022)
(-0.145843 0 0.102462)
(0.60891 0 0.544878)
(-0.423622 0 -0.207096)
(0.0946617 0 0.259368)
(-0.402157 0 -0.361259)
(-0.133675 0 -0.0205272)
(-0.119681 0 -0.393888)
(9.99641 0 0.051672)
(9.99705 0 0.0405042)
(9.95879 0 0.0708609)
(9.97851 0 0.0674537)
(9.89824 0 0.087986)
(9.93378 0 0.089869)
(9.81659 0 0.105984)
(9.86453 0 0.113554)
(9.71359 0 0.124921)
(9.77438 0 0.138513)
(9.58909 0 0.144853)
(9.66436 0 0.164645)
(9.44275 0 0.166089)
(9.53398 0 0.192331)
(9.27391 0 0.188967)
(9.3825 0 0.22203)
(9.08167 0 0.213783)
(9.2092 0 0.254148)
(8.86491 0 0.240816)
(9.01317 0 0.289064)
(8.62231 0 0.270338)
(8.79332 0 0.327153)
(8.3524 0 0.302609)
(8.54837 0 0.368788)
(8.05357 0 0.33786)
(8.27684 0 0.414319)
(7.72412 0 0.376266)
(7.97718 0 0.464051)
(7.36238 0 0.417907)
(7.64772 0 0.518195)
(6.96673 0 0.462713)
(7.28683 0 0.576813)
(6.53583 0 0.510393)
(6.89295 0 0.639734)
(6.06883 0 0.56034)
(6.46481 0 0.706437)
(5.56559 0 0.611528)
(6.0016 0 0.775919)
(5.0271 0 0.662392)
(5.50326 0 0.846533)
(4.45587 0 0.710714)
(4.97088 0 0.915815)
(3.85649 0 0.753545)
(4.40718 0 0.980315)
(3.23619 0 0.7872)
(3.81703 0 1.03546)
(2.60581 0 0.807503)
(3.20845 0 1.07549)
(1.98279 0 0.810467)
(2.59338 0 1.09315)
(1.40528 0 0.776896)
(1.9962 0 1.07708)
(0.929745 0 0.646398)
(1.41949 0 0.978406)
(0.439849 0 0.384335)
(0.937567 0 0.716794)
(0.0591688 0 -0.118618)
(0.443786 0 0.343519)
(0.174919 0 -0.335936)
(9.98903 0 0.0594302)
(9.99481 0 0.0458769)
(9.95434 0 0.0894754)
(9.97368 0 0.0848531)
(9.8973 0 0.11803)
(9.92984 0 0.119172)
(9.82047 0 0.147897)
(9.86357 0 0.153974)
(9.72417 0 0.17942)
(9.77736 0 0.190406)
(9.60822 0 0.212774)
(9.67227 0 0.228635)
(9.47235 0 0.248391)
(9.5481 0 0.269127)
(9.31608 0 0.286773)
(9.40432 0 0.312495)
(9.13869 0 0.328396)
(9.24035 0 0.359324)
(8.93925 0 0.373722)
(9.0555 0 0.410173)
(8.71665 0 0.423206)
(8.8489 0 0.465598)
(8.46961 0 0.477297)
(8.61952 0 0.526153)
(8.19668 0 0.5364)
(8.36616 0 0.592374)
(7.89633 0 0.600844)
(8.08753 0 0.66474)
(7.56692 0 0.670813)
(7.7822 0 0.743621)
(7.20684 0 0.74626)
(7.44874 0 0.829194)
(6.81457 0 0.826787)
(7.08568 0 0.921324)
(6.38888 0 0.911488)
(6.69171 0 1.01941)
(5.92903 0 0.998764)
(6.26572 0 1.12218)
(5.43514 0 1.0861)
(5.80712 0 1.22743)
(4.90854 0 1.16983)
(5.31607 0 1.33175)
(4.35243 0 1.2449)
(4.79397 0 1.4302)
(3.77259 0 1.30455)
(4.24397 0 1.51588)
(3.17872 0 1.33984)
(3.67181 0 1.57943)
(2.58663 0 1.33812)
(3.08632 0 1.60775)
(2.01986 0 1.27297)
(2.50292 0 1.58158)
(1.48694 0 1.09541)
(1.92874 0 1.46425)
(0.958296 0 0.769168)
(1.38525 0 1.2104)
(0.479877 0 0.202447)
(0.829542 0 0.801034)
(0.43373 0 0.134075)
(9.98515 0 0.0716129)
(9.99367 0 0.0531471)
(9.95039 0 0.113629)
(9.97088 0 0.102289)
(9.89437 0 0.154131)
(9.92691 0 0.147951)
(9.81882 0 0.195571)
(9.86185 0 0.193719)
(9.72442 0 0.238809)
(9.77747 0 0.241275)
(9.61113 0 0.284322)
(9.67467 0 0.291161)
(9.47875 0 0.332718)
(9.55344 0 0.343953)
(9.32695 0 0.384672)
(9.41336 0 0.400369)
(9.15524 0 0.440845)
(9.25401 0 0.461137)
(8.96292 0 0.501883)
(9.07485 0 0.52696)
(8.74917 0 0.568428)
(8.87521 0 0.598535)
(8.51305 0 0.641113)
(8.65431 0 0.676563)
(8.25347 0 0.720532)
(8.41123 0 0.761722)
(7.96926 0 0.807193)
(8.145 0 0.854639)
(7.65918 0 0.901441)
(7.85455 0 0.955823)
(7.32193 0 1.00335)
(7.53876 0 1.06557)
(6.95621 0 1.11258)
(7.19646 0 1.18385)
(6.56085 0 1.22814)
(6.82653 0 1.31009)
(6.13489 0 1.34818)
(6.42789 0 1.44292)
(5.67784 0 1.46961)
(5.99966 0 1.57991)
(5.18999 0 1.58778)
(5.54134 0 1.71709)
(4.67286 0 1.69603)
(5.05305 0 1.84855)
(4.12979 0 1.78515)
(4.53596 0 1.96584)
(3.56665 0 1.84253)
(3.99273 0 2.05731)
(2.99205 0 1.85072)
(3.4276 0 2.10714)
(2.41584 0 1.78248)
(2.84763 0 2.09448)
(1.84054 0 1.60045)
(2.25623 0 1.98873)
(1.25939 0 1.27842)
(1.66031 0 1.75304)
(0.666774 0 0.789531)
(1.02396 0 1.36775)
(0.523036 0 0.787139)
(9.98337 0 0.084406)
(9.99316 0 0.0612904)
(9.94821 0 0.136835)
(9.96959 0 0.119925)
(9.89315 0 0.188029)
(9.92575 0 0.176237)
(9.81907 0 0.240166)
(9.862 0 0.232695)
(9.72663 0 0.294464)
(9.77964 0 0.291083)
(9.6159 0 0.351655)
(9.6794 0 0.35227)
(9.48672 0 0.412466)
(9.56128 0 0.416973)
(9.33879 0 0.477672)
(9.42497 0 0.486004)
(9.17172 0 0.548047)
(9.2701 0 0.5602)
(8.98493 0 0.624351)
(9.09621 0 0.640383)
(8.77779 0 0.707342)
(8.90275 0 0.727365)
(8.54954 0 0.797763)
(8.68908 0 0.821955)
(8.29936 0 0.896326)
(8.45445 0 0.924941)
(8.02635 0 1.00365)
(8.19808 0 1.03706)
(7.72958 0 1.12021)
(7.91913 0 1.15892)
(7.40806 0 1.24617)
(7.6167 0 1.29093)
(7.06077 0 1.38128)
(7.28986 0 1.43315)
(6.68669 0 1.52459)
(6.93763 0 1.58511)
(6.28485 0 1.6742)
(6.55899 0 1.74551)
(5.85438 0 1.8268)
(6.15287 0 1.91189)
(5.3947 0 1.97726)
(5.71821 0 2.08017)
(4.90574 0 2.11806)
(5.25407 0 2.2441)
(4.38824 0 2.23861)
(4.75973 0 2.39461)
(3.84393 0 2.32455)
(4.23494 0 2.5192)
(3.27543 0 2.35695)
(3.67988 0 2.60124)
(2.68539 0 2.31059)
(3.09571 0 2.6197)
(2.07269 0 2.155)
(2.48168 0 2.54731)
(1.42937 0 1.86739)
(1.83991 0 2.35371)
(0.74261 0 1.41955)
(1.13136 0 2.02451)
(0.543305 0 1.51448)
(9.98264 0 0.0974959)
(9.99299 0 0.0697915)
(9.94744 0 0.159772)
(9.96925 0 0.137581)
(9.89355 0 0.221344)
(9.92597 0 0.203923)
(9.82134 0 0.284088)
(9.86381 0 0.270684)
(9.73134 0 0.349343)
(9.78386 0 0.339577)
(9.62367 0 0.418013)
(9.68665 0 0.411691)
(9.4982 0 0.490933)
(9.57219 0 0.487897)
(9.35466 0 0.568969)
(9.44022 0 0.569098)
(9.1927 0 0.652999)
(9.29044 0 0.656228)
(9.01184 0 0.743894)
(9.12243 0 0.750209)
(8.81152 0 0.842514)
(8.93573 0 0.851953)
(8.5911 0 0.949708)
(8.72974 0 0.962364)
(8.34986 0 1.06628)
(8.50383 0 1.08232)
(8.08707 0 1.19297)
(8.25729 0 1.21265)
(7.80193 0 1.33031)
(7.98938 0 1.35405)
(7.4936 0 1.47861)
(7.6993 0 1.50703)
(7.16119 0 1.6377)
(7.38617 0 1.67177)
(6.80372 0 1.80676)
(7.04903 0 1.84793)
(6.42011 0 1.98398)
(6.68675 0 2.03437)
(6.00912 0 2.16615)
(6.29801 0 2.22885)
(5.5694 0 2.34812)
(5.88118 0 2.4275)
(5.09945 0 2.52222)
(5.43433 0 2.62427)
(4.59773 0 2.67758)
(4.9551 0 2.81031)
(4.06268 0 2.7995)
(4.44083 0 2.97323)
(3.49269 0 2.86911)
(3.8885 0 3.09663)
(2.88582 0 2.86291)
(3.29521 0 3.15989)
(2.238 0 2.75392)
(2.65688 0 3.1379)
(1.54243 0 2.52102)
(1.97483 0 3.00318)
(0.793644 0 2.13132)
(1.20723 0 2.74058)
(0.556733 0 2.29181)
(9.9825 0 0.110624)
(9.99302 0 0.0783598)
(9.94771 0 0.182321)
(9.96954 0 0.155034)
(9.89523 0 0.253812)
(9.92722 0 0.230881)
(9.82524 0 0.326761)
(9.86697 0 0.307503)
(9.73814 0 0.402548)
(9.78978 0 0.386516)
(9.63404 0 0.482227)
(9.69606 0 0.469141)
(9.51286 0 0.56675)
(9.5858 0 0.55639)
(9.37439 0 0.657086)
(9.45881 0 0.649263)
(9.21829 0 0.754207)
(9.31482 0 0.74878)
(9.04415 0 0.85908)
(9.15348 0 0.855956)
(8.85146 0 0.972659)
(8.97435 0 0.971796)
(8.63964 0 1.09588)
(8.77692 0 1.09729)
(8.40804 0 1.22964)
(8.56059 0 1.23342)
(8.15596 0 1.37476)
(8.32471 0 1.38108)
(7.88265 0 1.53187)
(8.06854 0 1.54109)
(7.58728 0 1.70139)
(7.79126 0 1.71406)
(7.2689 0 1.88331)
(7.49196 0 1.90032)
(6.92642 0 2.07699)
(7.16955 0 2.09972)
(6.55851 0 2.28088)
(6.82266 0 2.31141)
(6.16346 0 2.49208)
(6.44959 0 2.53352)
(5.73912 0 2.70586)
(6.04809 0 2.76267)
(5.28272 0 2.91501)
(5.61523 0 2.99349)
(4.79082 0 3.10917)
(5.14723 0 3.21787)
(4.25928 0 3.27421)
(4.63937 0 3.42429)
(3.68337 0 3.39186)
(4.08604 0 3.59715)
(3.05803 0 3.43968)
(3.48129 0 3.71653)
(2.37772 0 3.39178)
(2.81834 0 3.75811)
(1.6379 0 3.22615)
(2.09914 0 3.69396)
(0.839124 0 2.90082)
(1.27891 0 3.50445)
(0.573354 0 3.11368)
(9.98273 0 0.123579)
(9.99316 0 0.0868155)
(9.94873 0 0.204305)
(9.97027 0 0.172089)
(9.89794 0 0.285246)
(9.92927 0 0.25697)
(9.83051 0 0.367959)
(9.87124 0 0.342981)
(9.74671 0 0.453844)
(9.79716 0 0.43167)
(9.64669 0 0.544069)
(9.70736 0 0.524342)
(9.53039 0 0.639699)
(9.60182 0 0.622126)
(9.39763 0 0.741791)
(9.48039 0 0.726117)
(9.24814 0 0.851407)
(9.34287 0 0.837416)
(9.08154 0 0.969601)
(9.18895 0 0.957124)
(8.89738 0 1.09742)
(9.01826 0 1.08634)
(8.69512 0 1.23588)
(8.83031 0 1.22613)
(8.47414 0 1.38598)
(8.62456 0 1.37758)
(8.23378 0 1.54863)
(8.40038 0 1.54169)
(7.97324 0 1.72461)
(8.15703 0 1.71938)
(7.69162 0 1.91446)
(7.89365 0 1.91144)
(7.38786 0 2.11837)
(7.60921 0 2.11837)
(7.06063 0 2.33598)
(7.30243 0 2.34031)
(6.70821 0 2.56614)
(6.97166 0 2.57678)
(6.32836 0 2.80651)
(6.61472 0 2.82646)
(5.91809 0 3.05307)
(6.22871 0 3.08673)
(5.47344 0 3.29955)
(5.80973 0 3.3532)
(4.98929 0 3.53667)
(5.35264 0 3.61901)
(4.45932 0 3.75143)
(4.85086 0 3.87401)
(3.8762 0 3.92647)
(4.2964 0 4.10395)
(3.23231 0 4.03985)
(3.68052 0 4.28969)
(2.52081 0 4.06497)
(2.99348 0 4.40676)
(1.73836 0 3.97611)
(2.23735 0 4.42455)
(0.889463 0 3.71872)
(1.36334 0 4.31625)
(0.598744 0 3.98485)
(9.98321 0 0.1362)
(9.99339 0 0.0950382)
(9.95032 0 0.225567)
(9.97131 0 0.188585)
(9.90151 0 0.31549)
(9.93193 0 0.282043)
(9.83694 0 0.407495)
(9.87644 0 0.376952)
(9.75685 0 0.503003)
(9.8058 0 0.474831)
(9.66136 0 0.603267)
(9.72031 0 0.577039)
(9.55047 0 0.709449)
(9.61997 0 0.684804)
(9.42405 0 0.822691)
(9.50466 0 0.799305)
(9.28185 0 0.944136)
(9.37424 0 0.921724)
(9.12358 0 1.07492)
(9.22845 0 1.05324)
(8.94881 0 1.21618)
(9.06697 0 1.19503)
(8.75707 0 1.36904)
(8.8894 0 1.34827)
(8.54778 0 1.53458)
(8.69522 0 1.51412)
(8.32027 0 1.71384)
(8.48384 0 1.69371)
(8.07372 0 1.90775)
(8.25453 0 1.88811)
(7.80715 0 2.11704)
(8.00638 0 2.09828)
(7.51934 0 2.34217)
(7.73827 0 2.32498)
(7.20869 0 2.58317)
(7.44875 0 2.5687)
(6.87311 0 2.83941)
(7.13586 0 2.82947)
(6.50978 0 3.1093)
(6.79702 0 3.10666)
(6.11488 0 3.38983)
(6.42868 0 3.39865)
(5.68331 0 3.67605)
(6.02604 0 3.70233)
(5.20837 0 3.96023)
(5.58267 0 4.01252)
(4.68163 0 4.23101)
(5.0902 0 4.32099)
(4.09315 0 4.47232)
(4.53814 0 4.6154)
(3.43238 0 4.66253)
(3.91455 0 4.87786)
(2.69001 0 4.77312)
(3.20554 0 5.08356)
(1.86176 0 4.77234)
(2.41115 0 5.19791)
(0.954129 0 4.58965)
(1.47619 0 5.18422)
(0.63915 0 4.91936)
(9.98386 0 0.148366)
(9.99368 0 0.102941)
(9.95235 0 0.245965)
(9.97261 0 0.204389)
(9.90579 0 0.344392)
(9.9351 0 0.305963)
(9.84438 0 0.445189)
(9.88242 0 0.409262)
(9.76834 0 0.549801)
(9.81552 0 0.515806)
(9.67781 0 0.659548)
(9.73472 0 0.626999)
(9.57282 0 0.775676)
(9.64 0 0.744145)
(9.45329 0 0.899406)
(9.53131 0 0.868504)
(9.31903 0 1.03196)
(9.40855 0 1.00133)
(9.1698 0 1.17454)
(9.27154 0 1.14386)
(9.00525 0 1.32839)
(9.12001 0 1.29737)
(8.82495 0 1.49471)
(8.95364 0 1.46312)
(8.62837 0 1.6747)
(8.77197 0 1.64236)
(8.41487 0 1.86954)
(8.57445 0 1.83636)
(8.18363 0 2.08034)
(8.3604 0 2.04635)
(7.93363 0 2.30806)
(8.12892 0 2.2735)
(7.6635 0 2.55352)
(7.87883 0 2.51889)
(7.37145 0 2.8172)
(7.60856 0 2.78342)
(7.05506 0 3.09914)
(7.31599 0 3.06771)
(6.71102 0 3.39868)
(6.99821 0 3.37199)
(6.33479 0 3.71411)
(6.65118 0 3.69582)
(5.92023 0 4.04213)
(6.26938 0 4.0377)
(5.45912 0 4.3771)
(5.84526 0 4.39456)
(4.94089 0 4.70991)
(5.36872 0 4.76076)
(4.35252 0 5.02654)
(4.8266 0 5.12676)
(3.67937 0 5.30616)
(4.20295 0 5.47706)
(2.9073 0 5.51811)
(3.47766 0 5.78743)
(2.02749 0 5.62291)
(2.64481 0 6.01941)
(1.04501 0 5.52932)
(1.63755 0 6.12378)
(0.704391 0 5.94288)
(9.98465 0 0.159978)
(9.99402 0 0.11046)
(9.95473 0 0.265376)
(9.97409 0 0.219395)
(9.91065 0 0.371813)
(9.93868 0 0.328605)
(9.85267 0 0.480874)
(9.88905 0 0.439767)
(9.78101 0 0.594034)
(9.82619 0 0.554422)
(9.69582 0 0.712669)
(9.75039 0 0.674013)
(9.59717 0 0.838095)
(9.66168 0 0.799904)
(9.48504 0 0.971603)
(9.56004 0 0.933421)
(9.35929 0 1.11448)
(9.44545 0 1.07588)
(9.21975 0 1.26802)
(9.31778 0 1.2286)
(9.06615 0 1.43351)
(9.17687 0 1.3929)
(8.89813 0 1.61227)
(9.02243 0 1.57014)
(8.71524 0 1.80563)
(8.85413 0 1.76168)
(8.51688 0 2.01489)
(8.67148 0 1.9689)
(8.30228 0 2.24137)
(8.47388 0 2.19321)
(8.07042 0 2.48632)
(8.26048 0 2.43602)
(7.81991 0 2.75092)
(8.03014 0 2.69872)
(7.54885 0 3.03621)
(7.78132 0 2.9827)
(7.25465 0 3.34301)
(7.51185 0 3.28925)
(6.93368 0 3.67175)
(7.21869 0 3.61953)
(6.58093 0 4.02222)
(6.89762 0 3.97445)
(6.18944 0 4.3932)
(6.54271 0 4.35441)
(5.74972 0 4.78168)
(6.14566 0 4.75888)
(5.24903 0 5.18179)
(5.69499 0 5.18563)
(4.67082 0 5.58285)
(5.17495 0 5.62929)
(3.99474 0 5.96655)
(4.56491 0 6.07885)
(3.19823 0 6.30166)
(3.83611 0 6.51358)
(2.26159 0 6.54055)
(2.97058 0 6.89397)
(1.18049 0 6.56489)
(1.87892 0 7.15764)
(0.81269 0 7.0991)
(9.98554 0 0.170959)
(9.9944 0 0.117543)
(9.95739 0 0.283692)
(9.97572 0 0.233513)
(9.91601 0 0.397626)
(9.94259 0 0.349861)
(9.8617 0 0.514401)
(9.89624 0 0.468341)
(9.79469 0 0.635522)
(9.83765 0 0.590527)
(9.71518 0 0.762415)
(9.76714 0 0.717895)
(9.62326 0 0.896453)
(9.68477 0 0.85186)
(9.51896 0 1.03899)
(9.59057 0 0.993802)
(9.40223 0 1.19136)
(9.48458 0 1.14509)
(9.27296 0 1.35493)
(9.36676 0 1.3071)
(9.13097 0 1.53107)
(9.23701 0 1.48122)
(8.97599 0 1.72118)
(9.09517 0 1.66886)
(8.80766 0 1.9267)
(8.94099 0 1.87149)
(8.62549 0 2.14908)
(8.77411 0 2.09062)
(8.4288 0 2.38984)
(8.59404 0 2.32781)
(8.21664 0 2.65053)
(8.40006 0 2.58471)
(7.98772 0 2.93273)
(8.19117 0 2.86306)
(7.7402 0 3.23808)
(7.96597 0 3.16468)
(7.4715 0 3.5682)
(7.72246 0 3.49157)
(7.178 0 3.92474)
(7.45777 0 3.84588)
(6.85454 0 4.30919)
(7.16784 0 4.22993)
(6.49387 0 4.72271)
(6.84686 0 4.64618)
(6.0857 0 5.1656)
(6.48647 0 5.09707)
(5.6156 0 5.63637)
(6.07466 0 5.58455)
(5.06349 0 6.12986)
(5.59394 0 6.10915)
(4.40205 0 6.63377)
(5.01945 0 6.66762)
(3.59591 0 7.12113)
(4.31232 0 7.24851)
(2.60409 0 7.54042)
(3.43538 0 7.82005)
(1.39413 0 7.74011)
(2.25616 0 8.31473)
(1.00243 0 8.46456)
(9.9865 0 0.181248)
(9.9948 0 0.124153)
(9.96027 0 0.300824)
(9.97747 0 0.246673)
(9.92177 0 0.421723)
(9.94676 0 0.369637)
(9.87134 0 0.545637)
(9.90388 0 0.494873)
(9.80924 0 0.674108)
(9.84978 0 0.623989)
(9.73569 0 0.808597)
(9.7848 0 0.758489)
(9.65082 0 0.950526)
(9.70904 0 0.899828)
(9.55473 0 1.10129)
(9.6226 0 1.04943)
(9.44745 0 1.26229)
(9.52558 0 1.2087)
(9.32894 0 1.43494)
(9.41801 0 1.37907)
(9.19911 0 1.62065)
(9.29991 0 1.56196)
(9.05783 0 1.82093)
(9.17122 0 1.75886)
(8.90484 0 2.03729)
(9.0318 0 1.9713)
(8.73979 0 2.27134)
(8.88146 0 2.20091)
(8.56214 0 2.52479)
(8.71985 0 2.44938)
(8.37114 0 2.79945)
(8.54646 0 2.71858)
(8.16569 0 3.09732)
(8.36055 0 3.01054)
(7.94418 0 3.42057)
(8.16098 0 3.32754)
(7.70434 0 3.77167)
(7.94613 0 3.67217)
(7.44287 0 4.15346)
(7.71363 0 4.04753)
(7.15503 0 4.56918)
(7.46003 0 4.45729)
(6.83394 0 5.02256)
(7.18031 0 4.90593)
(6.46954 0 5.51773)
(6.86708 0 5.39899)
(6.04696 0 6.05881)
(6.50928 0 5.94315)
(5.54395 0 6.64883)
(6.08995 0 6.54632)
(4.92688 0 7.28704)
(5.58295 0 7.21689)
(4.14472 0 7.96136)
(4.94222 0 7.96158)
(3.12142 0 8.63332)
(4.10889 0 8.77553)
(1.75597 0 9.12735)
(2.87797 0 9.62053)
(1.36441 0 10.1844)
(9.98754 0 0.190793)
(9.99523 0 0.130256)
(9.96333 0 0.316698)
(9.97932 0 0.258816)
(9.92786 0 0.44401)
(9.95115 0 0.387857)
(9.88148 0 0.574475)
(9.91188 0 0.519271)
(9.82449 0 0.709662)
(9.86244 0 0.654698)
(9.75713 0 0.851067)
(9.80318 0 0.795665)
(9.6796 0 1.00014)
(9.73427 0 0.943655)
(9.59203 0 1.15833)
(9.65584 0 1.10012)
(9.49454 0 1.32705)
(9.56808 0 1.26651)
(9.38718 0 1.50776)
(9.4711 0 1.44426)
(9.26999 0 1.70194)
(9.36502 0 1.63485)
(9.14293 0 1.91113)
(9.2499 0 1.83979)
(9.00591 0 2.13694)
(9.12576 0 2.06069)
(8.85875 0 2.38108)
(8.99255 0 2.29924)
(8.70112 0 2.64543)
(8.85016 0 2.55725)
(8.53252 0 2.93203)
(8.69832 0 2.83676)
(8.35217 0 3.24321)
(8.53662 0 3.14001)
(8.15889 0 3.58164)
(8.36436 0 3.46963)
(7.95096 0 3.9505)
(8.18048 0 3.82875)
(7.72581 0 4.3537)
(7.98338 0 4.22116)
(7.47971 0 4.79608)
(7.77071 0 4.65168)
(7.20708 0 5.28382)
(7.53896 0 5.12648)
(6.89954 0 5.82491)
(7.28291 0 5.6538)
(6.54412 0 6.4297)
(6.99454 0 6.24475)
(6.12007 0 7.1116)
(6.66115 0 6.91486)
(5.59266 0 7.88771)
(6.26214 0 7.68635)
(4.90039 0 8.77787)
(5.75706 0 8.59271)
(3.92627 0 9.80126)
(5.08663 0 9.68508)
(2.43266 0 10.856)
(3.97861 0 11.0489)
(2.14555 0 12.5671)
(9.98862 0 0.199557)
(9.99567 0 0.135831)
(9.96652 0 0.331252)
(9.98124 0 0.269898)
(9.9342 0 0.464406)
(9.95571 0 0.40446)
(9.89203 0 0.600805)
(9.92017 0 0.541461)
(9.84031 0 0.742048)
(9.87553 0 0.682565)
(9.77933 0 0.88965)
(9.82217 0 0.829318)
(9.70933 0 1.04509)
(9.76029 0 0.983221)
(9.63053 0 1.20983)
(9.69012 0 1.14574)
(9.54309 0 1.38532)
(9.61187 0 1.31835)
(9.4472 0 1.57303)
(9.5258 0 1.50249)
(9.34298 0 1.77449)
(9.43209 0 1.69966)
(9.23055 0 1.99126)
(9.33096 0 1.91141)
(9.10998 0 2.225)
(9.22257 0 2.13935)
(8.98129 0 2.47753)
(9.10708 0 2.38523)
(8.84442 0 2.75081)
(8.98461 0 2.65092)
(8.69917 0 3.04705)
(8.8552 0 2.93856)
(8.5452 0 3.36883)
(8.71883 0 3.25054)
(8.3819 0 3.71916)
(8.57534 0 3.58969)
(8.20832 0 4.10177)
(8.42439 0 3.95946)
(8.023 0 4.52131)
(8.26539 0 4.36409)
(7.82374 0 4.98382)
(8.09744 0 4.80906)
(7.60725 0 5.49735)
(7.91919 0 5.30162)
(7.36851 0 6.07295)
(7.72864 0 5.85161)
(7.09957 0 6.72626)
(7.52291 0 6.47297)
(6.78729 0 7.48048)
(7.29776 0 7.18627)
(6.40808 0 8.37232)
(7.04769 0 8.0239)
(5.91491 0 9.46618)
(6.76248 0 9.04231)
(5.19518 0 10.9082)
(6.46106 0 10.3571)
(3.88335 0 13.1777)
(6.18818 0 12.3034)
(5.25623 0 16.3706)
(0.186953 0 -0.110397)
(0.109623 0 -0.183109)
(0.363027 0 -0.0924667)
(0.26615 0 -0.168381)
(0.505783 0 -0.0691933)
(0.420276 0 -0.133294)
(0.614764 0 -0.0485682)
(0.548076 0 -0.0993548)
(0.694713 0 -0.0319974)
(0.645651 0 -0.0711648)
(0.751026 0 -0.0192273)
(0.717682 0 -0.0489426)
(0.788687 0 -0.00968909)
(0.769977 0 -0.0319589)
(0.812085 0 -0.00281317)
(0.807428 0 -0.0193858)
(0.824972 0 0.00192384)
(0.833897 0 -0.010425)
(0.830465 0 0.00497937)
(0.852452 0 -0.00433903)
(0.831179 0 0.00667511)
(0.865523 0 -0.000550831)
(0.828819 0 0.0073474)
(0.874966 0 0.00177715)
(0.82497 0 0.00737324)
(0.882183 0 0.00283027)
(0.820727 0 0.00700378)
(0.888238 0 0.00304534)
(0.816817 0 0.00640677)
(0.893908 0 0.00274083)
(0.813709 0 0.00570007)
(0.899724 0 0.00212695)
(0.811643 0 0.00498091)
(0.906002 0 0.00138025)
(0.810638 0 0.0043539)
(0.912857 0 0.000655959)
(0.81046 0 0.00392805)
(0.920221 0 0.000113207)
(0.810613 0 0.00376867)
(0.927859 0 -9.48786e-05)
(0.810531 0 0.00384766)
(0.935412 0 4.92451e-05)
(0.80966 0 0.00408155)
(0.942456 0 0.000516623)
(0.807633 0 0.00438757)
(0.948605 0 0.00117322)
(0.804251 0 0.00470371)
(0.953586 0 0.001912)
(0.79939 0 0.0050045)
(0.957255 0 0.00268274)
(0.792923 0 0.00526396)
(0.959507 0 0.00348488)
(0.784763 0 0.00545276)
(0.960228 0 0.00429303)
(0.774901 0 0.00544964)
(0.959093 0 0.00506605)
(0.76423 0 0.00473591)
(0.956357 0 0.00535191)
(0.952664 0 0.00404422)
(0.173049 0 -0.265007)
(0.091495 0 -0.3526)
(0.337862 0 -0.229374)
(0.236668 0 -0.325992)
(0.474842 0 -0.178823)
(0.371868 0 -0.261194)
(0.583759 0 -0.133159)
(0.485376 0 -0.198651)
(0.669034 0 -0.0961448)
(0.574172 0 -0.147071)
(0.735402 0 -0.0673847)
(0.642669 0 -0.106624)
(0.787064 0 -0.045673)
(0.695686 0 -0.0757986)
(0.827586 0 -0.0297634)
(0.737151 0 -0.0529601)
(0.859896 0 -0.0184947)
(0.77014 0 -0.0365632)
(0.886289 0 -0.0108361)
(0.797044 0 -0.0251854)
(0.908381 0 -0.00595317)
(0.819648 0 -0.0175888)
(0.927611 0 -0.00312743)
(0.839266 0 -0.0127032)
(0.944891 0 -0.00173818)
(0.856873 0 -0.00987412)
(0.960992 0 -0.00133281)
(0.873155 0 -0.00851276)
(0.976504 0 -0.00156958)
(0.888623 0 -0.00813115)
(0.991801 0 -0.00217513)
(0.90364 0 -0.00834162)
(1.00708 0 -0.00291218)
(0.918435 0 -0.00882563)
(1.02236 0 -0.00355631)
(0.933115 0 -0.00931592)
(1.03759 0 -0.00390533)
(0.947684 0 -0.0095892)
(1.05268 0 -0.00382972)
(0.9621 0 -0.00947564)
(1.06738 0 -0.00331619)
(0.976272 0 -0.00888093)
(1.08141 0 -0.00244442)
(0.990001 0 -0.00779882)
(1.09448 0 -0.00133849)
(1.00308 0 -0.00639576)
(1.10647 0 -0.000105654)
(1.01538 0 -0.00486362)
(1.11729 0 0.00123198)
(1.02693 0 -0.00329039)
(1.12676 0 0.00271902)
(1.03772 0 -0.00162017)
(1.13458 0 0.00420762)
(1.04763 0 0.000179902)
(1.14039 0 0.00526651)
(1.05648 0 0.00208106)
(1.14489 0 0.00516251)
(1.06399 0 0.00309507)
(1.07153 0 0.00272605)
(0.146431 0 -0.419985)
(0.0714905 0 -0.49602)
(0.281625 0 -0.364705)
(0.193553 0 -0.455279)
(0.392186 0 -0.287446)
(0.29632 0 -0.364427)
(0.479574 0 -0.218023)
(0.382938 0 -0.27832)
(0.548109 0 -0.161942)
(0.449681 0 -0.208076)
(0.601814 0 -0.118436)
(0.501241 0 -0.153299)
(0.644153 0 -0.0856231)
(0.541327 0 -0.111727)
(0.678017 0 -0.0615716)
(0.572861 0 -0.0810183)
(0.705755 0 -0.044467)
(0.598175 0 -0.0590021)
(0.729154 0 -0.0326746)
(0.619098 0 -0.0436674)
(0.749484 0 -0.0248038)
(0.636949 0 -0.033268)
(0.767727 0 -0.0197925)
(0.652628 0 -0.0264401)
(0.784513 0 -0.0168596)
(0.666751 0 -0.0222155)
(0.800285 0 -0.0153808)
(0.6797 0 -0.0198343)
(0.815367 0 -0.014858)
(0.691735 0 -0.0187023)
(0.829976 0 -0.0148857)
(0.70305 0 -0.0183391)
(0.844255 0 -0.0151283)
(0.713783 0 -0.0183663)
(0.85829 0 -0.0153055)
(0.724037 0 -0.0184725)
(0.87211 0 -0.0151935)
(0.733889 0 -0.018392)
(0.885674 0 -0.0146343)
(0.743372 0 -0.0179119)
(0.89887 0 -0.0135617)
(0.752456 0 -0.0168945)
(0.911584 0 -0.012054)
(0.761067 0 -0.0153368)
(0.92379 0 -0.0103)
(0.769153 0 -0.0134617)
(0.935592 0 -0.00846098)
(0.776748 0 -0.0115349)
(0.947158 0 -0.00655286)
(0.784028 0 -0.00967353)
(0.958543 0 -0.0044637)
(0.791164 0 -0.00775502)
(0.969475 0 -0.00230052)
(0.798153 0 -0.00557168)
(0.979946 0 -0.000482711)
(0.805043 0 -0.00329793)
(0.989353 0 0.0006735)
(0.811013 0 -0.0016231)
(0.817073 0 -0.00043056)
(0.117077 0 -0.540727)
(0.0513712 0 -0.61069)
(0.217096 0 -0.464803)
(0.144582 0 -0.550928)
(0.295281 0 -0.364888)
(0.20862 0 -0.43743)
(0.355955 0 -0.277025)
(0.264957 0 -0.333635)
(0.403103 0 -0.206807)
(0.305791 0 -0.250043)
(0.439763 0 -0.152637)
(0.337008 0 -0.18516)
(0.468467 0 -0.11195)
(0.360775 0 -0.136085)
(0.49129 0 -0.0822339)
(0.378888 0 -0.0999279)
(0.509935 0 -0.0611388)
(0.392863 0 -0.0740854)
(0.525621 0 -0.0465336)
(0.403951 0 -0.056057)
(0.539087 0 -0.0366686)
(0.412983 0 -0.0436533)
(0.55086 0 -0.0302447)
(0.420355 0 -0.035305)
(0.561309 0 -0.0262909)
(0.426334 0 -0.029898)
(0.570654 0 -0.0240499)
(0.431049 0 -0.0265428)
(0.579054 0 -0.0229285)
(0.434592 0 -0.0245897)
(0.58661 0 -0.0224599)
(0.437076 0 -0.0235099)
(0.59342 0 -0.0222789)
(0.43859 0 -0.0229164)
(0.599585 0 -0.0220805)
(0.439262 0 -0.0224944)
(0.605186 0 -0.0216071)
(0.439259 0 -0.0219602)
(0.610267 0 -0.0206624)
(0.438721 0 -0.0210719)
(0.614791 0 -0.0191578)
(0.4377 0 -0.0196418)
(0.618657 0 -0.0172174)
(0.436165 0 -0.0176287)
(0.621929 0 -0.0151192)
(0.434106 0 -0.0153562)
(0.62487 0 -0.0130372)
(0.431525 0 -0.013197)
(0.62781 0 -0.0109126)
(0.428666 0 -0.0112959)
(0.630922 0 -0.00858619)
(0.425645 0 -0.00943234)
(0.633743 0 -0.00626591)
(0.422691 0 -0.00705572)
(0.635906 0 -0.00455467)
(0.420391 0 -0.00440889)
(0.637526 0 -0.00311822)
(0.414638 0 -0.00243575)
(0.406885 0 -0.000572765)
(0.0828168 0 -0.628819)
(0.030087 0 -0.691804)
(0.143408 0 -0.531828)
(0.0888558 0 -0.608872)
(0.185736 0 -0.414228)
(0.109274 0 -0.476953)
(0.216932 0 -0.313909)
(0.133371 0 -0.362075)
(0.240101 0 -0.234625)
(0.145554 0 -0.270666)
(0.257165 0 -0.173785)
(0.153967 0 -0.199991)
(0.269578 0 -0.128247)
(0.158652 0 -0.146619)
(0.278513 0 -0.0950883)
(0.160374 0 -0.107331)
(0.285082 0 -0.0715754)
(0.159826 0 -0.0793993)
(0.289944 0 -0.0551593)
(0.157774 0 -0.0598978)
(0.293213 0 -0.0438339)
(0.154674 0 -0.0461743)
(0.294981 0 -0.0361889)
(0.15036 0 -0.0366365)
(0.295388 0 -0.0311308)
(0.144696 0 -0.0301969)
(0.294461 0 -0.0278464)
(0.137736 0 -0.0258772)
(0.292281 0 -0.0257473)
(0.129526 0 -0.0230621)
(0.288899 0 -0.0243724)
(0.120238 0 -0.0211954)
(0.284447 0 -0.0233864)
(0.109983 0 -0.0199414)
(0.279121 0 -0.022513)
(0.098993 0 -0.01902)
(0.273123 0 -0.021497)
(0.0875249 0 -0.0181391)
(0.266607 0 -0.0200949)
(0.0757468 0 -0.0170196)
(0.259599 0 -0.0181617)
(0.0636318 0 -0.015386)
(0.251894 0 -0.0158896)
(0.051013 0 -0.0130608)
(0.243483 0 -0.0137796)
(0.0376476 0 -0.010487)
(0.2348 0 -0.0121958)
(0.0222793 0 -0.00828905)
(0.226194 0 -0.0108934)
(0.00576772 0 -0.00654601)
(0.218128 0 -0.00905324)
(-0.0107823 0 -0.0050863)
(0.209654 0 -0.00591829)
(-0.0262299 0 -0.00259716)
(0.198059 0 -0.00208809)
(-0.0381269 0 0.00154712)
(0.183621 0 0.000625386)
(-0.0490539 0 0.00480587)
(-0.0615286 0 0.00469407)
(0.043254 0 -0.679214)
(0.00640831 0 -0.734168)
(0.0599368 0 -0.561459)
(0.0248897 0 -0.624825)
(0.0638792 0 -0.431406)
(-0.00100882 0 -0.480634)
(0.0636583 0 -0.324175)
(-0.0121787 0 -0.361874)
(0.0602525 0 -0.239993)
(-0.0312042 0 -0.267635)
(0.0547692 0 -0.175667)
(-0.0488977 0 -0.195225)
(0.0477444 0 -0.127634)
(-0.0667393 0 -0.140658)
(0.0395571 0 -0.092822)
(-0.0847656 0 -0.100547)
(0.0306775 0 -0.0683554)
(-0.103115 0 -0.0722159)
(0.0213012 0 -0.0512157)
(-0.121401 0 -0.0524918)
(0.011061 0 -0.0389758)
(-0.139227 0 -0.0382769)
(-0.000583512 0 -0.0303078)
(-0.15696 0 -0.0278682)
(-0.0137253 0 -0.0244216)
(-0.175165 0 -0.0205349)
(-0.0278651 0 -0.0205398)
(-0.194116 0 -0.015727)
(-0.0428963 0 -0.0179643)
(-0.214197 0 -0.0125268)
(-0.0587447 0 -0.0162778)
(-0.234699 0 -0.0103497)
(-0.0752077 0 -0.0152613)
(-0.255642 0 -0.00894112)
(-0.0920733 0 -0.0146707)
(-0.277053 0 -0.00801698)
(-0.109145 0 -0.0141499)
(-0.298934 0 -0.00726486)
(-0.126365 0 -0.0131942)
(-0.321222 0 -0.0063096)
(-0.14395 0 -0.0112537)
(-0.343715 0 -0.00470753)
(-0.16262 0 -0.00806433)
(-0.365907 0 -0.00199117)
(-0.183793 0 -0.00423627)
(-0.38687 0 0.00177043)
(-0.207579 0 -0.00112791)
(-0.406831 0 0.00515542)
(-0.231658 0 0.000753059)
(-0.426433 0 0.00674293)
(-0.254112 0 0.00246187)
(-0.44537 0 0.00701314)
(-0.273019 0 0.0051754)
(-0.462587 0 0.00735019)
(-0.286265 0 0.00783977)
(-0.476054 0 0.0083518)
(-0.295066 0 0.00807242)
(-0.484442 0 0.00921983)
(-0.490748 0 0.00816019)
(-0.00532479 0 -0.684981)
(-0.0222063 0 -0.728953)
(-0.0338161 0 -0.548322)
(-0.0495431 0 -0.597579)
(-0.0697652 0 -0.412457)
(-0.122132 0 -0.447068)
(-0.105127 0 -0.30485)
(-0.173896 0 -0.329636)
(-0.139007 0 -0.221222)
(-0.227179 0 -0.237477)
(-0.170862 0 -0.157986)
(-0.274786 0 -0.16754)
(-0.200906 0 -0.111195)
(-0.317966 0 -0.115163)
(-0.229642 0 -0.0778466)
(-0.357659 0 -0.0767377)
(-0.25701 0 -0.0549889)
(-0.395495 0 -0.0500765)
(-0.282935 0 -0.0389958)
(-0.432766 0 -0.032014)
(-0.307805 0 -0.0270222)
(-0.468456 0 -0.0190974)
(-0.332013 0 -0.0179968)
(-0.500364 0 -0.00963934)
(-0.356193 0 -0.0114769)
(-0.529544 0 -0.00275743)
(-0.380963 0 -0.00694762)
(-0.556618 0 0.0020538)
(-0.406151 0 -0.00398583)
(-0.582489 0 0.00512766)
(-0.431473 0 -0.00208069)
(-0.607475 0 0.00697906)
(-0.457105 0 -0.000684577)
(-0.631794 0 0.00818554)
(-0.483363 0 0.000551856)
(-0.655594 0 0.009114)
(-0.510364 0 0.00184699)
(-0.679061 0 0.00993397)
(-0.537784 0 0.00339589)
(-0.702391 0 0.0107442)
(-0.564692 0 0.00542454)
(-0.725553 0 0.0116327)
(-0.589386 0 0.00798733)
(-0.747961 0 0.0126499)
(-0.609902 0 0.0104614)
(-0.768231 0 0.0136474)
(-0.626359 0 0.0118445)
(-0.784936 0 0.0144578)
(-0.640521 0 0.0118374)
(-0.79923 0 0.0145587)
(-0.653296 0 0.0111445)
(-0.812012 0 0.013897)
(-0.664571 0 0.0107232)
(-0.823338 0 0.0132819)
(-0.67407 0 0.0106801)
(-0.833043 0 0.0132314)
(-0.681596 0 0.0101737)
(-0.840694 0 0.012995)
(-0.845063 0 0.0118651)
(-0.0561731 0 -0.640288)
(-0.0578462 0 -0.673935)
(-0.136954 0 -0.491835)
(-0.134894 0 -0.520328)
(-0.217348 0 -0.358322)
(-0.257382 0 -0.372002)
(-0.293007 0 -0.256263)
(-0.355745 0 -0.26066)
(-0.36141 0 -0.178861)
(-0.447797 0 -0.176589)
(-0.422121 0 -0.121205)
(-0.529082 0 -0.114775)
(-0.475973 0 -0.078208)
(-0.600127 0 -0.0694654)
(-0.525414 0 -0.0462119)
(-0.662085 0 -0.0357742)
(-0.573023 0 -0.0233895)
(-0.714001 0 -0.0115621)
(-0.619093 0 -0.00827396)
(-0.759255 0 0.00437521)
(-0.661304 0 0.00120821)
(-0.799368 0 0.0134565)
(-0.698223 0 0.0072627)
(-0.834493 0 0.0181609)
(-0.730222 0 0.0113705)
(-0.865546 0 0.0207687)
(-0.758269 0 0.0141033)
(-0.893207 0 0.0221873)
(-0.783717 0 0.0157664)
(-0.918262 0 0.0229637)
(-0.807546 0 0.0167106)
(-0.941809 0 0.0232863)
(-0.829969 0 0.017235)
(-0.964055 0 0.0231683)
(-0.850978 0 0.0175318)
(-0.98495 0 0.0228201)
(-0.870763 0 0.0177382)
(-1.00453 0 0.0225366)
(-0.889733 0 0.0179455)
(-1.02313 0 0.0225427)
(-0.908228 0 0.0181934)
(-1.04122 0 0.0228636)
(-0.926167 0 0.0184619)
(-1.05901 0 0.0232862)
(-0.94306 0 0.0186237)
(-1.07614 0 0.0234268)
(-0.958088 0 0.0184039)
(-1.09177 0 0.022952)
(-0.970927 0 0.0176327)
(-1.10527 0 0.0216447)
(-0.981888 0 0.0166115)
(-1.11665 0 0.0198033)
(-0.991234 0 0.0158098)
(-1.12624 0 0.018199)
(-0.999004 0 0.0151554)
(-1.1344 0 0.0172227)
(-1.00569 0 0.0142313)