/*--------------------------------*- C++ -*----------------------------------*\
  =========                 |
  \\      /  F ield         | OpenFOAM: The Open Source CFD Toolbox
   \\    /   O peration     | Website:  https://openfoam.org
    \\  /    A nd           | Version:  dev
     \\/     M anipulation  |
\*---------------------------------------------------------------------------*/
FoamFile
{
    version     2.0;
    format      ascii;
    class       surfaceScalarField;
    location    "0.4";
    object      phi;
}
// * * * * * * * * * * * * * * * * * * * * * * * * * * * * * * * * * * * * * //

dimensions      [0 3 -1 0 0 0 0];

internalField   nonuniform List<scalar> 
5457
(
0.198423
0.00157711
0.196497
0.00192633
0.194226
0.00227061
0.191567
0.00265907
0.188518
0.00304903
0.185082
0.00343623
0.181253
0.00382893
0.177018
0.0042344
0.172361
0.00465762
0.167258
0.00510239
0.161686
0.00557183
0.155618
0.00606842
0.149024
0.00659365
0.141877
0.00714761
0.134148
0.00772847
0.125817
0.00833166
0.116868
0.00894897
0.1073
0.00956738
0.0971326
0.0101677
0.0864096
0.010723
0.0752124
0.0111972
0.0636691
0.0115433
0.0519679
0.0117012
0.0403715
0.0115964
0.029234
0.0111375
0.0190187
0.0102153
0.0103112
0.00870749
0.0038148
0.00649641
0.000215359
0.00359944
0.000215359
0.199933
0.00164367
0.199192
0.00266759
0.197999
0.00346386
0.196391
0.00426741
0.194363
0.00507644
0.191914
0.00588514
0.189038
0.00670544
0.185722
0.00755063
0.181948
0.00843071
0.177697
0.00935353
0.172943
0.0103257
0.167659
0.0113525
0.161816
0.0124374
0.155382
0.0135814
0.148329
0.0147817
0.14063
0.0160303
0.132267
0.0173125
0.12323
0.0186041
0.113528
0.0198695
0.103193
0.0210584
0.0922859
0.0221038
0.08091
0.0229192
0.0692139
0.0233974
0.0573995
0.0234108
0.0457229
0.0228141
0.0344844
0.0214538
0.0240005
0.0191914
0.014547
0.0159499
0.00632715
0.0118192
0.00654251
0.199786
0.00185801
0.199103
0.00335063
0.197979
0.00458783
0.196466
0.0057804
0.19457
0.00697178
0.19229
0.0081657
0.189619
0.00937613
0.186549
0.0106205
0.183067
0.0119134
0.179153
0.0132667
0.174788
0.0146906
0.169948
0.0161933
0.164604
0.0177811
0.158729
0.0194566
0.152292
0.0212179
0.145266
0.0230563
0.137625
0.0249538
0.129349
0.0268802
0.120429
0.0287897
0.110871
0.0306165
0.100702
0.0322722
0.0899786
0.0336429
0.0787876
0.0345884
0.0672531
0.0349453
0.0555317
0.0345355
0.0438017
0.0331837
0.0322424
0.0307507
0.0210106
0.0271818
0.0102032
0.0226266
0.0167457
0.199708
0.00214987
0.199024
0.00403526
0.19792
0.0056916
0.196432
0.00726805
0.194574
0.00882974
0.192346
0.0103942
0.189743
0.0119787
0.18676
0.0136033
0.183387
0.0152863
0.179611
0.0170429
0.175416
0.0188861
0.170782
0.0208268
0.16569
0.0228734
0.160116
0.0250304
0.154036
0.0272974
0.147426
0.0296663
0.140261
0.032119
0.132518
0.0346238
0.124177
0.0371308
0.115225
0.0395679
0.105661
0.0418364
0.0954959
0.043808
0.08476
0.0453243
0.0735045
0.0462008
0.061802
0.046238
0.0497427
0.045243
0.0374276
0.0430658
0.0249607
0.0396486
0.0124164
0.035171
0.0291621
0.199672
0.00247743
0.19898
0.00472794
0.197895
0.00677635
0.196436
0.00872677
0.194617
0.0106488
0.192439
0.0125721
0.1899
0.0145184
0.186993
0.0165103
0.18371
0.0185688
0.180041
0.0207119
0.175973
0.0229548
0.171489
0.0253105
0.166573
0.027789
0.161207
0.0303965
0.155371
0.0331338
0.149043
0.0359944
0.1422
0.0389613
0.13482
0.0420039
0.126878
0.0450735
0.118347
0.0480983
0.109205
0.0509788
0.0994291
0.0535836
0.0890049
0.0557485
0.0779264
0.0572793
0.0662022
0.0579622
0.05386
0.0575852
0.0409519
0.0559739
0.027564
0.0530366
0.0138065
0.0489285
0.0429685
0.199658
0.00281965
0.198964
0.00542154
0.197903
0.00783791
0.196481
0.0101483
0.19471
0.0124195
0.192593
0.0146894
0.190127
0.0169848
0.187306
0.0193309
0.184124
0.0217508
0.180571
0.0242651
0.176634
0.0268911
0.172301
0.0296436
0.167556
0.0325342
0.162382
0.0355705
0.156761
0.038755
0.150672
0.042083
0.144094
0.0455399
0.136999
0.0490983
0.129359
0.0527135
0.121139
0.0563192
0.112296
0.0598213
0.102785
0.0630944
0.0925564
0.0659775
0.0815604
0.0682753
0.0697578
0.0697648
0.0571312
0.0702118
0.0437017
0.0694034
0.0295539
0.0671843
0.0148455
0.0636368
0.0578141
0.199655
0.00316467
0.198969
0.00610717
0.197936
0.00887135
0.196559
0.0115256
0.194845
0.0141329
0.192799
0.0167359
0.190417
0.0193661
0.187697
0.0220514
0.18463
0.0248173
0.181209
0.0276864
0.177422
0.0306783
0.173256
0.0338094
0.168697
0.0370933
0.163728
0.0405395
0.15833
0.0441525
0.152483
0.0479301
0.146162
0.0518616
0.139336
0.0559242
0.131969
0.0600802
0.124016
0.0642717
0.115422
0.0684158
0.106118
0.0723987
0.096025
0.0760702
0.0850593
0.0792409
0.0731412
0.0816829
0.0602147
0.0831383
0.0462746
0.0833435
0.0314057
0.0820533
0.0158092
0.0792333
0.0736232
0.19966
0.00350513
0.19899
0.00677704
0.19799
0.0098711
0.196663
0.0128522
0.195016
0.0157805
0.19305
0.0187015
0.190766
0.0216507
0.188158
0.0246587
0.185222
0.0277533
0.18195
0.0309591
0.17833
0.0342977
0.174352
0.0377879
0.17
0.0414451
0.165258
0.0452812
0.160107
0.0493036
0.154523
0.0535139
0.148479
0.0579061
0.141939
0.0624643
0.134859
0.0671597
0.127185
0.0719465
0.118844
0.0767568
0.109748
0.081494
0.0997928
0.0860257
0.088858
0.0901757
0.0768232
0.0937178
0.0635889
0.0963726
0.049114
0.0978184
0.0334703
0.097697
0.0168941
0.0958095
0.0905173
0.199669
0.00383612
0.199021
0.00742471
0.198061
0.0108315
0.196791
0.0141218
0.195217
0.0173545
0.193342
0.0205769
0.191165
0.0238277
0.188683
0.0271403
0.185892
0.0305445
0.182784
0.0340669
0.179351
0.0377314
0.17558
0.0415587
0.171458
0.0455668
0.166969
0.0497705
0.162092
0.0541806
0.156802
0.0588035
0.151069
0.0636395
0.144852
0.0686811
0.1381
0.0739111
0.130748
0.0792986
0.12271
0.0847949
0.113878
0.0903266
0.104117
0.0957865
0.0932702
0.101022
0.0811668
0.105821
0.0676466
0.109893
0.052605
0.11286
0.036069
0.114233
0.0182883
0.11359
0.108806
0.199682
0.0041541
0.199062
0.00804491
0.198146
0.0117472
0.196939
0.0153285
0.195446
0.0188477
0.19367
0.0223535
0.19161
0.0258874
0.189265
0.0294848
0.186632
0.0331779
0.183704
0.0369951
0.180473
0.0409623
0.176929
0.0451025
0.173059
0.0494364
0.168848
0.0539818
0.164275
0.0587539
0.159314
0.0637644
0.153932
0.069021
0.148087
0.0745263
0.141722
0.0802765
0.134762
0.0862587
0.127109
0.0924475
0.118637
0.098799
0.109182
0.105242
0.0985435
0.111661
0.0864866
0.117878
0.0727619
0.123618
0.0571527
0.128469
0.0395739
0.131812
0.0202294
0.132935
0.129035
0.199698
0.00445642
0.199109
0.00863334
0.198243
0.0126133
0.197105
0.0164669
0.195699
0.0202536
0.194029
0.0240238
0.192095
0.0278206
0.189898
0.031682
0.187434
0.0356417
0.184699
0.0397301
0.181687
0.043975
0.178388
0.0484015
0.174791
0.053033
0.170882
0.0578907
0.166642
0.0629941
0.162046
0.0683609
0.15706
0.0740068
0.151641
0.0799454
0.14573
0.0861875
0.139248
0.0927407
0.132088
0.0996066
0.12411
0.106777
0.115124
0.114227
0.104885
0.1219
0.0930809
0.129682
0.0793378
0.137361
0.0632538
0.144553
0.0445051
0.15056
0.0230917
0.154348
0.152127
0.199715
0.00474101
0.199162
0.00918648
0.19835
0.0134255
0.197285
0.017532
0.195972
0.0215666
0.194415
0.0255808
0.192616
0.0296197
0.190575
0.0337229
0.188291
0.0379256
0.185761
0.04226
0.182981
0.0467555
0.179943
0.0514394
0.176638
0.0563375
0.173055
0.0614742
0.169175
0.0668734
0.164978
0.0725585
0.160431
0.0785533
0.155494
0.0848823
0.15011
0.0915716
0.144201
0.0986498
0.13766
0.106148
0.13034
0.114098
0.122036
0.122532
0.112465
0.131471
0.10124
0.140908
0.0878349
0.150765
0.0715736
0.160815
0.0516801
0.170454
0.0275668
0.178461
0.179694
0.199735
0.00500625
0.19922
0.00970147
0.198465
0.0141803
0.197477
0.0185196
0.196262
0.0227817
0.194824
0.027019
0.193166
0.0312779
0.191289
0.0355996
0.189194
0.0400206
0.18688
0.0445745
0.184343
0.0492921
0.18158
0.0542024
0.178584
0.0593333
0.175346
0.0647122
0.171853
0.0703667
0.168086
0.0763255
0.16402
0.0826196
0.159619
0.0892834
0.154833
0.0963572
0.149594
0.103889
0.143803
0.111938
0.137322
0.120579
0.12995
0.129903
0.121396
0.140026
0.11122
0.151083
0.0987635
0.163222
0.0830164
0.176562
0.0624686
0.191002
0.0351067
0.205823
0.2148
0.199755
0.00525088
0.199281
0.010176
0.198587
0.0148745
0.19768
0.0194263
0.196567
0.0238948
0.195252
0.0283333
0.193741
0.0327897
0.192034
0.0373058
0.190136
0.0419195
0.188045
0.0466653
0.185762
0.0515749
0.183285
0.0566789
0.180612
0.0620067
0.177736
0.0675879
0.17465
0.073453
0.17134
0.079635
0.16779
0.0861704
0.163971
0.0931016
0.159849
0.10048
0.155368
0.10837
0.150453
0.116853
0.144993
0.126039
0.138822
0.136074
0.131684
0.147163
0.123171
0.159596
0.112595
0.173799
0.0987253
0.190431
0.0792009
0.210526
0.0491726
0.235851
0.263973
0.199777
0.00547394
0.199345
0.0106082
0.198713
0.015506
0.19789
0.0202492
0.196883
0.0249025
0.195696
0.0295202
0.194335
0.0341506
0.192804
0.0388367
0.191107
0.0436168
0.189246
0.0485259
0.187224
0.0535967
0.185043
0.0588603
0.182702
0.0643473
0.180202
0.0700885
0.177538
0.0761164
0.174707
0.0824664
0.171699
0.0891785
0.1685
0.0963002
0.165091
0.103889
0.161441
0.11202
0.157506
0.120787
0.153223
0.130322
0.148494
0.140804
0.143166
0.152491
0.136985
0.165776
0.129494
0.18129
0.119764
0.200161
0.105531
0.224759
0.0793021
0.26208
0.343275
-0.0133497
0.0133497
-0.0303952
0.0170456
-0.0490877
0.0186925
-0.0686991
0.0196114
-0.0887749
0.0200757
-0.108995
0.0202203
-0.129092
0.0200964
-0.14881
0.0197185
-0.167891
0.0190812
-0.186058
0.0181665
-0.203006
0.0169485
-0.218403
0.0153971
-0.231887
0.0134837
-0.243073
0.0111856
-0.251568
0.00849473
-0.256991
0.00542301
-0.258965
0.00197472
-0.257201
-0.00176416
-0.251437
-0.00576432
-0.241597
-0.00983999
-0.227749
-0.0138476
-0.210072
-0.017677
-0.188834
-0.0212387
-0.164362
-0.024471
-0.137003
-0.0273594
-0.107029
-0.0299737
-0.0743807
-0.0326488
-0.037911
-0.0364697
0.00549584
-0.0434068
-0.0567501
-0.0173126
0.0306623
-0.0354176
0.0351505
-0.0543009
0.0375758
-0.0737912
0.0391017
-0.0936192
0.0399037
-0.113522
0.0401233
-0.133251
0.0398249
-0.152558
0.039026
-0.171188
0.0377114
-0.188864
0.0358426
-0.205281
0.0333656
-0.220103
0.0302187
-0.232962
0.0263423
-0.243467
0.0216907
-0.251219
0.016247
-0.255825
0.0100286
-0.256946
0.00309618
-0.254319
-0.00439118
-0.247798
-0.0122853
-0.237345
-0.0202934
-0.223027
-0.0281653
-0.205013
-0.0356905
-0.18356
-0.042692
-0.158989
-0.0490418
-0.131645
-0.0547039
-0.101802
-0.0598166
-0.069469
-0.0649818
-0.0340782
-0.0718605
0.00567594
-0.083161
-0.101903
-0.0179951
0.0486574
-0.0361804
0.0533358
-0.0546491
0.0560445
-0.0734112
0.0578638
-0.0923362
0.0588288
-0.111251
0.0590382
-0.129963
0.0585368
-0.148264
0.0573268
-0.165925
0.0553726
-0.18269
0.0526079
-0.198269
0.0489443
-0.212332
0.0442821
-0.224516
0.0385257
-0.234426
0.0316006
-0.241655
0.0234763
-0.245814
0.0141881
-0.246542
0.00382339
-0.243617
-0.00731546
-0.236872
-0.0190304
-0.226301
-0.0308648
-0.211996
-0.0424704
-0.194135
-0.0535514
-0.172976
-0.0638506
-0.14885
-0.0731679
-0.122117
-0.0814367
-0.0930979
-0.0888358
-0.0619859
-0.0960938
-0.0287522
-0.105094
0.00669546
-0.118609
-0.138203
-0.0172963
0.0659537
-0.0347236
0.0707631
-0.0522449
0.0735658
-0.0698917
0.0755107
-0.0876074
0.0765444
-0.105293
0.0767235
-0.122813
0.0760575
-0.140004
0.0745169
-0.156662
0.0720314
-0.172548
0.068494
-0.187374
0.0637701
-0.200804
0.0577119
-0.212456
0.0501777
-0.221913
0.0410572
-0.228741
0.0303047
-0.23252
0.0179667
-0.232912
0.00421536
-0.229666
-0.0105606
-0.222709
-0.0259874
-0.212075
-0.0414991
-0.197882
-0.0566636
-0.180313
-0.07112
-0.159624
-0.0845399
-0.13615
-0.0966416
-0.110274
-0.107313
-0.0823773
-0.116733
-0.0528036
-0.125667
-0.0220213
-0.135876
0.00917729
-0.149807
-0.167789
-0.0158831
0.0818368
-0.0319162
0.0867962
-0.0480158
0.0896654
-0.0642071
0.091702
-0.0804674
0.0928048
-0.0967428
0.0929989
-0.112939
0.0922532
-0.128918
0.0904965
-0.144498
0.0876114
-0.159443
0.0834385
-0.17346
0.0777871
-0.1862
0.0704522
-0.197262
0.0612396
-0.206203
0.0499987
-0.212567
0.0366683
-0.215923
0.0213231
-0.2159
0.00419155
-0.212342
-0.0141181
-0.205211
-0.0331185
-0.194603
-0.0521073
-0.180663
-0.0706036
-0.163571
-0.0882119
-0.143566
-0.104545
-0.120985
-0.119223
-0.0962263
-0.132071
-0.0697419
-0.143217
-0.0420199
-0.153389
-0.0139446
-0.163952
0.0133283
-0.17708
-0.192238
-0.013972
0.0958088
-0.0281554
0.10098
-0.0424472
0.103957
-0.0568728
0.106128
-0.0714288
0.107361
-0.0860869
0.107657
-0.100776
0.106943
-0.115379
0.105099
-0.129724
0.101956
-0.143578
0.0972931
-0.156648
0.0908564
-0.168573
0.0823774
-0.178936
0.0716026
-0.187272
0.0583349
-0.193099
0.0424955
-0.195981
0.0242055
-0.195503
0.00371363
-0.191621
-0.0180009
-0.184366
-0.0403735
-0.173901
-0.0625724
-0.160389
-0.0841155
-0.14399
-0.104611
-0.124907
-0.123627
-0.103473
-0.140657
-0.0800932
-0.155451
-0.0552839
-0.168026
-0.0296355
-0.179038
-0.00433537
-0.189252
0.0192213
-0.200637
-0.212689
-0.0116786
0.107487
-0.0236631
0.112964
-0.0358274
0.116121
-0.0482018
0.118502
-0.0607975
0.119956
-0.0736031
0.120463
-0.0865639
0.119903
-0.0995761
0.118112
-0.112479
0.114858
-0.125046
0.109861
-0.136986
0.102796
-0.147932
0.0933236
-0.157455
0.0811254
-0.165067
0.0659474
-0.170257
0.0476855
-0.172552
0.0265008
-0.171681
0.0028422
-0.167489
-0.0221929
-0.160192
-0.0476708
-0.150022
-0.0727417
-0.137146
-0.0969913
-0.121682
-0.120075
-0.103777
-0.141532
-0.0837476
-0.160687
-0.0619993
-0.177199
-0.039108
-0.190918
-0.0157682
-0.202378
0.00662822
-0.211648
0.0268998
-0.220908
-0.229919
-0.00908819
0.116576
-0.0185937
0.12247
-0.0283578
0.125886
-0.0384192
0.128563
-0.0488017
0.130339
-0.0595084
0.131169
-0.0704976
0.130893
-0.0816785
0.129292
-0.0929028
0.126083
-0.103957
0.120915
-0.114557
0.113395
-0.124341
0.103108
-0.132875
0.0896594
-0.139657
0.0727297
-0.144146
0.0521737
-0.14585
0.0282053
-0.144503
0.00149468
-0.14005
-0.0266456
-0.132823
-0.0548975
-0.123133
-0.0824317
-0.111121
-0.109004
-0.0968405
-0.134356
-0.0803636
-0.158009
-0.061985
-0.179066
-0.0421039
-0.197081
-0.0213285
-0.211693
-0.000666165
-0.22304
0.0188195
-0.231134
0.0363766
-0.238465
-0.244412
-0.00627042
0.122846
-0.0130751
0.129274
-0.0202093
0.13302
-0.0277246
0.136079
-0.0356576
0.138272
-0.044026
0.139538
-0.0527999
0.139666
-0.0619017
0.138394
-0.0711984
0.135379
-0.0804949
0.130212
-0.0895257
0.122426
-0.0979455
0.111528
-0.105328
0.0970423
-0.111168
0.0785696
-0.114899
0.0559046
-0.115974
0.0292803
-0.114162
-0.000317063
-0.109529
-0.0312787
-0.102527
-0.0619
-0.0935267
-0.0914319
-0.0826087
-0.119922
-0.0697467
-0.147218
-0.0549276
-0.172828
-0.0384149
-0.195578
-0.0206146
-0.214881
-0.00227804
-0.23003
0.0155668
-0.240885
0.0323825
-0.24795
0.0474801
-0.253563
-0.25651
-0.00329311
0.126139
-0.0072306
0.133212
-0.0115521
0.137341
-0.0163255
0.140852
-0.0216033
0.14355
-0.0274198
0.145354
-0.0337553
0.146002
-0.0405436
0.145183
-0.0476672
0.142503
-0.0549531
0.137498
-0.0621657
0.129639
-0.0689884
0.11835
-0.0750216
0.103076
-0.0797777
0.0833256
-0.0826952
0.0588221
-0.0831287
0.0297138
-0.0809299
-0.00251584
-0.0762701
-0.0359385
-0.0697046
-0.0684654
-0.0616351
-0.0995015
-0.0520325
-0.129524
-0.0407762
-0.158474
-0.0278046
-0.1858
-0.0132923
-0.21009
0.00212104
-0.230294
0.0176783
-0.245587
0.0328849
-0.256091
0.047342
-0.262407
0.0600427
-0.266264
-0.266417
-0.000267319
0.126406
-0.00118564
0.13413
-0.00257313
0.138729
-0.00445058
0.142729
-0.00691191
0.146011
-0.0100066
0.148449
-0.0137244
0.14972
-0.0180024
0.149461
-0.0227371
0.147238
-0.0277682
0.142529
-0.0328993
0.13477
-0.0378463
0.123297
-0.042262
0.107491
-0.0457259
0.0867895
-0.0477306
0.0608267
-0.0476358
0.029619
-0.0451318
-0.00501985
-0.040709
-0.0403612
-0.0348718
-0.0743026
-0.0280161
-0.106357
-0.0199344
-0.137606
-0.0103676
-0.168041
0.00063355
-0.196801
0.0127495
-0.222206
0.0255099
-0.243055
0.0385837
-0.258661
0.0514442
-0.268952
0.0634952
-0.274458
0.0738399
-0.276608
-0.274251
0.00284017
0.123566
0.00494176
0.132028
0.00653083
0.13714
0.00762704
0.141633
0.0080731
0.145565
0.00779898
0.148723
0.00681395
0.150705
0.00518453
0.15109
0.00299731
0.149425
0.000331524
0.145195
-0.00243613
0.137537
-0.0052395
0.126101
-0.00781767
0.110069
-0.00976084
0.0887327
-0.0104285
0.0614944
-0.00940413
0.0285946
-0.00664481
-0.00777917
-0.00294633
-0.0440597
0.00136508
-0.078614
0.00669349
-0.111686
0.0131019
-0.144014
0.0207182
-0.175657
0.0294798
-0.205563
0.0392803
-0.232007
0.049782
-0.253556
0.0605165
-0.269395
0.0709703
-0.279406
0.0805912
-0.284079
0.0886105
-0.284628
-0.280082
0.00604939
0.117517
0.0111073
0.126971
0.0156524
0.132595
0.0197446
0.137541
0.0230943
0.142215
0.025614
0.146203
0.0273383
0.14898
0.0283553
0.150073
0.0287827
0.148998
0.0287746
0.145203
0.0284112
0.137901
0.0279426
0.126569
0.0275673
0.110445
0.0276012
0.0886988
0.0284583
0.0606374
0.0301548
0.0268981
0.032422
-0.0100464
0.0349288
-0.0465665
0.0378664
-0.0815517
0.0415009
-0.11532
0.0461234
-0.148637
0.0518824
-0.181416
0.0587251
-0.212405
0.0664631
-0.239745
0.0747445
-0.261838
0.0831304
-0.277781
0.0911558
-0.287431
0.0983442
-0.291267
0.104068
-0.290352
-0.283956
0.00966654
0.10785
0.0171957
0.119441
0.0246871
0.125103
0.0318045
0.130424
0.0379852
0.136035
0.0431866
0.141002
0.0475111
0.144656
0.05108
0.146504
0.0540284
0.146049
0.0565036
0.142727
0.0586083
0.135796
0.0605264
0.124651
0.0624437
0.108527
0.0645738
0.0865687
0.0669294
0.0582818
0.0691566
0.0246709
0.0708356
-0.0117254
0.0722106
-0.0479415
0.0736737
-0.0830148
0.0757357
-0.117382
0.0787773
-0.151678
0.0829227
-0.185561
0.0880426
-0.217525
0.0938571
-0.245559
0.0999964
-0.267977
0.106064
-0.283849
0.111672
-0.293039
0.116447
-0.296042
0.119913
-0.293818
-0.285911
0.0144608
0.0933895
0.0226759
0.111226
0.0335734
0.114206
0.0437836
0.120213
0.0526213
0.127197
0.0602971
0.133326
0.0670169
0.137936
0.0729415
0.14058
0.0782245
0.140766
0.0830168
0.137935
0.0874191
0.131394
0.091572
0.120498
0.0955918
0.104508
0.0994823
0.0826781
0.102951
0.054813
0.105526
0.0220963
0.10691
-0.01311
0.10742
-0.0484506
0.10774
-0.0833355
0.108608
-0.11825
0.110464
-0.153535
0.113349
-0.188446
0.117005
-0.221182
0.121066
-0.249621
0.125161
-0.272071
0.12896
-0.287648
0.132184
-0.296263
0.134583
-0.298441
0.135838
-0.295073
-0.285996
0.207452
0.00568193
0.207049
0.0110109
0.206462
0.0160931
0.205699
0.0210123
0.204767
0.0258342
0.203674
0.0306137
0.202425
0.0353995
0.201026
0.0402351
0.199484
0.045159
0.197804
0.0502065
0.19599
0.0554105
0.194048
0.0608022
0.191983
0.0664125
0.189799
0.0722727
0.187499
0.0784156
0.185089
0.0848773
0.182568
0.0916989
0.17994
0.0989288
0.177203
0.106626
0.174356
0.114866
0.171398
0.123746
0.168326
0.133394
0.16514
0.143989
0.161853
0.155778
0.158504
0.169126
0.155219
0.184575
0.152432
0.202948
0.152001
0.225191
0.165425
0.248656
0.261863
0.246838
0.212495
0.00586949
0.212133
0.0113736
0.211605
0.0166209
0.210921
0.0216965
0.210088
0.0266666
0.209115
0.0315865
0.20801
0.036505
0.20678
0.0414654
0.205432
0.0465064
0.203976
0.051663
0.202418
0.0569676
0.20077
0.062451
0.199039
0.0681434
0.197236
0.0740753
0.195373
0.0802786
0.193462
0.0867881
0.191519
0.0936427
0.189559
0.100888
0.187607
0.108579
0.185692
0.116781
0.183857
0.125581
0.182168
0.135084
0.18073
0.145427
0.179727
0.156781
0.179503
0.169349
0.180755
0.183323
0.184987
0.198716
0.194968
0.21521
0.21177
0.231854
0.247613
0.226019
0.217663
0.00603449
0.217344
0.0116924
0.216881
0.0170836
0.216283
0.0222941
0.21556
0.0273905
0.214718
0.0324277
0.213769
0.0374545
0.212721
0.0425137
0.211584
0.0476435
0.210369
0.052878
0.209087
0.0582488
0.207753
0.0637853
0.20638
0.0695164
0.204985
0.0754705
0.203586
0.081677
0.202207
0.0881673
0.200874
0.0949757
0.199621
0.102141
0.198492
0.109708
0.197545
0.117728
0.196862
0.126264
0.196561
0.135385
0.196819
0.145168
0.197909
0.155691
0.200256
0.167003
0.204486
0.179093
0.211378
0.191824
0.221559
0.205028
0.234622
0.218792
0.230561
0.251674
0.222956
0.00617495
0.222685
0.0119633
0.222293
0.0174757
0.221789
0.0227981
0.221183
0.0279971
0.220483
0.0331271
0.219701
0.0382364
0.218848
0.0433669
0.217936
0.0485558
0.216978
0.0538359
0.21599
0.0592371
0.214988
0.0647871
0.213992
0.0705123
0.213024
0.076438
0.212112
0.08259
0.211285
0.0889943
0.210582
0.0956784
0.210051
0.102672
0.209753
0.110005
0.209768
0.117713
0.210203
0.12583
0.211201
0.134386
0.212962
0.143408
0.215753
0.152899
0.219925
0.162831
0.225894
0.173124
0.234092
0.183626
0.24506
0.19406
0.25971
0.204142
0.211622
0.278648
0.228379
0.00628903
0.22816
0.0121829
0.227843
0.017792
0.22744
0.0232019
0.226958
0.0284786
0.22641
0.0336757
0.225805
0.0388404
0.225159
0.0440136
0.224484
0.0492307
0.223797
0.0545231
0.223115
0.0599185
0.22246
0.065442
0.221856
0.0711167
0.22133
0.0769643
0.220914
0.0830054
0.220649
0.0892599
0.22058
0.0957469
0.220767
0.102485
0.221281
0.109491
0.222215
0.116779
0.223686
0.124359
0.225842
0.132231
0.228872
0.140377
0.233011
0.14876
0.238539
0.157303
0.245782
0.165881
0.255115
0.174293
0.266981
0.182194
0.281867
0.189256
0.194433
0.299056
0.233934
0.00637508
0.233769
0.012348
0.233533
0.018028
0.233236
0.0234997
0.232886
0.0288279
0.232497
0.0340653
0.232079
0.0392576
0.231649
0.044444
0.231221
0.0496583
0.230815
0.0549295
0.230451
0.0602827
0.230153
0.0657402
0.229948
0.0713212
0.229869
0.077043
0.229954
0.0829206
0.230247
0.0889668
0.230802
0.0951923
0.231682
0.101604
0.232967
0.108206
0.234751
0.114995
0.23715
0.12196
0.240306
0.129075
0.244386
0.136298
0.249586
0.14356
0.256129
0.15076
0.264261
0.157749
0.274225
0.164329
0.286203
0.170216
0.300298
0.175161
0.178686
0.316045
0.239625
0.00643165
0.239517
0.0124557
0.239365
0.0181796
0.239179
0.0236864
0.238967
0.0290393
0.238743
0.0342894
0.23852
0.0394809
0.238313
0.0446509
0.23814
0.049831
0.238022
0.0550478
0.237981
0.0603236
0.238044
0.065677
0.238242
0.0711234
0.23861
0.0766753
0.239189
0.0823419
0.240026
0.0881291
0.24118
0.094039
0.242715
0.100069
0.24471
0.106211
0.247259
0.112447
0.250468
0.118751
0.254462
0.125081
0.259382
0.131378
0.265383
0.13756
0.272625
0.143517
0.281265
0.149109
0.29143
0.154165
0.303172
0.158474
0.316499
0.161833
0.163995
0.33119
0.245453
0.00645751
0.245405
0.0125038
0.245341
0.0182437
0.24527
0.0237579
0.245201
0.029108
0.245147
0.034343
0.245123
0.039505
0.245145
0.0446291
0.245232
0.0497443
0.245405
0.0548746
0.24569
0.060039
0.246114
0.0652528
0.24671
0.0705272
0.247515
0.0758699
0.248573
0.0812845
0.249931
0.0867705
0.251647
0.0923228
0.253787
0.0979301
0.256423
0.103574
0.259641
0.109229
0.263535
0.114856
0.268211
0.120406
0.273777
0.125811
0.280348
0.130989
0.28803
0.135835
0.296913
0.140227
0.307053
0.144024
0.318455
0.147072
0.331073
0.149215
0.150326
0.344742
0.251423
0.00645172
0.251436
0.0124905
0.251462
0.0182176
0.251509
0.0237113
0.251586
0.0290306
0.251707
0.0342225
0.251885
0.0393267
0.252138
0.044376
0.252486
0.0493967
0.25295
0.0544099
0.253558
0.0594316
0.254337
0.0644733
0.255322
0.0695425
0.25655
0.0746422
0.258063
0.0797713
0.25991
0.0849236
0.262145
0.0900878
0.264829
0.0952464
0.268028
0.100375
0.271818
0.105439
0.276276
0.110398
0.281485
0.115197
0.287528
0.119769
0.29448
0.124036
0.302407
0.127908
0.311353
0.131281
0.321331
0.134046
0.332311
0.136092
0.344217
0.137309
0.137639
0.356904
0.257537
0.0064136
0.257613
0.0124144
0.257731
0.0180997
0.257898
0.0235445
0.258123
0.0288052
0.258419
0.0339264
0.258801
0.0389452
0.259285
0.0438918
0.259892
0.0487899
0.260644
0.0536576
0.261568
0.0585078
0.262692
0.0633489
0.26405
0.0681846
0.265679
0.0730139
0.267618
0.0778316
0.269915
0.0826271
0.272618
0.0873846
0.275782
0.0920821
0.279466
0.0966911
0.28373
0.101175
0.288637
0.105491
0.294248
0.109585
0.300621
0.113396
0.307803
0.116855
0.315826
0.119884
0.324703
0.122404
0.334419
0.124331
0.344922
0.125588
0.356127
0.126105
0.125855
0.367911
0.263798
0.00634277
0.263938
0.0122749
0.264148
0.0178892
0.264436
0.0232568
0.26481
0.0284314
0.265282
0.0334547
0.265865
0.0383614
0.266578
0.0431789
0.26744
0.0479283
0.268473
0.0526247
0.269702
0.0572784
0.271156
0.0618945
0.272867
0.0664736
0.27487
0.0710116
0.277202
0.0754998
0.279904
0.0799246
0.283021
0.0842673
0.2866
0.0885034
0.290688
0.0926028
0.295335
0.0965292
0.300585
0.10024
0.306484
0.103687
0.313065
0.106815
0.320353
0.109566
0.328358
0.111879
0.337071
0.113691
0.346457
0.114944
0.356459
0.115586
0.36699
0.115574
0.114901
0.377945
0.270211
0.00623916
0.270414
0.012072
0.270717
0.0175861
0.271125
0.0228486
0.271646
0.0279101
0.272291
0.0328096
0.273074
0.0375788
0.27401
0.0422426
0.275119
0.0468194
0.276422
0.0513219
0.277943
0.0557574
0.279709
0.0601286
0.281749
0.0644335
0.284095
0.0686656
0.286781
0.0728138
0.289843
0.0768625
0.293319
0.0807915
0.297246
0.0845758
0.301663
0.0881856
0.306606
0.0915864
0.312107
0.0947392
0.318193
0.0976013
0.324881
0.100127
0.332179
0.102268
0.340081
0.103978
0.348561
0.105211
0.357578
0.105927
0.36707
0.106094
0.376957
0.105687
0.104712
0.387146
0.276777
0.00610298
0.277043
0.011806
0.277438
0.0171912
0.277965
0.0223214
0.278631
0.0272439
0.279446
0.0319946
0.280422
0.0366027
0.281575
0.0410903
0.282921
0.0454733
0.284481
0.0497621
0.286276
0.0539619
0.288332
0.0580729
0.290674
0.0620914
0.29333
0.0660091
0.296331
0.0698135
0.299705
0.0734882
0.303484
0.0770127
0.307697
0.0803628
0.312372
0.0835105
0.317534
0.0864244
0.323203
0.0890704
0.329392
0.0914124
0.336106
0.0934131
0.343338
0.0950356
0.351071
0.0962449
0.359273
0.0970093
0.367897
0.0973031
0.376883
0.0971079
0.386156
0.0964132
0.0952322
0.395636
0.283501
0.00593474
0.283829
0.0114781
0.284314
0.0167063
0.284957
0.0216778
0.285765
0.0264364
0.286744
0.031015
0.287907
0.0354401
0.289266
0.0397313
0.290837
0.0439022
0.292638
0.0479611
0.294689
0.0519112
0.29701
0.0557514
0.299625
0.0594763
0.302558
0.0630766
0.305832
0.0665395
0.309472
0.0698485
0.3135
0.0729841
0.317939
0.0759237
0.322808
0.0786419
0.328121
0.0811117
0.333887
0.0833041
0.340109
0.0851899
0.346783
0.0867399
0.353891
0.0879267
0.361411
0.0887256
0.369304
0.089116
0.377524
0.0890832
0.386013
0.0886189
0.394704
0.0877219
0.0864094
0.403527
0.290386
0.00573521
0.290774
0.0110898
0.291347
0.0161339
0.292103
0.0209214
0.293047
0.0254926
0.294184
0.0298774
0.295525
0.0340997
0.297079
0.0381767
0.298861
0.0421201
0.300886
0.0459361
0.303171
0.0496266
0.305733
0.0531893
0.308591
0.056618
0.311765
0.0599031
0.315273
0.0630319
0.319132
0.0659888
0.323361
0.0687558
0.327972
0.0713127
0.332976
0.0736377
0.33838
0.0757078
0.344184
0.0774997
0.350383
0.0789906
0.356965
0.0801586
0.363907
0.0809845
0.371181
0.081452
0.378747
0.0815492
0.386561
0.0812694
0.394568
0.0806115
0.40271
0.0795805
0.0781956
0.410924
0.297436
0.00550541
0.297882
0.0106432
0.298539
0.0154772
0.299404
0.0200567
0.300478
0.0244185
0.301766
0.0285897
0.303274
0.0325916
0.305011
0.0364391
0.306989
0.0401422
0.30922
0.0437056
0.311716
0.04713
0.314493
0.0504125
0.317565
0.0535465
0.320945
0.0565227
0.324648
0.059329
0.328685
0.0619513
0.333067
0.0643737
0.337802
0.0665786
0.342891
0.0685479
0.348336
0.0702631
0.35413
0.0717059
0.360261
0.0728595
0.366711
0.0737083
0.373456
0.0742398
0.380463
0.0744445
0.387695
0.0743171
0.395108
0.0738565
0.402653
0.0730669
0.410277
0.0719568
0.0705463
0.417926
0.304654
0.00524654
0.305157
0.0101405
0.305894
0.0147397
0.306862
0.0190888
0.30806
0.023221
0.309489
0.0271606
0.311154
0.0309265
0.313061
0.0345318
0.315219
0.0379845
0.317636
0.0412886
0.320322
0.0444438
0.323288
0.0474467
0.326543
0.050291
0.330098
0.052968
0.33396
0.0554668
0.338136
0.0577749
0.342631
0.0598787
0.347446
0.0617637
0.352579
0.0634152
0.358023
0.0648191
0.363767
0.0659617
0.369796
0.0668311
0.376086
0.0674174
0.382613
0.0677131
0.389343
0.0677143
0.39624
0.0674201
0.403263
0.0668339
0.410367
0.0659629
0.417506
0.0648179
0.0634187
0.424633
0.312045
0.00495996
0.312601
0.00958462
0.313415
0.0139257
0.31448
0.0180233
0.315794
0.0219073
0.317355
0.0255994
0.319166
0.029116
0.321229
0.0324685
0.32355
0.0356636
0.326134
0.0387042
0.328988
0.0415897
0.332118
0.0443167
0.33553
0.0468792
0.339229
0.0492695
0.343218
0.0514779
0.347499
0.053494
0.352071
0.0553065
0.356931
0.0569039
0.362071
0.0582749
0.367481
0.059409
0.373146
0.0602968
0.379046
0.0609306
0.385159
0.0613047
0.391456
0.061416
0.397906
0.0612643
0.404474
0.0608524
0.411122
0.0601861
0.41781
0.0592748
0.424497
0.0581305
0.0567719
0.431144
0.319612
0.00464715
0.320219
0.00897832
0.321105
0.0130394
0.322262
0.0168662
0.323684
0.0204853
0.325368
0.0239156
0.327312
0.0271716
0.329517
0.030263
0.331986
0.0331954
0.334719
0.0359709
0.33772
0.0385888
0.340991
0.0410457
0.344534
0.0433365
0.348349
0.0454542
0.352436
0.047391
0.356791
0.0491383
0.361411
0.0506871
0.366286
0.0520287
0.371406
0.0531548
0.376757
0.0540581
0.382321
0.0547327
0.388077
0.0551745
0.394001
0.055381
0.400065
0.0553524
0.406238
0.0550912
0.412487
0.0546026
0.41878
0.053894
0.425078
0.0529759
0.431348
0.0518605
0.0505654
0.437555
0.327361
0.00430959
0.328015
0.0083246
0.328969
0.0120854
0.330211
0.0156237
0.331734
0.0189627
0.33353
0.022119
0.335597
0.025105
0.337931
0.0279289
0.340531
0.0305954
0.343396
0.0331062
0.346524
0.0354603
0.349915
0.0376549
0.353566
0.0396854
0.357474
0.0415462
0.361635
0.0432308
0.36604
0.0447326
0.370683
0.0460448
0.37555
0.047161
0.38063
0.0480756
0.385904
0.0487841
0.391353
0.0492834
0.396956
0.0495719
0.402687
0.0496499
0.408519
0.0495198
0.414425
0.0491859
0.420372
0.0486548
0.426331
0.047935
0.43227
0.0470371
0.438158
0.0459732
0.0447594
0.443963
0.335295
0.00394874
0.335993
0.00762632
0.33701
0.0110681
0.338332
0.0143015
0.339948
0.0173471
0.341848
0.0202187
0.344027
0.0229269
0.346477
0.0254787
0.349194
0.027878
0.352174
0.0301258
0.355413
0.0322216
0.358905
0.0341626
0.362645
0.0359454
0.366626
0.0375653
0.37084
0.0390173
0.375276
0.0402965
0.379923
0.0413979
0.384766
0.0423174
0.38979
0.0430515
0.394977
0.0435979
0.400304
0.0439556
0.405751
0.0441251
0.411292
0.0441085
0.416903
0.0439096
0.422554
0.0435341
0.42822
0.0429891
0.433871
0.0422836
0.439481
0.0414277
0.445021
0.0404332
0.0393144
0.450466
0.343419
0.00356595
0.344159
0.00688614
0.345235
0.00999134
0.346632
0.0129054
0.348333
0.0156455
0.350329
0.0182233
0.352608
0.0206476
0.355163
0.0229241
0.357985
0.0250559
0.361067
0.0270439
0.364401
0.0288875
0.367979
0.0305847
0.371791
0.0321325