/*--------------------------------*- C++ -*----------------------------------*\
  =========                 |
  \\      /  F ield         | OpenFOAM: The Open Source CFD Toolbox
   \\    /   O peration     | Website:  https://openfoam.org
    \\  /    A nd           | Version:  dev
     \\/     M anipulation  |
\*---------------------------------------------------------------------------*/
FoamFile
{
    version     2.0;
    format      ascii;
    class       volVectorField;
    location    "0.4";
    object      U;
}
// * * * * * * * * * * * * * * * * * * * * * * * * * * * * * * * * * * * * * //

dimensions      [0 1 -1 0 0 0 0];

internalField   nonuniform List<vector> 
2790
(
(9.94409 0 0.0204624)
(9.87618 0 0.0294513)
(9.77636 0 0.0357646)
(9.65163 0 0.0422295)
(9.50768 0 0.048942)
(9.34547 0 0.0558504)
(9.16418 0 0.0630834)
(8.96297 0 0.0708009)
(8.74104 0 0.0791377)
(8.49747 0 0.0882136)
(8.23111 0 0.0981453)
(7.94067 0 0.109048)
(7.62474 0 0.121032)
(7.28188 0 0.134195)
(6.91069 0 0.148606)
(6.50991 0 0.164295)
(6.07858 0 0.181218)
(5.61628 0 0.199225)
(5.12335 0 0.218012)
(4.60125 0 0.237046)
(4.05296 0 0.255484)
(3.48348 0 0.272047)
(2.90038 0 0.284866)
(2.3145 0 0.291274)
(1.74067 0 0.28758)
(1.19876 0 0.268913)
(0.714804 0 0.229378)
(0.323 0 0.162724)
(0.0473549 0 0.0669076)
(-0.011612 0 -0.0636378)
(9.9986 0 0.0405137)
(9.98192 0 0.0619693)
(9.93691 0 0.0784685)
(9.86638 0 0.0956594)
(9.77461 0 0.113826)
(9.66262 0 0.132814)
(9.5298 0 0.152875)
(9.37535 0 0.174361)
(9.1985 0 0.197577)
(8.99833 0 0.222789)
(8.77372 0 0.250252)
(8.52335 0 0.280205)
(8.24579 0 0.312859)
(7.93954 0 0.34837)
(7.60309 0 0.386802)
(7.23502 0 0.42808)
(6.83417 0 0.471923)
(6.39978 0 0.517756)
(5.93176 0 0.564608)
(5.43099 0 0.61099)
(4.89968 0 0.654756)
(4.34174 0 0.692958)
(3.76324 0 0.721699)
(3.1727 0 0.736002)
(2.58138 0 0.729726)
(2.00316 0 0.69562)
(1.45392 0 0.625707)
(0.951298 0 0.512099)
(0.498539 0 0.350077)
(0.192744 0 0.117836)
(9.99569 0 0.0428863)
(9.97601 0 0.0745778)
(9.93292 0 0.102222)
(9.86702 0 0.130757)
(9.78126 0 0.16089)
(9.67675 0 0.192599)
(9.55319 0 0.226232)
(9.40999 0 0.262287)
(9.24651 0 0.30124)
(9.062 0 0.34353)
(8.8555 0 0.389582)
(8.62587 0 0.439808)
(8.37184 0 0.494581)
(8.09201 0 0.554194)
(7.78492 0 0.61881)
(7.44909 0 0.688379)
(7.08313 0 0.762536)
(6.68589 0 0.840463)
(6.25657 0 0.920727)
(5.79501 0 1.00109)
(5.30193 0 1.07829)
(4.77926 0 1.14787)
(4.23044 0 1.20402)
(3.66063 0 1.2395)
(3.07683 0 1.2458)
(2.48758 0 1.21367)
(1.90228 0 1.13438)
(1.33157 0 1.00208)
(0.770234 0 0.819833)
(0.321188 0 0.572975)
(9.99412 0 0.0490549)
(9.97225 0 0.0922464)
(9.92899 0 0.132022)
(9.86435 0 0.171989)
(9.78036 0 0.213459)
(9.67809 0 0.256837)
(9.55748 0 0.302651)
(9.4181 0 0.351565)
(9.25949 0 0.404231)
(9.08107 0 0.461269)
(8.88215 0 0.523285)
(8.66186 0 0.590865)
(8.4192 0 0.664557)
(8.15308 0 0.744824)
(7.86234 0 0.831981)
(7.54574 0 0.926103)
(7.20203 0 1.02689)
(6.82999 0 1.13352)
(6.42852 0 1.2444)
(5.99678 0 1.35697)
(5.5343 0 1.46738)
(5.04123 0 1.57033)
(4.51852 0 1.65882)
(3.96814 0 1.72419)
(3.39319 0 1.7564)
(2.7979 0 1.74481)
(2.18727 0 1.67985)
(1.56864 0 1.55564)
(0.930794 0 1.37705)
(0.392081 0 1.12284)
(9.99341 0 0.056646)
(9.97038 0 0.109733)
(9.92703 0 0.160125)
(9.86354 0 0.210518)
(9.78138 0 0.262572)
(9.68139 0 0.31706)
(9.56359 0 0.374655)
(9.42765 0 0.436113)
(9.27317 0 0.502196)
(9.09967 0 0.573643)
(8.90656 0 0.651172)
(8.69312 0 0.735485)
(8.45856 0 0.827243)
(8.20198 0 0.927028)
(7.92242 0 1.03528)
(7.61886 0 1.15218)
(7.2902 0 1.27755)
(6.93527 0 1.41066)
(6.55286 0 1.54999)
(6.14171 0 1.69296)
(5.70053 0 1.83563)
(5.22816 0 1.97245)
(4.72361 0 2.09598)
(4.18633 0 2.19695)
(3.61635 0 2.26448)
(3.01465 0 2.28702)
(2.38314 0 2.25396)
(1.72792 0 2.1581)
(1.03297 0 2.00356)
(0.433939 0 1.75911)
(9.99311 0 0.0648487)
(9.96967 0 0.127212)
(9.92665 0 0.187713)
(9.86459 0 0.248415)
(9.78464 0 0.311001)
(9.68742 0 0.376462)
(9.57296 0 0.4456)
(9.44099 0 0.519259)
(9.29117 0 0.598303)
(9.12305 0 0.683584)
(8.93611 0 0.775933)
(8.72972 0 0.876163)
(8.50315 0 0.98505)
(8.25559 0 1.10329)
(7.98617 0 1.23143)
(7.69393 0 1.3698)
(7.37781 0 1.51837)
(7.0366 0 1.67656)
(6.66892 0 1.84307)
(6.27316 0 2.01554)
(5.84741 0 2.19028)
(5.38947 0 2.36191)
(4.89692 0 2.52313)
(4.36724 0 2.66458)
(3.79817 0 2.77504)
(3.18825 0 2.84213)
(2.53715 0 2.85383)
(1.85086 0 2.80052)
(1.10908 0 2.68356)
(0.463175 0 2.45918)
(9.99306 0 0.0732638)
(9.9697 0 0.144564)
(9.92745 0 0.214665)
(9.86712 0 0.285271)
(9.78973 0 0.357996)
(9.69576 0 0.433982)
(9.5852 0 0.514178)
(9.45784 0 0.599531)
(9.31339 0 0.691007)
(9.15144 0 0.789559)
(8.97152 0 0.896126)
(8.77302 0 1.01162)
(8.55526 0 1.13693)
(8.31746 0 1.27286)
(8.05874 0 1.42009)
(7.77812 0 1.57908)
(7.47446 0 1.75)
(7.1464 0 1.9325)
(6.79231 0 2.1256)
(6.41019 0 2.32734)
(5.99752 0 2.5345)
(5.55122 0 2.74228)
(5.06763 0 2.94388)
(4.54265 0 3.1303)
(3.97207 0 3.29027)
(3.35241 0 3.41066)
(2.68135 0 3.47757)
(1.96517 0 3.47784)
(1.17935 0 3.4081)
(0.489365 0 3.20982)
(9.99316 0 0.081657)
(9.97024 0 0.161598)
(9.92913 0 0.240818)
(9.87086 0 0.320875)
(9.7964 0 0.403316)
(9.70611 0 0.48939)
(9.59998 0 0.580173)
(9.47786 0 0.676714)
(9.33949 0 0.78007)
(9.18451 0 0.89129)
(9.01248 0 1.01141)
(8.82285 0 1.14147)
(8.61494 0 1.28244)
(8.388 0 1.43526)
(8.14112 0 1.60076)
(7.87325 0 1.7796)
(7.58312 0 1.97215)
(7.26918 0 2.17841)
(6.9295 0 2.39779)
(6.56162 0 2.62887)
(6.16241 0 2.86915)
(5.72793 0 3.11462)
(5.25336 0 3.35937)
(4.73305 0 3.59514)
(4.16089 0 3.81095)
(3.53123 0 3.99301)
(2.83938 0 4.12525)
(2.09147 0 4.18992)
(1.25843 0 4.17685)
(0.519154 0 4.01005)
(9.99335 0 0.0898784)
(9.97114 0 0.178145)
(9.93151 0 0.266028)
(9.87561 0 0.35506)
(9.80441 0 0.446757)
(9.71822 0 0.542437)
(9.61704 0 0.643285)
(9.50074 0 0.750443)
(9.3691 0 0.865055)
(9.22185 0 0.988263)
(9.05856 0 1.12121)
(8.87874 0 1.26502)
(8.68177 0 1.42081)
(8.46688 0 1.58965)
(8.23316 0 1.77255)
(7.97951 0 1.97038)
(7.70454 0 2.18382)
(7.40651 0 2.41323)
(7.08319 0 2.65855)
(6.7317 0 2.91904)
(6.34832 0 3.19309)
(5.92825 0 3.47778)
(5.46549 0 3.76841)
(4.95275 0 4.05791)
(4.38171 0 4.33611)
(3.74394 0 4.58896)
(3.03126 0 4.79823)
(2.24818 0 4.94074)
(1.35982 0 4.99708)
(0.558767 0 4.86971)
(9.99362 0 0.0978245)
(9.97233 0 0.194063)
(9.93445 0 0.290151)
(9.88121 0 0.387664)
(9.8136 0 0.488115)
(9.7319 0 0.592873)
(9.63611 0 0.703212)
(9.52615 0 0.820361)
(9.40187 0 0.945547)
(9.26303 0 1.08)
(9.10929 0 1.22495)
(8.94019 0 1.38164)
(8.75517 0 1.55131)
(8.55352 0 1.73518)
(8.33434 0 1.93446)
(8.0965 0 2.15027)
(7.83856 0 2.38362)
(7.55867 0 2.63533)
(7.25437 0 2.90595)
(6.92245 0 3.19558)
(6.55868 0 3.50366)
(6.15752 0 3.82864)
(5.7118 0 4.16749)
(5.21248 0 4.51491)
(4.64858 0 4.86234)
(4.00794 0 5.19643)
(3.27693 0 5.49754)
(2.45553 0 5.73683)
(1.49972 0 5.88288)
(0.616182 0 5.80951)
(9.99393 0 0.105419)
(9.97372 0 0.209233)
(9.93783 0 0.313059)
(9.88753 0 0.418539)
(9.8238 0 0.527206)
(9.74694 0 0.640474)
(9.65696 0 0.759689)
(9.55382 0 0.886157)
(9.43744 0 1.02118)
(9.30765 0 1.16606)
(9.16417 0 1.32213)
(9.00662 0 1.49073)
(8.83453 0 1.67323)
(8.64724 0 1.87101)
(8.44392 0 2.08547)
(8.22351 0 2.31801)
(7.98458 0 2.57001)
(7.72524 0 2.8428)
(7.44299 0 3.1376)
(7.13446 0 3.45544)
(6.79512 0 3.79703)
(6.41889 0 4.16249)
(5.99764 0 4.55089)
(5.52065 0 4.95958)
(4.97404 0 5.38282)
(4.34077 0 5.8098)
(3.59925 0 6.22162)
(2.73989 0 6.58532)
(1.7021 0 6.85531)
(0.704412 0 6.86505)
(9.99429 0 0.112606)
(9.97528 0 0.22356)
(9.94158 0 0.334633)
(9.89445 0 0.447548)
(9.83487 0 0.563866)
(9.76315 0 0.685041)
(9.67934 0 0.812478)
(9.58345 0 0.947549)
(9.47546 0 1.09162)
(9.35526 0 1.24607)
(9.22268 0 1.41231)
(9.07744 0 1.59176)
(8.91914 0 1.78592)
(8.74725 0 1.99633)
(8.56106 0 2.22459)
(8.35961 0 2.47236)
(8.1416 0 2.74141)
(7.90529 0 3.03358)
(7.64826 0 3.3508)
(7.36725 0 3.6951)
(7.05776 0 4.06857)
(6.71358 0 4.47324)
(6.32613 0 4.91082)
(5.88351 0 5.38217)
(5.36921 0 5.88615)
(4.76089 0 6.41742)
(4.0264 0 6.96242)
(3.13942 0 7.48984)
(2.0074 0 7.9428)
(0.848529 0 8.09815)
(9.99468 0 0.119338)
(9.97698 0 0.236963)
(9.94563 0 0.354775)
(9.90187 0 0.474571)
(9.84668 0 0.59795)
(9.78037 0 0.726399)
(9.70303 0 0.861372)
(9.61475 0 1.00429)
(9.51555 0 1.15658)
(9.40544 0 1.31968)
(9.28431 0 1.49506)
(9.152 0 1.68423)
(9.00825 0 1.88879)
(8.85267 0 2.11042)
(8.68472 0 2.3509)
(8.50363 0 2.61215)
(8.30833 0 2.89628)
(8.09734 0 3.20561)
(7.86861 0 3.54278)
(7.61923 0 3.91079)
(7.34519 0 4.31311)
(7.04076 0 4.75381)
(6.69775 0 5.23755)
(6.30429 0 5.76955)
(5.84268 0 6.3551)
(5.28664 0 6.99826)
(4.59311 0 7.69858)
(3.71171 0 8.44074)
(2.49061 0 9.17713)
(1.10329 0 9.62574)
(9.9951 0 0.125581)
(9.97878 0 0.249379)
(9.94992 0 0.373398)
(9.9097 0 0.499507)
(9.85908 0 0.629339)
(9.7984 0 0.764408)
(9.7278 0 0.906207)
(9.64742 0 1.0562)
(9.55736 0 1.21585)
(9.45771 0 1.38663)
(9.34848 0 1.57008)
(9.22963 0 1.76777)
(9.10105 0 1.98138)
(8.96253 0 2.2127)
(8.81375 0 2.46365)
(8.65419 0 2.73638)
(8.48313 0 3.03328)
(8.29949 0 3.35708)
(8.10175 0 3.71101)
(7.88775 0 4.09892)
(7.65438 0 4.52553)
(7.39717 0 4.99677)
(7.10951 0 5.52022)
(6.78146 0 6.10569)
(6.39734 0 6.76605)
(5.9318 0 7.51825)
(5.33742 0 8.38461)
(4.54254 0 9.39133)
(3.30225 0 10.5666)
(1.60276 0 11.7045)
(9.99553 0 0.131307)
(9.98067 0 0.260755)
(9.9544 0 0.390433)
(9.91785 0 0.522264)
(9.87195 0 0.657912)
(9.81708 0 0.798915)
(9.75342 0 0.946789)
(9.68117 0 1.10303)
(9.60051 0 1.26912)
(9.51162 0 1.44658)
(9.41463 0 1.63696)
(9.30964 0 1.8419)
(9.1967 0 2.0631)
(9.07581 0 2.30245)
(8.9469 0 2.56198)
(8.80977 0 2.84396)
(8.6641 0 3.151)
(8.50936 0 3.48613)
(8.34475 0 3.85298)
(8.16908 0 4.25601)
(7.98062 0 4.70085)
(7.77684 0 5.19481)
(7.55403 0 5.74768)
(7.30651 0 6.37299)
(7.0252 0 7.09024)
(6.6951 0 7.92906)
(6.2846 0 8.93824)
(5.7431 0 10.2077)
(4.77883 0 11.9619)
(2.72652 0 14.9992)
(-0.358966 0 0.433177)
(-1.06048 0 0.546394)
(-1.98458 0 0.567569)
(-2.95145 0 0.562103)
(-3.94865 0 0.544117)
(-4.95953 0 0.519496)
(-5.97046 0 0.490391)
(-6.96881 0 0.457618)
(-7.94195 0 0.421443)
(-8.87653 0 0.381883)
(-9.758 0 0.33884)
(-10.5703 0 0.292191)
(-11.296 0 0.24187)
(-11.916 0 0.187886)
(-12.4108 0 0.130472)
(-12.7605 0 0.0698763)
(-12.9459 0 0.00623938)
(-12.9494 0 -0.0605777)
(-12.7573 0 -0.129969)
(-12.362 0 -0.198837)
(-11.7635 0 -0.264754)
(-10.9683 0 -0.325959)
(-9.98793 0 -0.381207)
(-8.83787 0 -0.429905)
(-7.53559 0 -0.472373)
(-6.09703 0 -0.510679)
(-4.53326 0 -0.551886)
(-2.85963 0 -0.613946)
(-1.03804 0 -0.715964)
(2.20389 0 -0.961206)
(-0.526872 0 1.07552)
(-1.29749 0 1.23697)
(-2.24387 0 1.29988)
(-3.20825 0 1.32496)
(-4.1956 0 1.32348)
(-5.19243 0 1.30268)
(-6.18644 0 1.26607)
(-7.16554 0 1.21528)
(-8.11735 0 1.15082)
(-9.02862 0 1.07252)
(-9.8848 0 0.979806)
(-10.6697 0 0.872028)
(-11.3656 0 0.748698)
(-11.9533 0 0.609816)
(-12.4126 0 0.45611)
(-12.7237 0 0.289176)
(-12.8672 0 0.111363)
(-12.8248 0 -0.0744308)
(-12.5919 0 -0.262354)
(-12.1628 0 -0.444172)
(-11.5378 0 -0.614306)
(-10.7232 0 -0.768733)
(-9.7299 0 -0.904665)
(-8.5727 0 -1.0208)
(-7.26869 0 -1.11808)
(-5.83445 0 -1.20143)
(-4.28309 0 -1.28619)
(-2.62711 0 -1.40997)
(-0.856478 0 -1.62415)
(1.91 0 -2.00175)
(-0.562043 0 1.92787)
(-1.33975 0 2.10425)
(-2.2765 0 2.17834)
(-3.20832 0 2.20658)
(-4.1536 0 2.19637)
(-5.10254 0 2.15543)
(-6.04612 0 2.08824)
(-6.97448 0 1.99716)
(-7.87683 0 1.88301)
(-8.74114 0 1.74555)
(-9.5537 0 1.58396)
(-10.2989 0 1.39722)
(-10.9592 0 1.18469)
(-11.5154 0 0.946512)
(-11.9472 0 0.684285)
(-12.2339 0 0.401309)
(-12.3559 0 0.102921)
(-12.2951 0 -0.203898)
(-12.0492 0 -0.511476)
(-11.6116 0 -0.808314)
(-10.9843 0 -1.08542)
(-10.1743 0 -1.3361)
(-9.19264 0 -1.55547)
(-8.05432 0 -1.74084)
(-6.77689 0 -1.89313)
(-5.37919 0 -2.01937)
(-3.87926 0 -2.13999)
(-2.28945 0 -2.30228)
(-0.646327 0 -2.5696)
(1.68993 0 -2.98893)
(-0.541749 0 2.7985)
(-1.28565 0 2.96618)
(-2.1833 0 3.02921)
(-3.06065 0 3.04595)
(-3.94673 0 3.01968)
(-4.8339 0 2.9571)
(-5.7165 0 2.86221)
(-6.58709 0 2.73701)
(-7.43658 0 2.58181)
(-8.25397 0 2.39565)
(-9.02602 0 2.1768)
(-9.737 0 1.92332)
(-10.3687 0 1.63367)
(-10.9009 0 1.30747)
(-11.3117 0 0.946232)
(-11.5793 0 0.554009)
(-11.6825 0 0.138169)
(-11.6029 0 -0.290639)
(-11.3435 0 -0.718037)
(-10.8991 0 -1.12839)
(-10.2734 0 -1.51027)
(-9.47393 0 -1.85519)
(-8.5118 0 -2.15664)
(-7.40184 0 -2.41046)
(-6.16225 0 -2.61726)
(-4.81457 0 -2.78528)
(-3.383 0 -2.93741)
(-1.8731 0 -3.12133)
(-0.379468 0 -3.39929)
(1.58924 0 -3.78201)
(-0.495446 0 3.62014)
(-1.17747 0 3.77266)
(-2.00896 0 3.81865)
(-2.81216 0 3.82058)
(-3.6249 0 3.77832)
(-4.43982 0 3.69695)
(-5.2537 0 3.57896)
(-6.06076 0 3.42509)
(-6.85307 0 3.23433)
(-7.62018 0 3.00431)
(-8.34886 0 2.73185)
(-9.02289 0 2.41373)
(-9.62322 0 2.04745)
(-10.1284 0 1.63231)
(-10.5153 0 1.17047)
(-10.7605 0 0.668028)
(-10.8416 0 0.13631)
(-10.7409 0 -0.407857)
(-10.4692 0 -0.947648)
(-10.0212 0 -1.46326)
(-9.40294 0 -1.94141)
(-8.6223 0 -2.37247)
(-7.68969 0 -2.7486)
(-6.61951 0 -3.06375)
(-5.43045 0 -3.31783)
(-4.14649 0 -3.51923)
(-2.79806 0 -3.69145)
(-1.38115 0 -3.87469)
(-0.0496368 0 -4.12732)
(1.61424 0 -4.43494)
(-0.433895 0 4.35913)
(-1.03282 0 4.50038)
(-1.77602 0 4.53177)
(-2.48795 0 4.5212)
(-3.21388 0 4.46638)
(-3.94538 0 4.37102)
(-4.68095 0 4.23588)
(-5.41587 0 4.06002)
(-6.14297 0 3.84075)
(-6.85219 0 3.57396)
(-7.5303 0 3.25482)
(-8.16078 0 2.87861)
(-8.72391 0 2.44172)
(-9.1972 0 1.94287)
(-9.55623 0 1.38464)
(-9.77583 0 0.775236)
(-9.83162 0 0.129918)
(-9.70781 0 -0.530376)
(-9.42515 0 -1.17835)
(-8.97797 0 -1.79292)
(-8.37466 0 -2.36043)
(-7.62279 0 -2.87125)
(-6.73114 0 -3.31654)
(-5.71326 0 -3.68773)
(-4.5878 0 -3.98367)
(-3.38081 0 -4.21157)
(-2.12666 0 -4.39409)
(-0.814414 0 -4.55871)
(0.34366 0 -4.75899)
(1.762 0 -4.97888)
(-0.362131 0 4.99393)
(-0.860807 0 5.13115)
(-1.49774 0 5.15347)
(-2.10342 0 5.13544)
(-2.72934 0 5.07355)
(-3.36527 0 4.97036)
(-4.01121 0 4.82481)
(-4.66314 0 4.63414)
(-5.31451 0 4.39364)
(-5.95571 0 4.09722)
(-6.57375 0 3.73808)
(-7.15204 0 3.30971)
(-7.67049 0 2.80709)
(-8.10567 0 2.22817)
(-8.43144 0 1.57592)
(-8.62004 0 0.861175)
(-8.64571 0 0.104765)
(-8.50309 0 -0.664842)
(-8.21124 0 -1.41273)
(-7.77113 0 -2.11644)
(-7.19216 0 -2.76371)
(-6.48054 0 -3.34608)
(-5.64229 0 -3.8541)
(-4.68992 0 -4.27558)
(-3.64087 0 -4.60795)
(-2.52373 0 -4.85564)
(-1.37112 0 -5.03829)
(-0.184614 0 -5.1698)
(0.809914 0 -5.30425)
(2.02454 0 -5.43628)
(-0.283397 0 5.50834)
(-0.667477 0 5.64981)
(-1.18341 0 5.66957)
(-1.66953 0 5.65047)
(-2.18281 0 5.58817)
(-2.71073 0 5.48419)
(-3.25487 0 5.33561)
(-3.8117 0 5.13771)
(-4.3754 0 4.88374)
(-4.93698 0 4.56543)
(-5.48399 0 4.17385)
(-6.00029 0 3.70049)
(-6.46591 0 3.13866)
(-6.85698 0 2.48511)
(-7.14553 0 1.74289)
(-7.30041 0 0.925705)
(-7.29241 0 0.0617419)
(-7.12908 0 -0.809048)
(-6.83326 0 -1.64703)
(-6.40827 0 -2.42821)
(-5.86435 0 -3.14428)
(-5.20516 0 -3.78929)
(-4.43262 0 -4.35349)
(-3.55905 0 -4.81998)
(-2.59804 0 -5.18383)
(-1.58243 0 -5.44477)
(-0.535211 0 -5.61627)
(0.486196 0 -5.70466)
(1.36223 0 -5.77692)
(2.39122 0 -5.82216)
(-0.200237 0 5.88965)
(-0.457668 0 6.04421)
(-0.84079 0 6.06805)
(-1.19575 0 6.05473)
(-1.58484 0 5.99911)
(-1.99284 0 5.90177)
(-2.42313 0 5.75777)
(-2.8726 0 5.56052)
(-3.33617 0 5.30117)
(-3.80572 0 4.9693)
(-4.2698 0 4.55374)
(-4.71327 0 4.04372)
(-5.11722 0 3.43052)
(-5.45804 0 2.70931)
(-5.70552 0 1.88274)
(-5.8229 0 0.968202)
(-5.77656 0 0.00325084)
(-5.59578 0 -0.96144)
(-5.3034 0 -1.87711)
(-4.90359 0 -2.72176)
(-4.4062 0 -3.49476)
(-3.81138 0 -4.19345)
(-3.11565 0 -4.8074)
(-2.33331 0 -5.31405)
(-1.47003 0 -5.70481)
(-0.564865 0 -5.97156)
(0.351907 0 -6.12133)
(1.21783 0 -6.1693)
(1.99168 0 -6.18533)
(2.84991 0 -6.14624)
(-0.115054 0 6.12841)
(-0.235917 0 6.30503)
(-0.477486 0 6.33922)
(-0.691602 0 6.33835)
(-0.946692 0 6.29645)
(-1.22421 0 6.21313)
(-1.52981 0 6.08131)
(-1.8605 0 5.89251)
(-2.21194 0 5.63593)
(-2.57701 0 5.29909)
(-2.9456 0 4.86873)
(-3.30423 0 4.33167)
(-3.63608 0 3.67693)
(-3.91925 0 2.89743)
(-4.1211 0 1.99419)
(-4.196 0 0.987439)
(-4.10663 0 -0.0732481)
(-3.91714 0 -1.11983)
(-3.64019 0 -2.09666)
(-3.27835 0 -2.98848)
(-2.83945 0 -3.8067)
(-2.31966 0 -4.55165)
(-1.70967 0 -5.21087)
(-1.02731 0 -5.75256)
(-0.270256 0 -6.16506)
(0.507134 0 -6.42754)
(1.2748 0 -6.55383)
(2.0226 0 -6.57062)
(2.68953 0 -6.53321)
(3.38807 0 -6.41482)
(-0.0306913 0 6.2184)
(-0.00718322 0 6.42575)
(-0.101702 0 6.47664)
(-0.167412 0 6.49439)
(-0.281013 0 6.47319)
(-0.419606 0 6.41121)
(-0.591904 0 6.29876)
(-0.794489 0 6.12539)
(-1.0236 0 5.87852)
(-1.27276 0 5.54395)
(-1.53338 0 5.10852)
(-1.79376 0 4.55378)
(-2.04041 0 3.86657)
(-2.25572 0 3.03602)
(-2.40502 0 2.06126)
(-2.42783 0 0.967299)
(-2.29052 0 -0.171143)
(-2.11158 0 -1.27789)
(-1.86778 0 -2.29746)
(-1.56017 0 -3.22094)
(-1.19215 0 -4.07411)
(-0.755788 0 -4.85871)
(-0.238259 0 -5.56128)
(0.342963 0 -6.13409)
(0.963278 0 -6.55041)
(1.61047 0 -6.81017)
(2.26194 0 -6.92277)
(2.88833 0 -6.91075)
(3.44556 0 -6.82177)
(3.9921 0 -6.63158)
(0.0528585 0 6.15901)
(0.222017 0 6.40095)
(0.28022 0 6.47554)
(0.363865 0 6.51625)
(0.397126 0 6.5226)
(0.402224 0 6.48965)
(0.368787 0 6.40487)
(0.300761 0 6.25584)
(0.201444 0 6.02916)
(0.0790697 0 5.70974)
(-0.064447 0 5.27402)
(-0.214977 0 4.71465)
(-0.362598 0 4.0127)
(-0.500884 0 3.15586)
(-0.59051 0 2.13939)
(-0.536562 0 0.978218)
(-0.342682 0 -0.23918)
(-0.2089 0 -1.4034)
(-0.0210438 0 -2.46618)
(0.21674 0 -3.41872)
(0.503619 0 -4.30091)
(0.851456 0 -5.11779)
(1.26029 0 -5.84172)
(1.72466 0 -6.43432)
(2.23347 0 -6.86812)
(2.76588 0 -7.13017)
(3.29867 0 -7.22904)
(3.80191 0 -7.18876)
(4.24746 0 -7.05172)
(4.64758 0 -6.79864)
(0.1415 0 5.94553)
(0.453671 0 6.23221)
(0.664468 0 6.33444)
(0.895075 0 6.40064)
(1.07707 0 6.44082)
(1.22476 0 6.44324)
(1.32919 0 6.3914)
(1.39536 0 6.27078)
(1.42747 0 6.06732)
(1.43377 0 5.76583)
(1.41807 0 5.3422)
(1.38849 0 4.78792)
(1.355 0 4.08426)
(1.32184 0 3.21464)
(1.33135 0 2.16665)
(1.46153 0 0.962497)
(1.64106 0 -0.294079)
(1.7347 0 -1.48202)
(1.84264 0 -2.55546)
(1.99365 0 -3.53716)
(2.19464 0 -4.45256)
(2.45327 0 -5.30387)
(2.76957 0 -6.06143)
(3.13574 0 -6.68004)
(3.53787 0 -7.12595)
(3.95592 0 -7.38689)
(4.36878 0 -7.47154)
(4.74855 0 -7.40422)
(5.08133 0 -7.22373)
(5.3396 0 -6.91729)
(0.246924 0 5.56745)
(0.691791 0 5.93178)
(1.04525 0 6.05312)
(1.42177 0 6.14633)
(1.75253 0 6.22935)
(2.03812 0 6.27528)
(2.27463 0 6.26241)
(2.46955 0 6.17481)
(2.62886 0 5.99785)
(2.76063 0 5.71602)
(2.87028 0 5.30715)
(2.96382 0 4.75969)
(3.04996 0 4.0561)
(3.13472 0 3.17798)
(3.24472 0 2.11854)
(3.40784 0 0.917797)
(3.55603 0 -0.33399)
(3.61667 0 -1.52913)
(3.66333 0 -2.61929)
(3.73907 0 -3.62225)
(3.86298 0 -4.56567)
(4.04394 0 -5.44772)
(4.27873 0 -6.23213)
(4.55488 0 -6.86964)
(4.85554 0 -7.32356)
(5.16159 0 -7.58072)
(5.45513 0 -7.6503)
(5.71233 0 -7.55744)
(5.93225 0 -7.33864)
(6.05308 0 -6.98852)
(0.391343 0 5.01315)
(0.941839 0 5.54472)
(1.40814 0 5.64528)
(1.94068 0 5.76413)
(2.42016 0 5.89929)
(2.83429 0 5.99614)
(3.19187 0 6.02755)
(3.50518 0 5.97718)
(3.78204 0 5.83014)
(4.03039 0 5.57085)
(4.25628 0 5.17973)
(4.46469 0 4.64277)
(4.66204 0 3.94336)
(4.85225 0 3.06501)
(5.04035 0 2.00965)
(5.22552 0 0.826232)
(5.35842 0 -0.395024)
(5.39219 0 -1.56238)
(5.39084 0 -2.64568)
(5.4086 0 -3.66389)
(5.4747 0 -4.63613)
(5.59684 0 -5.54889)
(5.76528 0 -6.35717)
(5.96174 0 -7.00808)
(6.16716 0 -7.46425)
(6.36448 0 -7.71346)
(6.54041 0 -7.76639)
(6.67692 0 -7.64947)
(6.78488 0 -7.39762)
(6.77315 0 -7.01326)
(9.99599 0 0.136587)
(9.98265 0 0.271244)
(9.9591 0 0.406123)
(9.92641 0 0.543193)
(9.88547 0 0.68414)
(9.83669 0 0.830517)
(9.7803 0 0.983852)
(9.71658 0 1.14565)
(9.64579 0 1.31742)
(9.56821 0 1.50068)
(9.4841 0 1.69701)
(9.39372 0 1.90803)
(9.29728 0 2.13552)
(9.19504 0 2.38135)
(9.08719 0 2.64761)
(8.97391 0 2.93666)
(8.85535 0 3.25119)
(8.73161 0 3.59437)
(8.60275 0 3.97002)
(8.46876 0 4.38286)
(8.32963 0 4.83892)
(8.18535 0 5.34606)
(8.03607 0 5.91491)
(7.8824 0 6.5604)
(7.72622 0 7.30443)
(7.57366 0 8.18095)
(7.44089 0 9.24656)
(7.42368 0 10.6)
(7.9593 0 12.3956)
(8.24421 0 15.2417)
(9.99647 0 0.141428)
(9.98474 0 0.280847)
(9.96404 0 0.420451)
(9.93538 0 0.562238)
(9.8996 0 0.707909)
(9.85712 0 0.85902)
(9.80826 0 1.01711)
(9.75333 0 1.18367)
(9.69271 0 1.36022)
(9.62677 0 1.54826)
(9.55591 0 1.74936)
(9.48053 0 1.96514)
(9.40106 0 2.19735)
(9.31798 0 2.44786)
(9.2318 0 2.71874)
(9.14308 0 3.01231)
(9.05247 0 3.33124)
(8.96074 0 3.67865)
(8.86881 0 4.05828)
(8.77794 0 4.47471)
(8.68982 0 4.93367)
(8.60698 0 5.44255)
(8.53341 0 6.01099)
(8.4758 0 6.65195)
(8.44607 0 7.38305)
(8.46763 0 8.22819)
(8.58221 0 9.21807)
(8.84735 0 10.3862)
(9.54815 0 11.6737)
(10.0978 0 12.7642)
(9.99697 0 0.145745)
(9.9869 0 0.289404)
(9.96917 0 0.433194)
(9.94468 0 0.579132)
(9.91421 0 0.728919)
(9.87824 0 0.884106)
(9.83711 0 1.04621)
(9.79121 0 1.21673)
(9.741 0 1.39714)
(9.68695 0 1.58892)
(9.62959 0 1.7936)
(9.56948 0 2.01277)
(9.50726 0 2.24811)
(9.44362 0 2.50142)
(9.37939 0 2.77469)
(9.31551 0 3.07012)
(9.25309 0 3.39022)
(9.19354 0 3.73786)
(9.1386 0 4.11644)
(9.09058 0 4.53001)
(9.05264 0 4.98343)
(9.02925 0 5.48264)
(9.02695 0 6.03486)
(9.05563 0 6.64862)
(9.13027 0 7.33339)
(9.27357 0 8.09759)
(9.51738 0 8.94232)
(9.86914 0 9.85464)
(10.4591 0 10.7815)
(11.1697 0 11.5009)
(9.99749 0 0.149486)
(9.98913 0 0.296807)
(9.97444 0 0.444189)
(9.95421 0 0.593647)
(9.9292 0 0.746875)
(9.89986 0 0.905403)
(9.86661 0 1.07073)
(9.8299 0 1.24431)
(9.79025 0 1.42758)
(9.74825 0 1.62198)
(9.70453 0 1.82897)
(9.6598 0 2.05007)
(9.61489 0 2.28684)
(9.57071 0 2.54099)
(9.52836 0 2.81433)
(9.48912 0 3.10887)
(9.45453 0 3.42683)
(9.4265 0 3.77069)
(9.40742 0 4.14328)
(9.4004 0 4.54782)
(9.40951 0 4.98794)
(9.44026 0 5.4677)
(9.50009 0 5.99136)
(9.59914 0 6.56295)
(9.75081 0 7.18518)
(9.97191 0 7.85748)
(10.2851 0 8.57244)
(10.6976 0 9.31518)
(11.2761 0 10.0784)
(12.0925 0 10.7517)
(9.99801 0 0.152602)
(9.99139 0 0.302965)
(9.9798 0 0.4533)
(9.96391 0 0.605609)
(9.94442 0 0.761559)
(9.92181 0 0.922654)
(9.89651 0 1.09035)
(9.86906 0 1.26606)
(9.84003 0 1.45115)
(9.8101 0 1.647)
(9.78 0 1.85498)
(9.75058 0 2.07649)
(9.72282 0 2.31298)
(9.69784 0 2.56597)
(9.67694 0 2.83707)
(9.66169 0 3.12799)
(9.65394 0 3.44059)
(9.65599 0 3.77685)
(9.67064 0 4.1389)
(9.70143 0 4.52902)
(9.75285 0 4.94949)
(9.83062 0 5.4025)
(9.94199 0 5.88979)
(10.0961 0 6.41215)
(10.3041 0 6.96851)
(10.579 0 7.55507)
(10.9381 0 8.16401)
(11.3927 0 8.78137)
(11.9657 0 9.39817)
(12.7493 0 9.94248)
(9.99854 0 0.155053)
(9.99368 0 0.307794)
(9.9852 0 0.460404)
(9.97369 0 0.614853)
(9.95975 0 0.772773)
(9.94388 0 0.935623)
(9.92655 0 1.10481)
(9.90833 0 1.28167)
(9.88986 0 1.46752)
(9.87189 0 1.66363)
(9.85524 0 1.87126)
(9.84087 0 2.09168)
(9.82988 0 2.32617)
(9.82353 0 2.57605)
(9.8233 0 2.84266)
(9.83094 0 3.12739)
(9.84853 0 3.43166)
(9.87854 0 3.75691)
(9.924 0 4.10455)
(9.98856 0 4.47587)
(10.0767 0 4.87196)
(10.1938 0 5.29344)
(10.3464 0 5.74016)
(10.5422 0 6.2108)
(10.7903 0 6.70221)
(11.1003 0 7.2088)
(11.4837 0 7.72176)
(11.9485 0 8.2262)
(12.4954 0 8.70684)
(13.2088 0 9.12439)
(9.99907 0 0.156799)
(9.99597 0 0.311219)
(9.99061 0 0.465391)
(9.98346 0 0.621236)
(9.97506 0 0.780341)
(9.96588 0 0.944107)
(9.95644 0 1.11387)
(9.94733 0 1.29091)
(9.93926 0 1.47643)
(9.93301 0 1.6716)
(9.92948 0 1.87755)
(9.92969 0 2.0954)
(9.93485 0 2.32623)
(9.9463 0 2.57114)
(9.96563 0 2.83117)
(9.9947 0 3.10737)
(10.0357 0 3.40072)
(10.091 0 3.71208)
(10.1639 0 4.04217)
(10.2576 0 4.39147)
(10.3765 0 4.75999)
(10.5253 0 5.14718)
(10.7096 0 5.55158)
(10.9354 0 5.97049)
(11.2095 0 6.39954)
(11.5384 0 6.83223)
(11.9285 0 7.25949)
(12.3843 0 7.6684)
(12.9 0 8.04527)
(13.5504 0 8.37116)
(9.99959 0 0.157808)
(9.99824 0 0.313175)
(9.99597 0 0.468165)
(9.99314 0 0.624638)
(9.99019 0 0.78412)
(9.9876 0 0.947943)
(9.9859 0 1.11737)
(9.98571 0 1.29359)
(9.98775 0 1.4777)
(9.99284 0 1.67074)
(10.0019 0 1.87372)
(10.0161 0 2.08757)
(10.0366 0 2.31319)
(10.0647 0 2.5514)
(10.1022 0 2.80298)
(10.1509 0 3.06861)
(10.213 0 3.34883)
(10.2908 0 3.64401)
(10.3872 0 3.95426)
(10.5055 0 4.27933)
(10.6493 0 4.61847)
(10.8226 0 4.97026)
(11.0298 0 5.3324)
(11.2755 0 5.70144)
(11.5642 0 6.07258)
(11.9001 0 6.43936)
(12.2864 0 6.79367)
(12.725 0 7.1255)
(13.2088 0 7.42417)
(13.8023 0 7.67909)
(10.0001 0 0.158054)
(10.0005 0 0.313611)
(10.0012 0 0.468654)
(10.0026 0 0.624966)
(10.005 0 0.784)
(10.0088 0 0.947014)
(10.0147 0 1.11518)
(10.0231 0 1.28959)
(10.0348 0 1.47123)
(10.0508 0 1.66101)
(10.0719 0 1.85978)
(10.0991 0 2.06831)
(10.1339 0 2.28726)
(10.1775 0 2.51725)
(10.2316 0 2.75875)
(10.2979 0 3.0121)
(10.3785 0 3.27747)
(10.4756 0 3.55478)
(10.5919 0 3.84363)
(10.73 0 4.14325)
(10.8931 0 4.45232)
(11.0843 0 4.76888)
(11.307 0 5.09019)
(11.5643 0 5.41258)
(11.8592 0 5.7313)
(12.1939 0 6.04054)
(12.5696 0 6.33345)
(12.9867 0 6.60227)
(13.4378 0 6.83872)
(13.9784 0 7.03606)
(10.0006 0 0.157516)
(10.0026 0 0.312489)
(10.0063 0 0.466802)
(10.0118 0 0.622153)
(10.0194 0 0.779912)
(10.0294 0 0.94125)
(10.0424 0 1.10725)
(10.0591 0 1.27888)
(10.0801 0 1.45703)
(10.1063 0 1.64247)
(10.1386 0 1.83588)
(10.178 0 2.03786)
(10.2259 0 2.24888)
(10.2835 0 2.46931)
(10.3523 0 2.69937)
(10.4341 0 2.93911)
(10.5306 0 3.18835)
(10.644 0 3.44666)
(10.7763 0 3.71327)
(10.9298 0 3.98702)
(11.1071 0 4.26624)
(11.3106 0 4.54871)
(11.5425 0 4.83155)
(11.8049 0 5.11114)
(12.0995 0 5.38315)
(12.4272 0 5.64252)
(12.788 0 5.88362)
(13.1811 0 6.10042)
(13.5998 0 6.28667)
(14.0919 0 6.43798)
(10.0011 0 0.156182)
(10.0047 0 0.309782)
(10.0113 0 0.462577)
(10.0207 0 0.616163)
(10.0332 0 0.771822)
(10.0491 0 0.930631)
(10.069 0 1.09357)
(10.0934 0 1.26151)
(10.1231 0 1.43519)
(10.1588 0 1.61527)
(10.2014 0 1.80228)
(10.252 0 1.99663)
(10.3117 0 2.19862)
(10.3817 0 2.4084)
(10.4635 0 2.62596)
(10.5585 0 2.8511)
(10.6683 0 3.08337)
(10.7947 0 3.32209)
(10.9395 0 3.5662)
(11.1045 0 3.81433)
(11.2915 0 4.06462)
(11.5023 0 4.31478)
(11.7383 0 4.56199)
(12.0008 0 4.8029)
(12.2904 0 5.03369)
(12.6072 0 5.2501)
(12.9504 0 5.4476)
(13.3185 0 5.62155)
(13.7057 0 5.76737)
(14.1539 0 5.88217)
(10.0016 0 0.154046)
(10.0067 0 0.305483)
(10.016 0 0.455969)
(10.0292 0 0.606992)
(10.0463 0 0.759738)
(10.0678 0 0.915186)
(10.0941 0 1.07421)
(10.1258 0 1.23757)
(10.1635 0 1.4059)
(10.2079 0 1.5797)
(10.2599 0 1.75936)
(10.3205 0 1.94516)
(10.3906 0 2.1372)
(10.4715 0 2.33547)
(10.5642 0 2.53975)
(10.6702 0 2.74965)
(10.7908 0 2.96453)
(10.9274 0 3.18349)
(11.0814 0 3.40536)
(11.2542 0 3.62862)
(11.4471 0 3.85139)
(11.6611 0 4.07142)
(11.8972 0 4.28611)
(12.1559 0 4.49246)
(12.4371 0 4.68719)
(12.7403 0 4.86682)
(13.0644 0 5.02775)
(13.4076 0 5.16649)
(13.7648 0 5.27968)
(14.1729 0 5.36542)
(10.002 0 0.15111)
(10.0086 0 0.299596)
(10.0204 0 0.44699)
(10.0371 0 0.594665)
(10.0587 0 0.743706)
(10.0854 0 0.894994)
(10.1176 0 1.0493)
(10.1559 0 1.20726)
(10.2009 0 1.36941)
(10.2532 0 1.53611)
(10.3136 0 1.70763)
(10.383 0 1.8841)
(10.4622 0 2.06548)
(10.5522 0 2.2516)
(10.6541 0 2.4421)
(10.769 0 2.63643)
(10.8979 0 2.83382)
(11.042 0 3.03327)
(11.2023 0 3.23353)
(11.3797 0 3.43305)
(11.5751 0 3.63002)
(11.7892 0 3.82235)
(12.0222 0 4.00768)
(12.2741 0 4.18343)
(12.5446 0 4.34686)
(12.8327 0 4.49514)
(13.1371 0 4.6255)
(13.4559 0 4.73529)
(13.7848 0 4.82211)
(14.1565 0 4.8847)
(10.0024 0 0.147382)
(10.0104 0 0.29214)
(10.0245 0 0.435673)
(10.0445 0 0.579236)
(10.0701 0 0.723812)
(10.1016 0 0.870178)
(10.1393 0 1.019)
(10.1836 0 1.17083)
(10.2352 0 1.32605)
(10.2945 0 1.48494)
(10.3623 0 1.64765)
(10.4392 0 1.81417)
(10.526 0 1.98437)
(10.6237 0 2.15793)
(10.7329 0 2.33439)
(10.8546 0 2.5131)
(10.9897 0 2.69321)
(11.1388 0 2.87369)
(11.3028 0 3.05326)
(11.4822 0 3.23044)
(11.6775 0 3.40353)
(11.8889 0 3.57065)
(12.1164 0 3.72974)
(12.3596 0 3.87861)
(12.6178 0 4.01501)
(12.89 0 4.13671)
(13.1747 0 4.24155)
(13.47 0 4.3276)
(13.7723 0 4.39312)
(14.1108 0 4.43733)
(10.0028 0 0.142879)
(10.012 0 0.283149)
(10.0284 0 0.422074)
(10.0513 0 0.560789)
(10.0807 0 0.700173)
(10.1165 0 0.840905)
(10.159 0 0.983556)
(10.2088 0 1.12856)
(10.2661 0 1.27622)
(10.3316 0 1.42671)
(10.4056 0 1.58006)
(10.489 0 1.73618)
(10.5821 0 1.89483)
(10.6858 0 2.05562)
(10.8007 0 2.218)
(10.9274 0 2.38128)
(11.0666 0 2.54458)
(11.2187 0 2.70684)
(11.3841 0 2.86686)
(11.5633 0 3.02326)
(11.7563 0 3.17448)
(11.9631 0 3.31888)
(12.1833 0 3.4547)
(12.4164 0 3.58011)
(12.6614 0 3.69331)
(12.9174 0 3.79254)
(13.1827 0 3.87618)
(13.4558 0 3.9428)
(13.7333 0 3.9912)
(14.0416 0 4.02091)
(10.0031 0 0.137622)
(10.0135 0 0.272667)
(10.0318 0 0.406264)
(10.0575 0 0.539429)
(10.0902 0 0.672939)
(10.1299 0 0.807376)
(10.1768 0 0.943218)
(10.2313 0 1.08081)
(10.2937 0 1.22035)
(10.3644 0 1.36194)
(10.4437 0 1.50553)
(10.5323 0 1.65093)
(10.6305 0 1.79785)
(10.7388 0 1.94584)
(10.8578 0 2.0943)
(10.9879 0 2.24253)
(11.1293 0 2.38964)
(11.2826 0 2.53463)
(11.4477 0 2.67638)
(11.6248 0 2.81362)
(11.8139 0 2.945)
(12.0145 0 3.06909)
(12.2262 0 3.1844)
(12.4483 0 3.28947)
(12.6798 0 3.38285)
(12.9196 0 3.46319)
(13.1663 0 3.52929)
(13.4184 0 3.5801)
(13.673 0 3.61481)
(13.9538 0 3.63318)
(10.0034 0 0.131639)
(10.0148 0 0.26075)
(10.035 0 0.388333)
(10.0631 0 0.515285)
(10.0988 0 0.642283)
(10.1419 0 0.769821)
(10.1926 0 0.898287)
(10.2512 0 1.02794)
(10.3179 0 1.15892)
(10.3929 0 1.29122)
(10.4766 0 1.42475)
(10.5693 0 1.55927)
(10.6713 0 1.69441)
(10.7831 0 1.82971)
(10.9048 0 1.96456)
(11.0367 0 2.09826)
(11.179 0 2.22996)
(11.3318 0 2.35874)
(11.4952 0 2.48356)
(11.6689 0 2.6033)
(11.8526 0 2.71681)
(12.0461 0 2.82285)
(12.2485 0 2.92024)
(12.4592 0 3.00776)
(12.6772 0 3.0843)
(12.9013 0 3.14884)
(13.1302 0 3.20049)
(13.3626 0 3.23852)
(13.5962 0 3.26238)
(13.852 0 3.27201)
(10.0037 0 0.12496)
(10.016 0 0.247463)
(10.0377 0 0.368381)
(10.068 0 0.488498)
(10.1063 0 0.608398)
(10.1524 0 0.728489)
(10.2064 0 0.849083)
(10.2685 0 0.970363)
(10.3387 0 1.0924)
(10.4173 0 1.21514)
(10.5044 0 1.33843)
(10.6003 0 1.46199)
(10.7051 0 1.58544)
(10.819 0 1.70829)
(10.9422 0 1.82996)
(11.0748 0 1.94976)
(11.2167 0 2.06693)
(11.3679 0 2.1806)
(11.5283 0 2.28985)