/*--------------------------------*- C++ -*----------------------------------*\
  =========                 |
  \\      /  F ield         | OpenFOAM: The Open Source CFD Toolbox
   \\    /   O peration     | Website:  https://openfoam.org
    \\  /    A nd           | Version:  dev
     \\/     M anipulation  |
\*---------------------------------------------------------------------------*/
FoamFile
{
    version     2.0;
    format      ascii;
    class       surfaceVectorField;
    location    "0.4";
    object      Uf;
}
// * * * * * * * * * * * * * * * * * * * * * * * * * * * * * * * * * * * * * //

dimensions      [0 1 -1 0 0 0 0];

internalField   nonuniform List<vector> 
5457
(
(9.92114 0 0.0250105)
(9.97135 0 0.0386171)
(9.82483 0 0.0326457)
(9.92905 0 0.0483091)
(9.7113 0 0.0390357)
(9.85663 0 0.0583203)
(9.57834 0 0.0456259)
(9.759 0 0.06995)
(9.42589 0 0.0524375)
(9.64115 0 0.0821485)
(9.25408 0 0.0595101)
(9.50404 0 0.0948203)
(9.06263 0 0.0669882)
(9.34699 0 0.108212)
(8.85091 0 0.0750191)
(9.16916 0 0.122566)
(8.61803 0 0.0837299)
(8.96977 0 0.138078)
(8.36291 0 0.0932388)
(8.7479 0 0.154922)
(8.08432 0 0.103662)
(8.50241 0 0.173268)
(7.7809 0 0.115112)
(8.23201 0 0.193275)
(7.45122 0 0.127692)
(7.93527 0 0.215083)
(7.09384 0 0.141487)
(7.61071 0 0.238794)
(6.70742 0 0.156544)
(7.25689 0 0.264445)
(6.29083 0 0.172857)
(6.87246 0 0.29198)
(5.84338 0 0.190329)
(6.45638 0 0.3212)
(5.36501 0 0.208731)
(6.00803 0 0.351703)
(4.85663 0 0.227642)
(5.52756 0 0.382811)
(4.32048 0 0.246375)
(5.01612 0 0.413485)
(3.76062 0 0.263864)
(4.47632 0 0.442216)
(3.18346 0 0.278533)
(3.91261 0 0.46691)
(2.5984 0 0.288109)
(3.33181 0 0.484749)
(2.01857 0 0.289405)
(2.7436 0 0.492028)
(1.4617 0 0.278135)
(2.16103 0 0.483985)
(0.950935 0 0.24891)
(1.60096 0 0.454649)
(0.51556 0 0.195653)
(1.08436 0 0.396916)
(0.19074 0 0.114243)
(0.637149 0 0.303291)
(0.0107679 0 0.000854869)
(0.272947 0 0.172108)
(0.0905661 0 0.0105465)
(9.99667 0 0.0513697)
(9.99715 0 0.040247)
(9.95961 0 0.0703175)
(9.97896 0 0.0668986)
(9.89995 0 0.0871667)
(9.93491 0 0.0889689)
(9.81953 0 0.104851)
(9.8667 0 0.112259)
(9.71816 0 0.123433)
(9.77794 0 0.136772)
(9.59571 0 0.142964)
(9.66968 0 0.162396)
(9.45189 0 0.163746)
(9.5415 0 0.189508)
(9.28608 0 0.186107)
(9.39267 0 0.218556)
(9.09742 0 0.210334)
(9.22251 0 0.249933)
(8.88487 0 0.236685)
(9.03017 0 0.283998)
(8.64717 0 0.265408)
(8.81461 0 0.321099)
(8.38297 0 0.296727)
(8.57461 0 0.361569)
(8.09078 0 0.330827)
(8.30882 0 0.405706)
(7.76909 0 0.367815)
(8.01578 0 0.453739)
(7.41643 0 0.407687)
(7.694 0 0.505784)
(7.0315 0 0.450263)
(7.34205 0 0.561777)
(6.61333 0 0.495113)
(6.95865 0 0.621386)
(6.16149 0 0.541462)
(6.54283 0 0.683899)
(5.6764 0 0.588077)
(6.09416 0 0.748083)
(5.15963 0 0.633135)
(5.613 0 0.812026)
(4.6143 0 0.674085)
(5.1008 0 0.872954)
(4.0455 0 0.7075)
(4.5605 0 0.92705)
(3.46069 0 0.728936)
(3.99684 0 0.969287)
(2.86998 0 0.732827)
(3.41667 0 0.993301)
(2.28614 0 0.712469)
(2.8291 0 0.9914)
(1.72422 0 0.660246)
(2.24537 0 0.954838)
(1.20002 0 0.568224)
(1.6781 0 0.87481)
(0.727348 0 0.43012)
(1.14143 0 0.744637)
(0.316358 0 0.232569)
(0.634387 0 0.565141)
(0.256966 0 0.320399)
(9.98928 0 0.0589214)
(9.99491 0 0.0454951)
(9.95513 0 0.0885653)
(9.97413 0 0.0840281)
(9.89893 0 0.11666)
(9.93096 0 0.117838)
(9.82328 0 0.146004)
(9.86569 0 0.15206)
(9.72852 0 0.176934)
(9.78081 0 0.187837)
(9.61449 0 0.209617)
(9.67742 0 0.225327)
(9.48095 0 0.244475)
(9.55534 0 0.264986)
(9.32746 0 0.281997)
(9.41405 0 0.307414)
(9.15333 0 0.322638)
(9.253 0 0.353179)
(8.95767 0 0.366831)
(9.07154 0 0.402813)
(8.73942 0 0.414995)
(8.86882 0 0.456834)
(8.49738 0 0.467522)
(8.64386 0 0.515747)
(8.2302 0 0.524743)
(8.39552 0 0.580016)
(7.93643 0 0.586888)
(8.12255 0 0.650024)
(7.61462 0 0.65401)
(7.82363 0 0.726014)
(7.26332 0 0.7259)
(7.49741 0 0.808)
(6.88126 0 0.801965)
(7.14258 0 0.895651)
(6.46745 0 0.881074)
(6.75794 0 0.988135)
(6.02144 0 0.961386)
(6.34255 0 1.08393)
(5.54354 0 1.04015)
(5.89589 0 1.18059)
(5.03512 0 1.1135)
(5.41811 0 1.27454)
(4.49893 0 1.17628)
(4.91024 0 1.36081)
(3.93938 0 1.22197)
(4.37448 0 1.4329)
(3.36265 0 1.24269)
(3.81438 0 1.4827)
(2.77658 0 1.22954)
(3.23501 0 1.50076)
(2.19009 0 1.17355)
(2.64274 0 1.4769)
(1.61212 0 1.06744)
(2.04477 0 1.40172)
(1.05053 0 0.909866)
(1.4501 0 1.26901)
(0.51016 0 0.694929)
(0.850514 0 1.0819)
(0.356635 0 0.820069)
(9.98541 0 0.0709088)
(9.99377 0 0.0526416)
(9.95118 0 0.112372)
(9.97132 0 0.101197)
(9.89599 0 0.152244)
(9.92801 0 0.146188)
(9.8216 0 0.192972)
(9.86394 0 0.191195)
(9.72871 0 0.235407)
(9.78087 0 0.237896)
(9.61728 0 0.280018)
(9.67974 0 0.286821)
(9.48715 0 0.3274)
(9.56054 0 0.338539)
(9.33801 0 0.378212)
(9.42288 0 0.393753)
(9.16936 0 0.433091)
(9.26633 0 0.453172)
(8.98055 0 0.492648)
(9.09037 0 0.517469)
(8.77078 0 0.557479)
(8.89436 0 0.587304)
(8.5391 0 0.628151)
(8.67749 0 0.663322)
(8.28449 0 0.70517)
(8.43888 0 0.746126)
(8.00579 0 0.788923)
(8.17753 0 0.836239)
(7.70182 0 0.879604)
(7.89238 0 0.934035)
(7.37132 0 0.977101)
(7.5823 0 1.03965)
(7.01306 0 1.08085)
(7.24611 0 1.15283)
(6.62588 0 1.18963)
(6.88263 0 1.27279)
(6.20883 0 1.30136)
(6.49069 0 1.39797)
(5.76126 0 1.41283)
(6.06924 0 1.52576)
(5.28305 0 1.51947)
(5.61742 0 1.65226)
(4.77479 0 1.6151)
(5.13469 0 1.77198)
(4.238 0 1.6919)
(4.62107 0 1.87766)
(3.67522 0 1.74049)
(4.07723 0 1.96026)
(3.0901 0 1.75053)
(3.50477 0 2.0093)
(2.48713 0 1.71194)
(2.90628 0 2.01362)
(1.87138 0 1.617)
(2.2852 0 1.96308)
(1.24803 0 1.46528)
(1.64828 0 1.85104)
(0.620818 0 1.24843)
(0.981882 0 1.68171)
(0.41301 0 1.42812)
(9.98362 0 0.0835065)
(9.99326 0 0.0606622)
(9.94899 0 0.13523)
(9.97002 0 0.118569)
(9.89475 0 0.185623)
(9.92684 0 0.17405)
(9.82181 0 0.236856)
(9.86406 0 0.229568)
(9.73086 0 0.290141)
(9.78301 0 0.286906)
(9.62197 0 0.346201)
(9.68441 0 0.346918)
(9.49498 0 0.405751)
(9.56828 0 0.410315)
(9.34963 0 0.469549)
(9.43432 0 0.477897)
(9.18551 0 0.538347)
(9.28217 0 0.550483)
(9.00206 0 0.612871)
(9.11136 0 0.628868)
(8.79863 0 0.693832)
(8.92134 0 0.713828)
(8.57445 0 0.781912)
(8.71142 0 0.806124)
(8.32866 0 0.877732)
(8.48085 0 0.906472)
(8.06036 0 0.981799)
(8.22878 0 1.01551)
(7.76854 0 1.09443)
(7.9543 0 1.13374)
(7.45213 0 1.21561)
(7.6564 0 1.26141)
(7.11002 0 1.3449)
(7.334 0 1.39841)
(6.74102 0 1.48116)
(6.98594 0 1.54409)
(6.34388 0 1.62233)
(6.61089 0 1.69701)
(5.91736 0 1.76515)
(6.20743 0 1.8547)
(5.46024 0 1.90486)
(5.77397 0 2.01332)
(4.97145 0 2.03496)
(5.30882 0 2.16739)
(4.45024 0 2.14707)
(4.81027 0 2.3095)
(3.89632 0 2.23112)
(4.27679 0 2.43032)
(3.31011 0 2.27589)
(3.70726 0 2.51878)
(2.693 0 2.27029)
(3.10145 0 2.56293)
(2.0476 0 2.20546)
(2.46015 0 2.55148)
(1.3782 0 2.07991)
(1.78939 0 2.47606)
(0.690323 0 1.87987)
(1.07102 0 2.33953)
(0.448557 0 2.10425)
(9.98289 0 0.096403)
(9.99309 0 0.0690419)
(9.94821 0 0.157824)
(9.96968 0 0.135963)
(9.89513 0 0.218426)
(9.92705 0 0.201316)
(9.82406 0 0.280082)
(9.86585 0 0.266962)
(9.73552 0 0.344123)
(9.78719 0 0.334613)
(9.62965 0 0.411444)
(9.69159 0 0.405344)
(9.50633 0 0.482869)
(9.57908 0 0.480021)
(9.3653 0 0.559253)
(9.44942 0 0.559539)
(9.2062 0 0.641453)
(9.30228 0 0.644816)
(9.02854 0 0.73031)
(9.13725 0 0.736754)
(8.83172 0 0.826647)
(8.95382 0 0.836237)
(8.61507 0 0.931257)
(8.75137 0 0.944131)
(8.37781 0 1.04487)
(8.5292 0 1.06126)
(8.11911 0 1.16812)
(8.28652 0 1.18837)
(7.83805 0 1.30144)
(8.02246 0 1.32608)
(7.53362 0 1.44497)
(7.73603 0 1.47478)
(7.20469 0 1.59841)
(7.42613 0 1.63454)
(6.84997 0 1.76081)
(7.0915 0 1.80488)
(6.46797 0 1.93034)
(6.73062 0 1.98466)
(6.05693 0 2.10395)
(6.34167 0 2.1717)
(5.6148 0 2.27712)
(5.92246 0 2.36255)
(5.13927 0 2.44348)
(5.47035 0 2.55208)
(4.62782 0 2.5947)
(4.98228 0 2.73326)
(4.07802 0 2.72047)
(4.45495 0 2.89687)
(3.48789 0 2.80898)
(3.88512 0 3.03167)
(2.85656 0 2.84805)
(3.27033 0 3.1249)
(2.18508 0 2.82686)
(2.60925 0 3.16364)
(1.47769 0 2.74134)
(1.90801 0 3.13657)
(0.742277 0 2.57003)
(1.14421 0 3.04281)
(0.47627 0 2.83127)
(9.98275 0 0.10934)
(9.99311 0 0.0774899)
(9.94847 0 0.180033)
(9.96997 0 0.153157)
(9.8968 0 0.25039)
(9.92829 0 0.22786)
(9.82793 0 0.322068)
(9.86899 0 0.303195)
(9.74226 0 0.396443)
(9.79307 0 0.380776)
(9.63994 0 0.474559)
(9.70093 0 0.461815)
(9.52087 0 0.557365)
(9.59259 0 0.547321)
(9.38484 0 0.645816)
(9.46785 0 0.638287)
(9.23152 0 0.740872)
(9.32644 0 0.735724)
(9.06045 0 0.84348)
(9.16798 0 0.840635)
(8.87109 0 0.954566)
(8.992 0 0.954007)
(8.6628 0 1.07503)
(8.79793 0 1.07681)
(8.43484 0 1.20571)
(8.5851 0 1.20998)
(8.1864 0 1.34735)
(8.35273 0 1.35438)
(7.91652 0 1.50053)
(8.09993 0 1.51077)
(7.62417 0 1.66556)
(7.82569 0 1.6797)
(7.30808 0 1.84234)
(7.52879 0 1.86144)
(6.96678 0 2.03021)
(7.20779 0 2.05581)
(6.59845 0 2.22768)
(6.86091 0 2.26201)
(6.20082 0 2.43216)
(6.4859 0 2.47836)
(5.7711 0 2.63963)
(6.07996 0 2.70197)
(5.30588 0 2.84428)
(5.63957 0 2.92843)
(4.80125 0 3.0382)
(5.1605 0 3.15137)
(4.25297 0 3.21124)
(4.63785 0 3.36213)
(3.65706 0 3.35119)
(4.06648 0 3.54958)
(3.01073 0 3.44451)
(3.44182 0 3.70022)
(2.31373 0 3.4777)
(2.76037 0 3.79907)
(1.57028 0 3.44255)
(2.02832 0 3.83074)
(0.790459 0 3.30777)
(1.21889 0 3.78856)
(0.50426 0 3.60547)
(9.98298 0 0.122105)
(9.99325 0 0.0858265)
(9.94948 0 0.201682)
(9.97069 0 0.169956)
(9.8995 0 0.281325)
(9.93032 0 0.253538)
(9.83316 0 0.362588)
(9.87324 0 0.338093)
(9.75078 0 0.446867)
(9.8004 0 0.425167)
(9.6525 0 0.535324)
(9.71217 0 0.516054)
(9.53828 0 0.629021)
(9.60851 0 0.611887)
(9.40791 0 0.72901)
(9.4893 0 0.713756)
(9.26112 0 0.836344)
(9.3543 0 0.822761)
(9.09749 0 0.95207)
(9.20318 0 0.94)
(8.91651 0 1.07722)
(9.03552 0 1.06656)
(8.71759 0 1.21279)
(8.8508 0 1.20352)
(8.5 0 1.35976)
(8.64835 0 1.35193)
(8.26292 0 1.519)
(8.42744 0 1.51279)
(8.00536 0 1.69125)
(8.18714 0 1.68702)
(7.72617 0 1.87703)
(7.92638 0 1.87538)
(7.42395 0 2.07652)
(7.64383 0 2.07839)
(7.09695 0 2.28941)
(7.33785 0 2.29623)
(6.74297 0 2.51471)
(7.00635 0 2.52855)
(6.35923 0 2.75045)
(6.64666 0 2.7743)
(5.94218 0 2.99336)
(6.25536 0 3.03138)
(5.48742 0 3.23846)
(5.82809 0 3.29632)
(4.98964 0 3.47866)
(5.35943 0 3.5638)
(4.4429 0 3.70433)
(4.8429 0 3.82609)
(3.84116 0 3.90307)
(4.2713 0 4.07256)
(3.17945 0 4.05992)
(3.63759 0 4.28923)
(2.4557 0 4.15797)
(2.93532 0 4.45889)
(1.67351 0 4.18331)
(2.16983 0 4.56108)
(0.844705 0 4.09245)
(1.30912 0 4.58116)
(0.538961 0 4.43281)
(9.98345 0 0.134539)
(9.99348 0 0.0939311)
(9.95107 0 0.222612)
(9.97174 0 0.186199)
(9.90305 0 0.311076)
(9.93298 0 0.278206)
(9.83957 0 0.401456)
(9.87841 0 0.371492)
(9.76087 0 0.495168)
(9.80901 0 0.467574)
(9.6671 0 0.593463)
(9.72506 0 0.567804)
(9.55825 0 0.697504)
(9.62658 0 0.673414)
(9.43417 0 0.808434)
(9.51344 0 0.785587)
(9.29461 0 0.927395)
(9.38549 0 0.905508)
(9.13921 0 1.05553)
(9.24244 0 1.03436)
(8.96753 0 1.19397)
(9.08392 0 1.17334)
(8.77899 0 1.34384)
(8.90947 0 1.32362)
(8.5729 0 1.50624)
(8.71847 0 1.48638)
(8.34844 0 1.6822)
(8.5102 0 1.66277)
(8.10459 0 1.87265)
(8.28375 0 1.8539)
(7.84011 0 2.07838)
(8.038 0 2.06075)
(7.55344 0 2.2999)
(7.77155 0 2.28417)
(7.24259 0 2.53735)
(7.48259 0 2.52476)
(6.90502 0 2.79035)
(7.16878 0 2.78274)
(6.53742 0 3.0577)
(6.82708 0 3.0578)
(6.13551 0 3.33714)
(6.4535 0 3.34884)
(5.69388 0 3.62483)
(6.04289 0 3.65359)
(5.20584 0 3.91489)
(5.58865 0 3.96816)
(4.66351 0 4.19867)
(5.08261 0 4.2863)
(4.05834 0 4.46404)
(4.51514 0 4.59852)
(3.38233 0 4.69484)
(3.87594 0 4.89097)
(2.63025 0 4.87034)
(3.15409 0 5.14454)
(1.80345 0 4.96925)
(2.35185 0 5.33308)
(0.914415 0 4.93264)
(1.42977 0 5.43135)
(0.587475 0 5.32842)
(9.9841 0 0.146519)
(9.99378 0 0.101717)
(9.95309 0 0.242681)
(9.97302 0 0.201752)
(9.90731 0 0.339491)
(9.93614 0 0.301725)
(9.84697 0 0.43849)
(9.88437 0 0.403235)
(9.77231 0 0.54112)
(9.8187 0 0.507804)
(9.68348 0 0.648702)
(9.73942 0 0.616829)
(9.5805 0 0.762487)
(9.64654 0 0.731622)
(9.46327 0 0.883702)
(9.53999 0 0.853451)
(9.3316 0 1.01358)
(9.41966 0 0.983577)
(9.18519 0 1.15334)
(9.28534 0 1.12327)
(9.02365 0 1.30423)
(9.13673 0 1.27381)
(8.84645 0 1.46749)
(8.97341 0 1.43649)
(8.65297 0 1.64434)
(8.79485 0 1.61261)
(8.44241 0 1.83601)
(8.60038 0 1.80347)
(8.21374 0 2.04365)
(8.38913 0 2.01038)
(7.9657 0 2.26834)
(8.16001 0 2.2346)
(7.69662 0 2.51098)
(7.91157 0 2.47733)
(7.40436 0 2.77226)
(7.64196 0 2.73963)
(7.0861 0 3.0525)
(7.34868 0 3.0224)
(6.7381 0 3.35146)
(7.02846 0 3.32618)
(6.35547 0 3.66809)
(6.6769 0 3.65106)
(5.93184 0 4.00009)
(6.28821 0 3.99629)
(5.45909 0 4.34327)
(5.85472 0 4.35985)
(4.92717 0 4.6907)
(5.36657 0 4.73768)
(4.32433 0 5.03138)
(4.81131 0 5.12246)
(3.63809 0 5.34878)
(4.17435 0 5.50182)
(2.85763 0 5.61862)
(3.43809 0 5.85606)
(1.9787 0 5.81073)
(2.59771 0 6.15376)
(1.01147 0 5.84575)
(1.60091 0 6.35631)
(0.660297 0 6.31909)
(9.98488 0 0.157947)
(9.99411 0 0.10912)
(9.95546 0 0.261766)
(9.9745 0 0.216509)
(9.91216 0 0.366429)
(9.93971 0 0.32397)
(9.85524 0 0.473522)
(9.89099 0 0.43318)
(9.78494 0 0.584517)
(9.82934 0 0.545684)
(9.70143 0 0.700794)
(9.75505 0 0.662918)
(9.60477 0 0.823678)
(9.66815 0 0.78626)
(9.49491 0 0.954474)
(9.56864 0 0.917049)
(9.37172 0 1.09449)
(9.45645 0 1.05662)
(9.23497 0 1.24503)
(9.33146 0 1.20631)
(9.08433 0 1.40744)
(9.19343 0 1.3675)
(8.91938 0 1.58307)
(9.04203 0 1.54156)
(8.73956 0 1.7733)
(8.87683 0 1.72992)
(8.54411 0 1.97952)
(8.69724 0 1.93406)
(8.3321 0 2.20313)
(8.50249 0 2.15547)
(8.10228 0 2.44552)
(8.29156 0 2.39569)
(7.85299 0 2.70804)
(8.06309 0 2.65628)
(7.58203 0 2.99196)
(7.81526 0 2.93884)
(7.28648 0 3.29842)
(7.54563 0 3.24495)
(6.96238 0 3.62828)
(7.25086 0 3.57614)
(6.60442 0 3.98194)
(6.92644 0 3.9338)
(6.20551 0 4.35901)
(6.56623 0 4.319)
(5.75622 0 4.75768)
(6.16189 0 4.73211)
(5.24426 0 5.17372)
(5.70208 0 5.17212)
(4.65404 0 5.59886)
(5.17162 0 5.63542)
(3.96689 0 6.01817)
(4.55083 0 6.11348)
(3.16269 0 6.40564)
(3.81283 0 6.58922)
(2.22525 0 6.72193)
(2.93966 0 7.02906)
(1.15459 0 6.86024)
(1.85475 0 7.3802)
(0.776471 0 7.44994)
(9.98577 0 0.168746)
(9.99449 0 0.116088)
(9.95811 0 0.27976)
(9.97613 0 0.230381)
(9.9175 0 0.391765)
(9.94361 0 0.344832)
(9.86425 0 0.506402)
(9.89816 0 0.461199)
(9.7986 0 0.625178)
(9.84077 0 0.581059)
(9.72074 0 0.749521)
(9.77176 0 0.705884)
(9.63079 0 0.880821)
(9.69119 0 0.837106)
(9.52875 0 1.02045)
(9.5991 0 0.976122)
(9.41455 0 1.16977)
(9.49551 0 1.12433)
(9.28806 0 1.33018)
(9.38035 0 1.28313)
(9.14903 0 1.50311)
(9.2535 0 1.45396)
(8.99714 0 1.69)
(9.11472 0 1.63831)
(8.83191 0 1.89238)
(8.96369 0 1.83772)
(8.65273 0 2.11182)
(8.79996 0 2.05378)
(8.45877 0 2.34995)
(8.62289 0 2.28821)
(8.24889 0 2.6085)
(8.43162 0 2.54279)
(8.02157 0 2.88924)
(8.22497 0 2.81947)
(7.77472 0 3.19408)
(8.00132 0 3.12033)
(7.50552 0 3.52501)
(7.75843 0 3.44766)
(7.21007 0 3.88407)
(7.49324 0 3.80399)
(6.88302 0 4.27332)
(7.20147 0 4.19212)
(6.517 0 4.69464)
(6.87717 0 4.6151)
(6.10178 0 5.14931)
(6.51194 0 5.07613)
(5.62325 0 5.63717)
(6.0939 0 5.57819)
(5.06199 0 6.15496)
(5.60594 0 6.12322)
(4.39174 0 6.69318)
(5.02376 0 6.71008)
(3.57868 0 7.22928)
(4.30976 0 7.33046)
(2.584 0 7.71902)
(3.42556 0 7.95781)
(1.37834 0 8.0214)
(2.249 0 8.53318)
(0.975911 0 8.79994)
(9.98674 0 0.178853)
(9.99489 0 0.122583)
(9.96099 0 0.296573)
(9.97788 0 0.243296)
(9.92325 0 0.415389)
(9.94778 0 0.364218)
(9.87387 0 0.536998)
(9.90579 0 0.487181)
(9.81311 0 0.662942)
(9.85288 0 0.613797)
(9.74121 0 0.794692)
(9.78938 0 0.745568)
(9.6583 0 0.933687)
(9.71542 0 0.883969)
(9.56446 0 1.08135)
(9.63108 0 1.03044)
(9.45971 0 1.23911)
(9.53646 0 1.18643)
(9.34399 0 1.40842)
(9.43157 0 1.3534)
(9.21716 0 1.59077)
(9.31639 0 1.53284)
(9.07901 0 1.78773)
(9.19082 0 1.72631)
(8.92922 0 2.00093)
(9.05465 0 1.93544)
(8.76732 0 2.23209)
(8.9076 0 2.16196)
(8.59266 0 2.48308)
(8.74923 0 2.40774)
(8.40431 0 2.75591)
(8.57891 0 2.6748)
(8.20099 0 3.05279)
(8.39573 0 2.96541)
(7.98093 0 3.37621)
(8.19842 0 3.28211)
(7.74165 0 3.72898)
(7.98518 0 3.62784)
(7.47969 0 4.11435)
(7.75349 0 4.00603)
(7.19015 0 4.53609)
(7.49979 0 4.42082)
(6.8661 0 4.99857)
(7.21896 0 4.87725)
(6.49752 0 5.50673)
(6.90363 0 5.38151)
(6.06978 0 6.06583)
(6.54287 0 5.94117)
(5.56101 0 6.68052)
(6.12001 0 6.56539)
(4.93817 0 7.3526)
(5.60922 0 7.26449)
(4.15082 0 8.07409)
(4.96526 0 8.04827)
(3.12343 0 8.81334)
(4.12712 0 8.91711)
(1.75534 0 9.40412)
(2.89643 0 9.84149)
(1.35303 0 10.5192)
(9.98777 0 0.188219)
(9.99532 0 0.128573)
(9.96404 0 0.312129)
(9.97973 0 0.255196)
(9.92933 0 0.437206)
(9.95216 0 0.382051)
(9.88399 0 0.565199)
(9.91378 0 0.511032)
(9.82834 0 0.697681)
(9.86552 0 0.643785)
(9.76262 0 0.836155)
(9.80774 0 0.781838)
(9.68703 0 0.982099)
(9.74061 0 0.926693)
(9.60172 0 1.13698)
(9.66429 0 1.07983)
(9.50678 0 1.30226)
(9.57893 0 1.24273)
(9.40224 0 1.47945)
(9.48466 0 1.41688)
(9.28809 0 1.67011)
(9.38155 0 1.60383)
(9.16427 0 1.87586)
(9.26963 0 1.80519)
(9.0306 0 2.09842)
(9.14888 0 2.02265)
(8.88682 0 2.33968)
(9.01917 0 2.25803)
(8.7325 0 2.60165)
(8.88032 0 2.51334)
(8.56702 0 2.8866)
(8.73198 0 2.79079)
(8.38948 0 3.19712)
(8.57361 0 3.09286)
(8.19857 0 3.53616)
(8.40442 0 3.42248)
(7.99243 0 3.90728)
(8.22325 0 3.78306)
(7.7684 0 4.31477)
(8.02842 0 4.1788)
(7.52267 0 4.76397)
(7.8175 0 4.61492)
(7.24967 0 5.26162)
(7.587 0 5.0981)
(6.9411 0 5.81645)
(7.33177 0 5.63717)
(6.58421 0 6.43981)
(7.04399 0 6.24403)
(6.15855 0 7.14664)
(6.71127 0 6.93534)
(5.62973 0 7.95661)
(6.31345 0 7.73521)
(4.93626 0 8.89399)
(5.81101 0 8.68047)
(3.96004 0 9.98597)
(5.14282 0 9.82862)
(2.45863 0 11.1423)
(4.04054 0 11.2773)
(2.16464 0 12.9273)
(9.98885 0 0.196805)
(9.99576 0 0.134035)
(9.96723 0 0.326369)
(9.98164 0 0.266036)
(9.93566 0 0.457136)
(9.95671 0 0.398269)
(9.89452 0 0.590898)
(9.92205 0 0.532679)
(9.84413 0 0.729256)
(9.87859 0 0.670936)
(9.78479 0 0.873736)
(9.8267 0 0.814588)
(9.71674 0 1.02584)
(9.76661 0 0.965157)
(9.6402 0 1.18707)
(9.69854 0 1.12414)
(9.55533 0 1.35891)
(9.62272 0 1.29304)
(9.4623 0 1.54291)
(9.53938 0 1.47338)
(9.36121 0 1.74065)
(9.44871 0 1.6667)
(9.25214 0 1.95382)
(9.35089 0 1.87466)
(9.13511 0 2.18421)
(9.24605 0 2.099)
(9.01008 0 2.43377)
(9.13431 0 2.34158)
(8.87691 0 2.70465)
(9.01572 0 2.60448)
(8.73534 0 2.99931)
(8.89029 0 2.89001)
(8.58493 0 3.32057)
(8.75793 0 3.20083)
(8.425 0 3.67175)
(8.6184 0 3.54006)
(8.25453 0 4.0569)
(8.47133 0 3.91142)
(8.07203 0 4.48109)
(8.31611 0 4.31955)
(7.8753 0 4.95078)
(8.15185 0 4.7703)
(7.66114 0 5.47455)
(7.97726 0 5.27136)
(7.42468 0 6.06407)
(7.79052 0 5.83309)
(7.15828 0 6.7359)
(7.58905 0 6.47009)
(6.84927 0 7.51466)
(7.36913 0 7.20391)
(6.47471 0 8.43968)
(7.12612 0 8.06862)
(5.9882 0 9.58056)
(6.85188 0 9.12401)
(5.27654 0 11.0953)
(6.5676 0 10.4931)
(3.96511 0 13.4987)
(6.33919 0 12.5314)
(5.43353 0 16.8108)
(-0.667484 0 0.489109)
(-0.442919 0 0.653759)
(-1.51976 0 0.556855)
(-1.17898 0 0.815039)
(-2.45439 0 0.564869)
(-2.11423 0 0.872676)
(-3.43496 0 0.553217)
(-3.07985 0 0.893954)
(-4.43874 0 0.531954)
(-4.07212 0 0.893506)
(-5.44976 0 0.505118)
(-5.07598 0 0.878684)
(-6.45458 0 0.4742)
(-6.07845 0 0.852675)
(-7.44051 0 0.439746)
(-7.06718 0 0.816882)
(-8.39457 0 0.401899)
(-8.02965 0 0.77181)
(-9.30289 0 0.360619)
(-8.95257 0 0.717458)
(-10.1503 0 0.315794)
(-9.8214 0 0.653544)
(-10.9202 0 0.267331)
(-10.62 0 0.5797)
(-11.5944 0 0.215201)
(-11.3308 0 0.49567)
(-12.1536 0 0.159522)
(-11.9346 0 0.401477)
(-12.5784 0 0.100536)
(-12.4117 0 0.297695)
(-12.8495 0 0.0384381)
(-12.7421 0 0.185559)
(-12.9483 0 -0.0267699)
(-12.9065 0 0.0659732)
(-12.8601 0 -0.0948589)
(-12.8871 0 -0.0575466)
(-12.5718 0 -0.163991)
(-12.6746 0 -0.18359)
(-12.0798 0 -0.231402)
(-12.2624 0 -0.305996)
(-11.3875 0 -0.294991)
(-11.6507 0 -0.420449)
(-10.5036 0 -0.353253)
(-10.8458 0 -0.524046)
(-9.44168 0 -0.405265)
(-9.85891 0 -0.614762)
(-8.21812 0 -0.450885)
(-8.70529 0 -0.691594)
(-6.85016 0 -0.491297)
(-7.40214 0 -0.754961)
(-5.35147 0 -0.531036)
(-5.96574 0 -0.807567)
(-3.71903 0 -0.582545)
(-4.40817 0 -0.858865)
(-1.89555 0 -0.664345)
(-2.74337 0 -0.93672)
(0.274792 0 -0.83712)
(-0.94726 0 -1.08857)
(2.05695 0 -1.38958)
(-0.86563 0 1.15528)
(-0.544457 0 1.50159)
(-1.77088 0 1.26805)
(-1.31862 0 1.68073)
(-2.71504 0 1.31227)
(-2.26019 0 1.75426)
(-3.68956 0 1.32423)
(-3.20828 0 1.78239)
(-4.68096 0 1.31321)
(-4.1746 0 1.77599)
(-5.67611 0 1.28459)
(-5.14748 0 1.74358)
(-6.66253 0 1.24098)
(-6.11628 0 1.68974)
(-7.62791 0 1.18344)
(-7.07001 0 1.61674)
(-8.55941 0 1.11214)
(-7.99709 0 1.52537)
(-9.44322 0 1.02671)
(-8.88488 0 1.41554)
(-10.2641 0 0.926561)
(-9.71925 0 1.2866)
(-11.0052 0 0.8111)
(-10.4843 0 1.13773)
(-11.6481 0 0.680087)
(-11.1624 0 0.968358)
(-12.1733 0 0.533882)
(-11.7343 0 0.77853)
(-12.5609 0 0.373641)
(-12.1799 0 0.569372)
(-12.7912 0 0.201332)
(-12.4788 0 0.343149)
(-12.8473 0 0.0195764)
(-12.6115 0 0.10344)
(-12.7159 0 -0.167269)
(-12.5599 0 -0.143239)
(-12.3899 0 -0.352176)
(-12.3205 0 -0.391278)
(-11.8672 0 -0.528222)
(-11.8872 0 -0.631066)
(-11.1513 0 -0.690597)
(-11.2611 0 -0.855174)
(-10.2507 0 -0.835886)
(-10.4487 0 -1.05806)
(-9.17801 0 -0.96204)
(-9.46127 0 -1.23574)
(-7.94947 0 -1.06886)
(-8.31351 0 -1.38601)
(-6.58224 0 -1.15926)
(-7.02279 0 -1.50951)
(-5.0901 0 -1.2433)
(-5.60682 0 -1.61161)
(-3.47345 0 -1.34734)
(-4.08117 0 -1.70942)
(-1.70391 0 -1.51578)
(-2.45828 0 -1.84573)
(0.283797 0 -1.81069)
(-0.751403 0 -2.08553)
(1.79997 0 -2.4952)
(-0.899754 0 2.015)
(-0.551896 0 2.38284)
(-1.80902 0 2.14085)
(-1.3127 0 2.55027)
(-2.73245 0 2.19229)
(-2.2299 0 2.61649)
(-3.67056 0 2.20154)
(-3.13449 0 2.63762)
(-4.61681 0 2.17614)
(-4.05016 0 2.61828)
(-5.56256 0 2.12224)
(-4.96822 0 2.56554)
(-6.49815 0 2.04325)
(-5.88131 0 2.48367)
(-7.41319 0 1.94077)
(-6.78078 0 2.37488)
(-8.29625 0 1.8151)
(-7.65671 0 2.23975)
(-9.13451 0 1.66572)
(-8.49755 0 2.07766)
(-9.91345 0 1.49171)
(-9.28986 0 1.88732)
(-10.6166 0 1.29223)
(-10.018 0 1.66721)
(-11.2258 0 1.06702)
(-10.664 0 1.41623)
(-11.7213 0 0.816966)
(-11.2081 0 1.13422)
(-12.0827 0 0.544488)
(-11.6294 0 0.822721)
(-12.2907 0 0.253898)
(-11.9066 0 0.485474)
(-12.3271 0 -0.0486554)
(-12.0192 0 0.127735)
(-12.1809 0 -0.35585)
(-11.949 0 -0.238629)
(-11.8436 0 -0.658122)
(-11.6963 0 -0.606106)
(-11.315 0 -0.945214)
(-11.2553 0 -0.959808)
(-10.5998 0 -1.20926)
(-10.6288 0 -1.28952)
(-9.70674 0 -1.44447)
(-9.8241 0 -1.58756)
(-8.64881 0 -1.64705)
(-8.85222 0 -1.84818)
(-7.4425 0 -1.81608)
(-7.72808 0 -2.06785)
(-6.10586 0 -1.9555)
(-6.46957 0 -2.24719)
(-4.65489 0 -2.07896)
(-5.09688 0 -2.39346)
(-3.09929 0 -2.22016)
(-3.63113 0 -2.52786)
(-1.43761 0 -2.43434)
(-2.08128 0 -2.69933)
(0.334773 0 -2.77676)
(-0.512898 0 -2.9745)
(1.63959 0 -3.38403)
(-0.864817 0 2.88134)
(-0.518598 0 3.22988)
(-1.73618 0 2.99732)
(-1.23156 0 3.38356)
(-2.61224 0 3.03748)
(-2.09613 0 3.43449)
(-3.49459 0 3.03298)
(-2.9364 0 3.44203)
(-4.38037 0 2.98877)
(-3.78581 0 3.40674)
(-5.26464 0 2.91023)
(-4.63686 0 3.33407)
(-6.14067 0 2.80036)
(-5.4851 0 3.22706)
(-7.00018 0 2.66034)
(-6.32392 0 3.08702)
(-7.83312 0 2.48984)
(-7.14482 0 2.91357)
(-8.62742 0 2.28754)
(-7.93708 0 2.70506)
(-9.36871 0 2.05157)
(-8.68744 0 2.45901)
(-10.0402 0 1.78023)
(-9.37995 0 2.17284)
(-10.6228 0 1.47252)
(-9.99598 0 1.84456)
(-11.0956 0 1.12901)
(-10.5146 0 1.47364)
(-11.4371 0 0.752464)
(-10.9135 0 1.06202)
(-11.626 0 0.348573)
(-11.1699 0 0.614766)
(-11.6456 0 -0.0736727)
(-11.2621 0 0.14083)
(-11.4833 0 -0.501784)
(-11.1719 0 -0.344485)
(-11.1355 0 -0.920763)
(-10.9064 0 -0.827683)
(-10.6038 0 -1.31705)
(-10.4602 0 -1.2905)
(-9.8941 0 -1.68067)
(-9.83816 0 -1.72046)
(-9.01567 0 -2.00411)
(-9.04812 0 -2.10839)
(-7.9812 0 -2.28203)
(-8.10074 0 -2.44704)
(-6.80751 0 -2.51262)
(-7.01068 0 -2.73126)
(-5.5137 0 -2.70027)
(-5.79635 0 -2.96123)
(-4.11886 0 -2.86044)
(-4.48053 0 -3.14507)
(-2.64018 0 -3.02827)
(-3.09053 0 -3.30583)
(-1.10106 0 -3.25865)
(-1.62713 0 -3.48997)
(0.458865 0 -3.58836)
(-0.214553 0 -3.7569)
(1.60174 0 -4.10847)
(-0.794153 0 3.69549)
(-0.46467 0 4.0077)
(-1.59581 0 3.79538)
(-1.10515 0 4.15019)
(-2.40079 0 3.8196)
(-1.89249 0 4.18611)
(-3.21035 0 3.7997)
(-2.65005 0 4.18008)
(-4.02337 0 3.73812)
(-3.41939 0 4.13044)
(-4.83714 0 3.63866)
(-4.1926 0 4.04132)
(-5.64693 0 3.50295)
(-4.96732 0 3.91423)
(-6.44591 0 3.33085)
(-5.73831 0 3.74901)
(-7.2249 0 3.12069)
(-6.49802 0 3.54376)
(-7.97213 0 2.86971)
(-7.23619 0 3.29527)
(-8.67298 0 2.57469)
(-7.93958 0 2.99952)
(-9.31 0 2.23278)
(-8.59184 0 2.65252)
(-9.86309 0 1.84236)
(-9.17357 0 2.25121)
(-10.3102 0 1.40415)
(-9.66278 0 1.79458)
(-10.6284 0 0.922253)
(-10.0358 0 1.28503)
(-10.7962 0 0.405346)
(-10.2682 0 0.729613)
(-10.795 0 -0.132522)
(-10.3366 0 0.140035)
(-10.6171 0 -0.674527)
(-10.2243 0 -0.460528)
(-10.2606 0 -1.20237)
(-9.9472 0 -1.0548)
(-9.73015 0 -1.69948)
(-9.4996 0 -1.62039)
(-9.03315 0 -2.15436)
(-8.8888 0 -2.14371)
(-8.17855 0 -2.55829)
(-8.12255 0 -2.61509)
(-7.17829 0 -2.90429)
(-7.21041 0 -3.0261)
(-6.04923 0 -3.18927)
(-6.16639 0 -3.36945)
(-4.81132 0 -3.41732)
(-5.00912 0 -3.64441)
(-3.48709 0 -3.60431)
(-3.76365 0 -3.85863)
(-2.101 0 -3.78198)
(-2.46236 0 -4.03509)
(-0.697228 0 -3.9995)
(-1.09778 0 -4.21109)
(0.666413 0 -4.27929)
(0.147012 0 -4.44086)
(1.68812 0 -4.70713)
(-0.698601 0 4.42891)
(-0.398013 0 4.69194)
(-1.40777 0 4.51589)
(-0.946815 0 4.82837)
(-2.12236 0 4.52655)
(-1.63688 0 4.85334)
(-2.84364 0 4.49412)
(-2.29569 0 4.83765)
(-3.57144 0 4.41927)
(-2.97161 0 4.77828)
(-4.30434 0 4.30425)
(-3.65533 0 4.67829)
(-5.03881 0 4.149)
(-4.34608 0 4.53749)
(-5.76895 0 3.9517)
(-5.0395 0 4.35396)
(-6.48618 0 3.70895)
(-5.72874 0 4.12398)
(-7.17891 0 3.4163)
(-6.40395 0 3.84243)
(-7.83238 0 3.06897)
(-7.05202 0 3.50348)
(-8.42863 0 2.66278)
(-7.65641 0 3.1015)
(-8.94678 0 2.19527)
(-8.1972 0 2.63216)
(-9.36359 0 1.66709)
(-8.65143 0 2.09378)
(-9.65495 0 1.08358)
(-8.99383 0 1.48924)
(-9.79907 0 0.456433)
(-9.19794 0 0.828241)
(-9.77517 0 -0.196283)
(-9.23867 0 0.124068)
(-9.58103 0 -0.85049)
(-9.10545 0 -0.587185)
(-9.21828 0 -1.48196)
(-8.8182 0 -1.28587)
(-8.69503 0 -2.07328)
(-8.37455 0 -1.94582)
(-8.01943 0 -2.61279)
(-7.78341 0 -2.55397)
(-7.19948 0 -3.09124)
(-7.05166 0 -3.10125)
(-6.24537 0 -3.49992)
(-6.18671 0 -3.57844)
(-5.17365 0 -3.83393)
(-5.20159 0 -3.97522)
(-4.00466 0 -4.09626)
(-4.11433 0 -4.28956)
(-2.76419 0 -4.30174)
(-2.95227 0 -4.52705)
(-1.48177 0 -4.47542)
(-1.74889 0 -4.7098)
(-0.216769 0 -4.65766)
(-0.499514 0 -4.86092)
(0.961065 0 -4.86762)
(0.576787 0 -5.03162)
(1.89327 0 -5.20789)
(-0.58393 0 5.06172)
(-0.322764 0 5.26386)
(-1.18315 0 5.14218)
(-0.764142 0 5.40141)
(-1.79137 0 5.14456)
(-1.34057 0 5.42125)
(-2.41009 0 5.10486)
(-1.88648 0 5.40171)
(-3.03988 0 5.02257)
(-2.45608 0 5.33887)
(-3.68016 0 4.89845)
(-3.038 0 5.23477)
(-4.3282 0 4.73061)
(-3.63304 0 5.08741)
(-4.97881 0 4.51533)
(-4.23742 0 4.89302)
(-5.62393 0 4.2472)
(-4.84496 0 4.64587)
(-6.25232 0 3.91979)
(-5.44635 0 4.33877)
(-6.84928 0 3.52645)
(-6.02887 0 3.96386)
(-7.39659 0 3.0614)
(-6.57616 0 3.51362)
(-7.87273 0 2.52109)
(-7.0682 0 2.98222)
(-8.25336 0 1.90594)
(-7.48132 0 2.36701)
(-8.51285 0 1.22282)
(-7.78848 0 1.67112)
(-8.62762 0 0.487489)
(-7.96023 0 0.906777)
(-8.58404 0 -0.27544)
(-7.96906 0 0.0949547)
(-8.37444 0 -1.03432)
(-7.81608 0 -0.723927)
(-8.00958 0 -1.76038)
(-7.52225 0 -1.51829)
(-7.50111 0 -2.43621)
(-7.0897 0 -2.26206)
(-6.85732 0 -3.05141)
(-6.52825 0 -2.94492)
(-6.08411 0 -3.59706)
(-5.84285 0 -3.5597)
(-5.18886 0 -4.06232)
(-5.03745 0 -4.09671)
(-4.18738 0 -4.43978)
(-4.12449 0 -4.5413)
(-3.09996 0 -4.73031)
(-3.11945 0 -4.88969)
(-1.9554 0 -4.94587)
(-2.05308 0 -5.1438)
(-0.788409 0 -5.10326)
(-0.953167 0 -5.32379)
(0.331411 0 -5.23622)
(0.150791 0 -5.43617)
(1.34499 0 -5.36948)
(1.08607 0 -5.54)
(2.20788 0 -5.62979)
(-0.454409 0 5.57823)
(-0.241817 0 5.70893)
(-0.929684 0 5.65957)
(-0.562573 0 5.85592)
(-1.41789 0 5.66014)
(-1.0121 0 5.87709)
(-1.92096 0 5.61969)
(-1.43264 0 5.86034)
(-2.44009 0 5.5368)
(-1.88382 0 5.80096)
(-2.97542 0 5.41079)
(-2.35179 0 5.70004)
(-3.52488 0 5.23784)
(-2.839 0 5.55367)
(-4.08392 0 5.01224)
(-3.34215 0 5.35621)
(-4.64514 0 4.72649)
(-3.85578 0 5.09988)
(-5.19786 0 4.37198)
(-4.37135 0 4.77535)
(-5.72785 0 3.94)
(-4.87689 0 4.37259)
(-6.21706 0 3.42294)
(-5.35678 0 3.88199)
(-6.64376 0 2.81579)
(-5.79156 0 3.29594)
(-6.98287 0 2.11844)
(-6.15751 0 2.61044)
(-7.20728 0 1.33918)
(-6.42552 0 1.82841)
(-7.29251 0 0.498886)
(-6.56166 0 0.965102)
(-7.22514 0 -0.36845)
(-6.53449 0 0.0499357)
(-7.0025 0 -1.22303)
(-6.36243 0 -0.869175)
(-6.64117 0 -2.03295)
(-6.06833 0 -1.74845)
(-6.15666 0 -2.78197)
(-5.65593 0 -2.56339)
(-5.55604 0 -3.46293)
(-5.13527 0 -3.30965)
(-4.84203 0 -4.06802)
(-4.50827 0 -3.98305)
(-4.01818 0 -4.58395)
(-3.77413 0 -4.57364)
(-3.09925 0 -4.99973)
(-2.94618 0 -5.06071)
(-2.1052 0 -5.31274)
(-2.03403 0 -5.43829)
(-1.06642 0 -5.5295)
(-1.07365 0 -5.70355)
(-0.0333082 0 -5.65994)
(-0.091652 0 -5.86733)
(0.940976 0 -5.74036)
(0.852011 0 -5.93666)
(1.81883 0 -5.79927)
(1.67695 0 -5.9803)
(2.62056 0 -5.98465)
(-0.313521 0 5.96601)
(-0.157645 0 6.016)
(-0.653754 0 6.05599)
(-0.346792 0 6.18128)
(-1.01046 0 6.06147)
(-0.659138 0 6.21016)
(-1.38623 0 6.02725)
(-0.943677 0 6.20292)
(-1.78288 0 5.95102)
(-1.26577 0 6.15404)
(-2.2013 0 5.83063)
(-1.60852 0 6.06369)
(-2.63999 0 5.66033)
(-1.97647 0 5.92593)
(-3.09508 0 5.43239)
(-2.36655 0 5.73328)
(-3.55992 0 5.13722)
(-2.77406 0 5.47592)
(-4.02475 0 4.764)
(-3.19136 0 5.14251)
(-4.47628 0 4.30178)
(-3.6077 0 4.72082)
(-4.89727 0 3.74078)
(-4.00875 0 4.199)
(-5.26642 0 3.07422)
(-4.37665 0 3.56734)
(-5.55841 0 2.30096)
(-4.68864 0 2.82005)
(-5.74496 0 1.43093)
(-4.91331 0 1.95916)
(-5.79871 0 0.491492)
(-5.00945 0 1.00188)
(-5.70812 0 -0.47333)
(-4.9416 0 -0.0105927)
(-5.47647 0 -1.4138)
(-4.75646 0 -1.0203)
(-5.12635 0 -2.29438)
(-4.47179 0 -1.97147)
(-4.67634 0 -3.10364)
(-4.09097 0 -2.84327)
(-4.13043 0 -3.83993)
(-3.62283 0 -3.64115)
(-3.48733 0 -4.49676)
(-3.06552 0 -4.36435)
(-2.74638 0 -5.0577)
(-2.41266 0 -5.00259)
(-1.92074 0 -5.5071)
(-1.68031 0 -5.52738)
(-1.03073 0 -5.83659)
(-0.870143 0 -5.92948)
(-0.113902 0 -6.04555)
(-0.0288658 0 -6.19758)
(0.778342 0 -6.14503)
(0.813351 0 -6.33676)
(1.61912 0 -6.17722)
(1.62021 0 -6.36856)