/*--------------------------------*- C++ -*----------------------------------*\
  =========                 |
  \\      /  F ield         | OpenFOAM: The Open Source CFD Toolbox
   \\    /   O peration     | Website:  https://openfoam.org
    \\  /    A nd           | Version:  dev
     \\/     M anipulation  |
\*---------------------------------------------------------------------------*/
FoamFile
{
    version     2.0;
    format      ascii;
    class       volScalarField;
    location    "1.9";
    object      p;
}
// * * * * * * * * * * * * * * * * * * * * * * * * * * * * * * * * * * * * * //

dimensions      [0 2 -2 0 0 0 0];

internalField   nonuniform List<scalar> 
2790
(
150.995
150.902
151.169
151.741
152.521
153.479
154.612
155.919
157.395
159.037
160.836
162.787
164.88
167.104
169.444
171.878
174.381
176.918
179.448
181.92
184.275
186.45
188.378
189.996
191.254
192.126
192.56
192.615
192.666
192.879
150.792
150.81
151.102
151.67
152.447
153.402
154.53
155.831
157.3
158.933
160.723
162.664
164.746
166.959
169.288
171.712
174.207
176.738
179.266
181.742
184.108
186.3
188.252
189.898
191.18
192.052
192.448
192.503
192.634
192.919
150.593
150.681
150.992
151.55
152.314
153.256
154.369
155.652
157.1
158.708
160.47
162.379
164.427
166.602
168.889
171.27
173.721
176.21
178.7
181.145
183.492
185.682
187.652
189.339
190.687
191.661
192.253
192.607
192.922
193.22
150.368
150.487
150.811
151.36
152.109
153.034
154.128
155.387
156.806
158.381
160.104
161.97
163.968
166.088
168.315
170.632
173.015
175.437
177.862
180.25
182.555
184.724
186.703
188.44
189.892
191.042
191.908
192.578
193.13
193.648
150.107
150.24
150.572
151.114
151.847
152.751
153.819
155.046
156.429
157.96
159.634
161.443
163.379
165.429
167.58
169.815
172.111
174.445
176.784
179.095
181.338
183.471
185.45
187.238
188.806
190.147
191.275
192.236
193.046
193.792
149.806
149.944
150.279
150.811
151.524
152.402
153.439
154.628
155.966
157.446
159.061
160.803
162.664
164.632
166.692
168.829
171.023
173.25
175.486
177.699
179.859
181.934
183.894
185.712
187.372
188.872
190.216
191.42
192.439
193.355
149.464
149.603
149.934
150.453
151.143
151.991
152.991
154.137
155.423
156.843
158.39
160.056
161.831
163.703
165.66
167.685
169.76
171.864
173.975
176.069
178.122
180.111
182.016
183.824
185.527
187.126
188.617
189.994
191.158
192.203
149.079
149.216
149.54
150.043
150.707
151.521
152.479
153.575
154.803
156.156
157.627
159.207
160.885
162.651
164.491
166.389
168.329
170.292
172.258
174.208
176.124
177.989
179.794
181.533
183.209
184.826
186.379
187.849
189.097
190.246
148.652
148.786
149.1
149.583
150.218
150.994
151.906
152.947
154.111
155.39
156.777
158.261
159.833
161.482
163.192
164.95
166.739
168.541
170.339
172.116
173.858
175.554
177.2
178.798
180.357
181.89
183.396
184.864
186.134
187.37
148.186
148.314
148.614
149.075
149.678
150.413
151.275
152.256
153.35
154.549
155.845
157.226
158.683
160.204
161.773
163.377
164.998
166.619
168.224
169.796
171.323
172.796
174.212
175.578
176.908
178.225
179.543
180.878
182.077
183.379
147.68
147.802
148.087
148.523
149.091
149.782
150.59
151.507
152.527
153.64
154.838
156.109
157.443
158.826
160.244
161.679
163.117
164.537
165.923
167.257
168.523
169.712
170.818
171.844
172.806
173.733
174.661
175.657
176.618
177.934
147.137
147.252
147.52
147.929
148.461
149.105
149.855
150.705
151.646
152.668
153.763
154.918
156.122
157.359
158.615
159.871
161.11
162.31
163.452
164.514
165.474
166.316
167.023
167.588
168.013
168.322
168.563
168.869
169.248
170.419
146.56
146.667
146.917
147.297
147.789
148.384
149.075
149.853
150.712
151.64
152.627
153.661
154.728
155.813
156.899
157.966
158.993
159.957
160.832
161.591
162.204
162.639
162.861
162.836
162.532
161.934
161.058
160.065
159.114
159.616
145.951
146.049
146.28
146.629
147.081
147.624
148.253
148.958
149.732
150.562
151.438
152.347
153.273
154.201
155.11
155.98
156.785
157.5
158.092
158.524
158.755
158.733
158.395
157.665
156.443
154.615
152.054
148.752
144.802
142.761
145.311
145.401
145.611
145.929
146.338
146.829
147.394
148.024
148.71
149.441
150.204
150.984
151.767
152.533
153.262
153.93
154.508
154.965
155.263
155.354
155.183
154.674
153.732
152.22
149.945
146.618
141.779
134.767
124.305
112.07
6.44343
6.38358
6.20457
5.95423
5.67668
5.39115
5.10475
4.82202
4.5473
4.28496
4.03966
3.81546
3.61415
3.43653
3.28655
3.16845
3.07795
3.00903
2.95573
2.91348
2.86539
2.79727
2.69543
2.55389
2.36753
2.12872
1.83011
1.45562
0.981695
0.39293
6.29928
6.23155
6.06743
5.83879
5.58066
5.31069
5.03694
4.76465
4.49835
4.24266
4.003
3.78402
3.58721
3.41292
3.26592
3.14889
3.0552
2.98909
2.94658
2.91559
2.87892
2.81753
2.72007
2.57791
2.38746
2.14498
1.84176
1.47061
0.995144
0.397838
6.17097
6.09485
5.93968
5.72766
5.48683
5.23157
4.97014
4.70807
4.44985
4.20015
3.96566
3.75255
3.55971
3.38097
3.23626
3.14008
3.064
2.99698
2.95161
2.92132
2.88617
2.82775
2.73361
2.59584
2.40996
2.17156
1.86658
1.47706
0.9897
0.384769
6.07835
5.99307
5.84275
5.64159
5.41389
5.17074
4.92021
4.66768
4.41755
4.17304
3.94086
3.73361
3.55774
3.40537
3.25775
3.13613
3.061
3.00591
2.96727
2.93824
2.90176
2.84155
2.74556
2.60583
2.41744
2.17479
1.86182
1.4639
0.968643
0.362073
6.05726
5.96268
5.8156
5.62002
5.39956
5.16349
4.92006
4.67436
4.43256
4.19837
3.97629
3.77334
3.59108
3.4311
3.29552
3.1842
3.10197
3.04252
2.99895
2.96197
2.91689
2.84915
2.74702
2.60203
2.40811
2.15749
1.835
1.4306
0.933252
0.334141
6.12617
6.02006
5.86944
5.672
5.45013
5.21369
4.97089
4.72723
4.48781
4.25762
4.04051
3.8378
3.65307
3.49078
3.35374
3.24177
3.15432
3.08705
3.03356
2.98448
2.92712
2.84847
2.73721
2.58445
2.38256
2.12058
1.79
1.38166
0.887062
0.308068
6.27931
6.15713
5.99191
5.78224
5.54942
5.30447
5.05557
4.8081
4.56641
4.33532
4.1141
3.90996
3.72582
3.56257
3.42216
3.30501
3.2097
3.13216
3.06627
3.00319
2.93177
2.84025
2.7179
2.55549
2.34405
2.07264
1.7347
1.32337
0.834498
0.283867
6.47758
6.33084
6.14132
5.91066
5.66048
5.40322
5.14638
4.89404
4.64874
4.41305
4.19244
3.98783
3.80198
3.63606
3.49112
3.3672
3.26266
3.17375
3.09462
3.01713
2.93128
2.82637
2.69216
2.51925
2.29802
2.01864
1.67495
1.26126
0.780085
0.261429
6.65955
6.48273
6.26754
6.01874
5.75549
5.48763
5.22318
4.96693
4.72093
4.48572
4.26489
4.05992
3.87247
3.7036
3.55391
3.42309
3.30944
3.20944
3.11764
3.02658
2.92713
2.8094
2.66362
2.48037
2.25004
1.96392
1.61554
1.19988
0.727268
0.240635
6.78488
6.59091
6.35634
6.09244
5.81869
5.54559
5.27853
5.02098
4.77531
4.54228
4.32329
4.11936
3.9315
3.76053
3.60683
3.46999
3.34832
3.23857
3.1357
3.03281
2.92147
2.79236
2.63605
2.44334
2.20504
1.91317
1.5605
1.14276
0.678273
0.221567
6.84765
6.63817
6.38875
6.11184
5.831
5.55734
5.2944
5.04303
4.80372
4.57685
4.36296
4.16253
3.9762
3.80469
3.64844
3.50712
3.37921
3.26174
3.15005
3.03774
2.91684
2.77837
2.6131
2.41221
2.16719
1.87025
1.51318
1.09252
0.634437
0.204369
6.79559
6.56017
6.30494
6.03426
5.76713
5.51013
5.26454
5.0291
4.80331
4.58772
4.38283
4.18883
4.00625
3.83606
3.67905
3.53517
3.40318
3.28041
3.16259
3.04368
2.916
2.77063
2.59834
2.39068
2.13999
1.83831
1.47625
1.05112
0.596602
0.189156
6.55082
6.30083
6.07445
5.84697
5.62238
5.40357
5.19129
4.98245
4.77688
4.57728
4.3851
4.20032
4.0235
3.85633
3.70034
3.55594
3.42216
3.2967
3.17563
3.05318
2.92175
2.77223
2.5951
2.38204
2.12632
1.81982
1.45184
1.02
0.565308
0.175988
6.03892
5.79199
5.67158
5.5546
5.40901
5.24996
5.08692
4.91383
4.73228
4.55139
4.37474
4.20134
4.03156
3.86851
3.71505
3.57204
3.43873
3.31312
3.19168
3.06881
2.93677
2.78603
2.60634
2.3891
2.12838
1.8167
1.44164
1.00029
0.540982
0.16486
5.1211
4.89941
5.06793
5.19436
5.16181
5.07338
4.973
4.84139
4.68088
4.5178
4.35849
4.19788
4.03509
3.87627
3.72639
3.58656
3.45577
3.33234
3.21323
3.09295
2.96341
2.81437
2.63452
2.4143
2.14834
1.83047
1.44668
0.993233
0.524175
0.155589
144.631
144.712
144.901
145.186
145.551
145.987
146.486
147.038
147.634
148.262
148.908
149.557
150.192
150.792
151.336
151.796
152.141
152.334
152.33
152.072
151.488
150.483
148.923
146.615
143.26
138.363
131.004
119.265
97.1108
37.2517
143.904
143.975
144.141
144.392
144.711
145.09
145.519
145.991
146.494
147.015
147.54
148.054
148.537
148.968
149.322
149.571
149.679
149.604
149.296
148.689
147.7
146.214
144.075
141.051
136.785
130.695
121.749
108.22
88.756
60.4436
143.134
143.195
143.338
143.552
143.824
144.144
144.503
144.892
145.299
145.712
146.115
146.49
146.82
147.08
147.244
147.282
147.154
146.817
146.214
145.276
143.91
141.997
139.373
135.808
130.98
124.435
115.59
103.815
89.6824
73.2548
142.322
142.374
142.493
142.67
142.894
143.153
143.441
143.746
144.056
144.359
144.638
144.876
145.052
145.143
145.12
144.95
144.596
144.008
143.129
141.888
140.193
137.927
134.94
131.036
125.969
119.452
111.191
100.863
88.4161
73.4232
141.472
141.513
141.608
141.748
141.922
142.121
142.335
142.556
142.77
142.963
143.119
143.221
143.246
143.171
142.967
142.599
142.03
141.21
140.082
138.577
136.61
134.073
130.84
126.755
121.64
115.298
107.531
98.1027
86.8496
73.9814
140.585
140.615
140.685
140.787
140.912
141.05
141.192
141.328
141.446
141.53
141.566
141.535
141.414
141.179
140.802
140.249
139.481
138.452
137.108
135.383
133.201
130.472
127.092
122.942
117.893
111.814
104.583
96.1043
86.3718
75.7991
139.663
139.683
139.728
139.793
139.868
139.945
140.015
140.068
140.091
140.07
139.989
139.828
139.568
139.182
138.644
137.92
136.974
135.763
134.235
132.334
129.995
127.143
123.697
119.571
114.678
108.942
102.31
94.771
86.3716
77.4463
138.71
138.719
138.74
138.767
138.794
138.811
138.811
138.782
138.713
138.59
138.396
138.113
137.72
137.194
136.508
135.631
134.529
133.162
131.486
129.453
127.007
124.091
120.645
116.61
111.933
106.576
100.525
93.8021
86.4572
78.7608
137.729
137.728
137.725
137.716
137.694
137.653
137.585
137.477
137.32
137.098
136.797
136.399
135.884
135.23
134.411
133.399
132.163
130.669
128.878
126.75
124.243
121.312
117.915
114.015
109.583
104.606
99.0894
93.0679
86.5952
79.8973
136.725
136.714
136.688
136.642
136.575
136.477
136.342
136.16
135.918
135.604
135.203
134.698
134.071
133.301
132.364
131.236
129.89
128.295
126.42
124.232
121.7
118.792
115.48
111.742
107.566
102.954
97.9225
92.5118
86.7745
80.8943
135.702
135.682
135.632
135.553
135.44
135.289
135.091
134.837
134.515
134.115
133.622
133.019
132.291
131.419
130.381
129.156
127.72
126.048
124.117
121.899
119.372
116.515
113.311
109.749
105.828
101.559
96.9645
92.0836
86.9643
81.7541
134.665
134.635
134.564
134.452
134.297
134.094
133.837
133.516
133.121
132.641
132.063
131.373
130.556
129.594
128.47
127.166
125.661
123.935
121.97
119.747
117.248
114.462
111.38
107.999
104.325
100.372
96.1666
91.7434
87.1447
82.489
133.619
133.581
133.489
133.346
133.151
132.9
132.587
132.204
131.741
131.189
130.535
129.767
128.872
127.835
126.641
125.273
123.717
121.957
119.978
117.768
115.316
112.614
109.661
106.459
103.018
99.3538
95.4921
91.4644
87.3065
83.1141
132.571
132.524
132.413
132.241
132.008
131.713
131.349
130.909
130.384
129.767
129.046
128.21
127.248
126.148
124.897
123.483
121.892
120.113
118.137
115.955
113.56
110.951
108.128
105.099
101.875
98.472
94.9138
91.2283
87.4454
83.6429
131.525
131.471
131.342
131.143
130.876
130.54
130.129
129.637
129.058
128.382
127.603
126.709
125.691
124.54
123.245
121.797
120.185
118.402
116.441
114.297
111.968
109.454
106.761
103.896
100.871
97.7023
94.4114
91.0221
87.5596
84.0872
130.489
130.428
130.283
130.059
129.76
129.387
128.934
128.397
127.768
127.043
126.212
125.27
124.207
123.015
121.688
120.217
118.595
116.819
114.882
112.785
110.526
108.109
105.54
102.827
99.984
97.0253
93.9694
90.8369
87.6492
84.4579
129.47
129.402
129.242
128.995
128.669
128.262
127.772
127.194
126.523
125.754
124.881
123.898
122.798
121.577
120.227
118.743
117.122
115.36
113.455
111.408
109.221
106.899
104.447
101.877
99.1981
96.426
93.5764
90.6669
87.7154
84.7645
128.474
128.4
128.227
127.96
127.608
127.172
126.649
126.035
125.328
124.522
123.614
122.598
121.471
120.227
118.863
117.375
115.761
114.02
112.152
110.159
108.043
105.812
103.47
101.029
98.4991
95.8926
93.2239
90.5081
87.7603
85.0156
127.508
127.429
127.244
126.959
126.585
126.123
125.572
124.928
124.189
123.353
122.417
121.376
120.227
118.969
117.598
116.112
114.512
112.796
110.967
109.028
106.982
104.836
102.597
100.273
97.876
95.4161
92.9059
90.3584
87.7864
85.219
126.58
126.496
126.301
126.001
125.607
125.123
124.547
123.878
123.114
122.253
121.293
120.233
119.07
117.803
116.431
114.953
113.37
111.682
109.894
108.007
106.028
103.962
101.816
99.5992
97.3203
94.9897
92.6181
90.2167
87.7965
85.3816
125.697
125.61
125.405
125.092
124.681
124.178
123.581
122.891
122.106
121.225
120.249
119.175
118.003
116.732
115.363
113.896
112.332
110.675
108.927
107.091
105.175
103.182
101.121
98.9993
96.8253
94.6082
92.3574
90.0827
87.7933
85.5096
124.868
124.777
124.565
124.24
123.815
123.295
122.682
121.974
121.172
120.276
119.287
118.203
117.026
115.756
114.393
112.94
111.398
109.771
108.061
106.274
104.415
102.49
100.505
98.4678
96.3862
94.2683
92.1224
89.957
87.7803
85.6091
124.1
124.006
123.787
123.452
123.015
122.482
121.854
121.133
120.318
119.411
118.412
117.323
116.144
114.877
113.523
112.084
110.564
108.966
107.294
105.552
103.745
101.88
99.9627
98
95.9991
93.9672
91.9118
89.8403
87.7599
85.6848
123.402
123.305
123.079
122.736
122.289
121.745
121.106
120.373
119.548
118.633
117.628
116.536
115.358
114.096
112.752
111.329
109.831
108.26
106.622
104.92
103.161
101.349
99.4914
97.5935
95.6623
93.7043
91.7263
89.7348
87.7363
85.7428
122.781
122.682
122.451
122.1
121.644
121.091
120.443
119.702
118.869
117.948
116.94
115.847
114.671
113.415
112.082
110.674
109.196
107.651
106.043
104.378
102.659
100.894
99.0874
97.245
95.373
93.4776
91.5648
89.6405
87.7106
85.7849
122.248
122.147
121.91
121.551
121.088
120.528
119.873
119.125
118.288
117.362
116.352
115.26
114.088
112.838
111.516
110.122
108.662
107.14
105.559
103.925
102.242
100.516
98.7522
96.9563
95.1339
93.2905
91.4318
89.5631
87.6899
85.8206
121.813
121.707
121.463
121.097
120.627
120.06
119.4
118.647
117.806
116.878
115.867
114.776
113.608
112.365
111.052
109.671
108.227
106.723
105.165
103.557
101.903
100.21
98.4808
96.7224
94.9397
93.1378
91.3221
89.4975
87.6689
85.8432
121.486
121.375
121.122
120.749
120.274
119.703
119.038
118.282
117.438
116.509
115.498
114.409
113.244
112.007
110.701
109.331
107.9
106.412
104.872
103.284
101.653
99.9848
98.2835
96.5544
94.8025
93.033
91.2506
89.4603
87.6668
85.8761
121.284
121.149
120.878
120.499
120.022
119.449
118.781
118.023
117.178
116.249
115.239
114.152
112.99
111.758
110.458
109.096
107.674
106.197
104.669
103.095
101.48
99.8287
98.1457
96.436
94.7045
92.9561
91.1955
89.4272
87.6557
85.8859
121.265
121.066
120.767
120.382
119.902
119.325
118.655
117.895
117.049
116.12
115.111
114.025
112.866
111.638
110.343
108.986
107.57
106.101
104.582
103.017
101.413
99.7723
98.101
96.4037
94.6851
92.9499
91.2028
89.4481
87.6903
85.9335
-47.008
-26.9553
-7.31268
40.3294
33.2752
22.0201
56.0553
44.2267
33.3384
57.3334
47.0477
39.1495
61.5662
53.3848
46.7307
65.8747
59.0489
53.231
69.0653
63.244
58.2451
71.5822
66.6005
62.3259
73.6995
69.3981
65.7129
75.4832
71.726
68.5145
76.9794
73.6635
70.8362
78.2369
75.2834
72.7701
79.2957
76.6424
74.388
80.1873
77.7852
75.7465
80.9377
78.7476
76.8901
81.5684
79.5586
77.8545
82.0973
80.2416
78.6683
82.5393
80.816
79.3545
82.9069
81.2978
79.9322
83.2112
81.7006
80.4175
83.4614
82.0358
80.8235
83.6661
82.3137
81.1621
83.8318
82.5421
81.4424
83.9664
82.7302
81.6743
84.0726
82.8812
81.8622
84.162
83.0076
82.0185
84.2258
83.1011
82.1365
84.2931
83.191
82.2434
84.3231
83.2371
82.3036
84.3916
83.3197
82.3926
2.41193
2.66513
4.02006
4.88765
4.96448
4.90146
4.87184
4.78866
4.63353
4.48339
4.34407
4.19777
4.03993
3.88402
3.73856
3.60372
3.47734
3.35803
3.24366
3.12886
3.00494
2.86069
2.68319
2.46108
2.18894
1.86258
1.46854
0.999844
0.514742
0.147371
8.57426
5.29748
5.7774
5.51679
4.76412
4.56614
4.77661
4.8149
4.6069
4.45361
4.33966
4.21098
4.0518
3.8955
3.75578
3.62848
3.50827
3.39452
3.28697
3.18053
3.06525
2.92846
2.75548
2.53235
2.25289
1.91559
1.50849
1.02178
0.513375
0.138943
19.2911
10.8181
7.78672
5.96644
5.31324
5.27699
5.3777
4.96578
4.47759
4.35501
4.3401
4.25498
4.07753
3.91356
3.78224
3.66635
3.55388
3.44653
3.34767
3.2522
3.14795
3.0209
2.85543
2.63362
2.34558
1.99351
1.56977
1.06229
0.523674
0.130694
28.5766
18.8244
13.071
9.4474
7.39709
6.26491
5.59351
5.06886
4.80811
4.69982
4.59444
4.35641
4.07476
3.90336
3.80819
3.72055
3.61921
3.51849
3.43033
3.34923
3.25939
3.1448
2.98819
2.76689
2.46652
2.09553
1.65339
1.1246
0.553435
0.123352
37.5189
27.8735
20.628
15.3417
11.6319
9.08615
7.37314
6.24388
5.53385
5.05783
4.72591
4.46202
4.25898
4.10674
3.97859
3.84388
3.70922
3.60159
3.52929
3.47122
3.40072
3.29944
3.15161
2.93402
2.62662
2.23767
1.76881
1.20648
0.603701
0.114386
45.3182
36.4703
28.64
22.2413
17.3186
13.6343
10.9164
8.92451
7.46556
6.40074
5.63719
5.08712
4.68287
4.37863
4.15596
3.99462
3.87684
3.79228
3.72993
3.66979
3.59523
3.49407
3.34919
3.13318
2.8179
2.40238
1.89472
1.29854
0.672711
0.0982739
51.6665
43.9145
36.1921
29.3418
23.7233
19.2287
15.6589
12.8423
10.6405
8.9394
7.63657
6.63581
5.86137
5.26626
4.82169
4.49681
4.2614
4.09497
3.98312
3.90644
3.83881
3.75051
3.6104
3.38652
3.05267
2.60412
2.04926
1.39671
0.713476
0.0473254
56.8351
50.1383
42.9201
36.1199
30.2433
25.2798
21.1098
17.6398
14.7896
12.4745
10.6072
9.10497
7.89969
6.94046
6.18677
5.60076
5.14923
4.80751
4.55515
4.36783
4.21548
4.06546
3.88369
3.63359
3.28063
2.80645
2.21055
1.50434
0.748436
-0.0543689
61.0509
55.2535
48.6935
42.2386
36.4248
31.3012
26.8064
22.9033
19.5597
16.7277
14.3488
12.3623
10.7127
9.35184
8.23782
7.33281
6.60312
6.01989
5.55651
5.18444
4.87198
4.58526
4.28857
3.94423
3.51681
2.98265
2.33342
1.57576
0.749078
-0.211265
64.489
59.4299
53.5397
47.5638
42.0091
36.9512
32.362
28.2376
24.5798
21.3735
18.5879
16.1853
14.1259
12.3717
10.8868
9.63764
8.59223
7.7208
6.99446
6.38324
5.85476
5.37436
4.90555
4.41103
3.85632
3.21611
2.47804
1.64342
0.730636
-0.371552
67.3099
62.8517
57.575
52.1077
46.905
42.0484
37.5254
33.3483
29.5384
26.103
23.0331
20.3103
17.9112
15.8102
13.9807
12.3955
11.0273
9.84869
8.83196
7.94802
7.16548
6.45071
5.7684
5.08304
4.36184
3.57923
2.72031
1.78103
0.766589
-0.441484
69.644
65.6764
60.9352
55.9508
51.1249
46.5347
42.1735
38.0587
34.2204
30.6784
27.4381
24.4956
21.8409
19.4599
17.3356
15.4485
13.7772
12.299
10.9895
9.82239
8.769
7.79842
6.8782
5.9758
5.06097
4.10915
3.1043
2.03904
0.914097
-0.370562
71.5888
68.0258
63.7426
59.1933
54.7318
50.4277
46.2747
42.2901
38.506
34.9477
31.6289
28.5549
25.7254
23.1355
20.7763
18.6356
16.6984
14.9473
13.3624
11.9214
10.5996
9.36991
8.20374
7.07233
5.94869
4.81028
3.64135
2.43372
1.18864
-0.166248
73.2179
69.9919
66.0987
61.9319
57.8058
53.7816
49.8517
46.0307
42.3494
38.8343
35.5032
32.3666
29.4302
26.6956
24.1602
21.818
19.6595
17.6726
15.842
14.15
12.5761
11.0978
9.69081
8.33045
6.99339
5.65968
4.31488
2.95153
1.5725
0.133094
74.588
71.6453
68.0842
64.2505
60.4253
56.6625
52.9525
49.3066
45.7525
42.3161
39.0161
35.8659
32.8744
30.0475
27.387
24.8914
22.556
20.3729
18.3314
16.418
14.6167
12.9091
11.2753
9.69484
8.14785
6.61719
5.09014
3.56021
2.03095
0.481233
75.7435
73.0402
69.7629
66.2183
62.6597
59.1349
55.6325
52.1604
48.7428
45.4036
42.1612
39.0298
36.0203
33.1407
30.3959
27.7877
25.3147
22.9728
20.7549
18.6515
16.6502
14.7368
12.8952
11.1087
9.36069
7.63667
5.9254
4.22098
2.52597
0.837168
76.7191
74.2192
71.1853
67.8913
64.5675
61.2564
57.9453
54.6389
51.3577
48.1234
44.9532
41.8612
38.8589
35.9553
33.1574
30.4689
27.8912
25.4229
23.06
20.7959
18.6218
16.5267
14.498
12.522
10.5852
8.67488
6.78109
4.8977
3.02491
1.17145
77.5431
75.2166
72.3916
69.315
66.1972
63.0765
59.939
56.7866
53.6367
50.5084
47.4173
44.3767
41.398
38.4908
35.6628
32.9192
30.2633
27.6955
25.2144
22.8158
20.4937
18.2397
16.0442
13.896
11.7838
9.6967
7.62505
5.56198
3.50443
1.46768
78.2385
76.0598
73.4146
70.5265
67.5889
64.6367
61.6552
58.6439
55.6172
52.5917
49.5816
46.5988
43.6541
40.7571
37.9158
35.1363
32.4229
29.7778
27.2009
24.6904
22.2421
19.8501
17.5068
15.2033
12.9298
10.6766
8.43417
6.19442
3.9507
1.7206
78.8241
76.7718
74.2813
71.5563
68.776
65.9721
63.1296
60.2459
57.3328
54.4047
51.4739
48.5512
45.6465
42.769
39.9265
37.1256
34.3712
31.6664
29.0126
26.4092
23.8539
21.3424
18.8689
16.426
14.0054
11.5978
9.19366
6.78357
4.35752
1.93249
79.316
77.3713
75.0137
72.4299
69.7862
67.1123
64.3926
61.6231
58.8133
55.9755
53.1203
50.2573
47.3954
44.543
41.7078
38.8962
36.1134
33.3633
30.648
27.9681
25.3224
22.708
20.1203
17.5533
14.9993
12.4497
9.89475
7.32354
4.72341
2.10911
79.7275
77.8745
75.6309
73.1686
70.6432
68.0823
65.4704
62.8022
60.085
57.3294
54.5446
51.739
48.9202
46.096
43.2735
40.459
37.6577
34.8737
32.1098
29.3672
26.6455
23.943
21.2558
18.5789
15.9054
13.2268
10.5331
7.81225
5.04964
2.25706
80.0698
78.2945
76.148
73.7898
71.366
68.9028
66.3846
63.805
61.1698
58.488
55.7674
53.0152
50.2381
47.4431
44.6366
41.8246
39.0121
36.2033
33.4012
30.6076
27.8226
25.0451
22.2721
19.4991
16.7195
13.9252
11.1057
8.24854
5.33746
2.38114
80.3537
78.6435
76.5793
74.3095
71.9723
69.5926
67.1548
64.6519
62.0882
59.4714
56.8081
54.1045
51.3664
48.5999
45.8108
43.0047
40.1863
37.3598
34.5282
31.6934
28.8562
26.0156
23.1693
20.3131
17.4408
14.5443
11.6131
8.6339
5.58982
2.48609
80.5852
78.9292
76.9337
74.7379
72.4734
70.1639
67.7943
65.3565
62.854
60.2933
57.6801
55.0194
52.3165
49.5765
46.8048
44.0064
41.1858
38.3469
35.4926
32.6251
29.7452
26.8523
23.9443
21.0172
18.0653
15.0803
12.0517
8.96577
5.80525
2.57214
80.7762
79.1642
77.2251
75.0903
72.8855
70.634
68.3207
65.9371
63.4858
60.9722
58.4014
55.7776
53.1052
50.389
47.6336
44.8435
42.0229
39.1755
36.3043
33.4111
30.497
27.5615
24.6027
21.6168
18.598
15.5383
12.4269
9.24998
5.98994
2.64494
80.9233
79.346
77.4515
75.365
73.2078
71.0024
68.7341
66.3939
63.9837
61.5082
58.9718
56.3781
53.7311
51.0348
48.2934
45.5111
42.6917
39.8387
36.9548
34.0421
31.1013
28.1322
25.1329
22.0996
19.0268
15.9063
12.7272
9.47559
6.13394
2.69744
81.0491
79.4974
77.6369
75.5871
73.4659
71.2954
69.0611
66.754
64.3751
61.9287
59.4188
56.8484
54.2211
51.5404
48.8103
46.0345
43.2166
40.3599
37.467
34.5397
31.579
28.5845
25.5543
22.4849
19.3705
16.2028
12.9711
9.66099
6.25478
2.74314
81.126
79.5905
77.7522
75.7273
73.6303
71.4831
69.2716
66.9866
64.6287
62.2019
59.7098
57.1551
54.5411
51.8711
49.1487
46.3775
43.5608
40.7018
37.803
34.8662
31.8923
28.8808
25.8299
22.736
19.5933
16.3935
13.1255
9.77464
6.32311
2.75946
81.2142
79.6798
77.8539
75.844
73.7608
71.6262
69.4269
67.1536
64.8068
62.3901
59.907
57.3602
54.7526
52.0875
49.3684
46.5987
43.7818
40.9206
38.0176
35.0747
32.0926
29.0711
26.0082
22.9003
19.7416
16.5237
13.235
9.86012
6.37835
2.76546
)
;

boundaryField
{
    inlet
    {
        type            zeroGradient;
    }
    outlet
    {
        type            fixedValue;
        value           uniform 0;
    }
    flap
    {
        type            zeroGradient;
    }
    upperWall
    {
        type            zeroGradient;
    }
    lowerWall
    {
        type            zeroGradient;
    }
    frontAndBack
    {
        type            empty;
    }
}


// ************************************************************************* //
