/*--------------------------------*- C++ -*----------------------------------*\
  =========                 |
  \\      /  F ield         | OpenFOAM: The Open Source CFD Toolbox
   \\    /   O peration     | Website:  https://openfoam.org
    \\  /    A nd           | Version:  dev
     \\/     M anipulation  |
\*---------------------------------------------------------------------------*/
FoamFile
{
    version     2.0;
    format      ascii;
    class       surfaceVectorField;
    location    "1.9";
    object      Uf;
}
// * * * * * * * * * * * * * * * * * * * * * * * * * * * * * * * * * * * * * //

dimensions      [0 1 -1 0 0 0 0];

internalField   nonuniform List<vector> 
5457
(
(9.92087 0 0.0251148)
(9.97124 0 0.0387524)
(9.82397 0 0.0328363)
(9.92856 0 0.0485996)
(9.70952 0 0.0393264)
(9.85542 0 0.0587917)
(9.57528 0 0.0460313)
(9.75668 0 0.0706268)
(9.42115 0 0.0529744)
(9.63734 0 0.0830573)
(9.24721 0 0.0601975)
(9.49833 0 0.0959912)
(9.05317 0 0.067848)
(9.33892 0 0.109678)
(8.83835 0 0.0760772)
(9.15823 0 0.124364)
(8.6018 0 0.085018)
(8.95544 0 0.140252)
(8.34239 0 0.0947972)
(8.72958 0 0.157526)
(8.05881 0 0.105543)
(8.47945 0 0.176369)
(7.74961 0 0.117386)
(8.20365 0 0.19696)
(7.41321 0 0.130455)
(7.90066 0 0.219465)
(7.048 0 0.144869)
(7.56886 0 0.244025)
(6.6524 0 0.160728)
(7.2066 0 0.270729)
(6.22496 0 0.178095)
(6.81227 0 0.299587)
(5.76457 0 0.196972)
(6.3845 0 0.330486)
(5.27065 0 0.217266)
(5.92225 0 0.363137)
(4.74342 0 0.238756)
(5.42513 0 0.397006)
(4.18425 0 0.261036)
(4.89366 0 0.431238)
(3.59606 0 0.283471)
(4.32967 0 0.464588)
(2.98374 0 0.30516)
(3.7367 0 0.495356)
(2.35444 0 0.324996)
(3.12048 0 0.521401)
(1.71762 0 0.34243)
(2.48944 0 0.540398)
(1.08312 0 0.361678)
(1.85444 0 0.551451)
(0.450983 0 0.348249)
(1.2443 0 0.562684)
(-0.145928 0 0.102361)
(0.608066 0 0.544184)
(-0.423359 0 -0.206418)
(0.0945389 0 0.259043)
(-0.401839 0 -0.360428)
(-0.134168 0 -0.0205803)
(-0.119395 0 -0.393576)
(9.99639 0 0.0516882)
(9.99704 0 0.040518)
(9.95874 0 0.0708901)
(9.97848 0 0.0674837)
(9.89815 0 0.0880296)
(9.93371 0 0.0899174)
(9.81643 0 0.106043)
(9.86442 0 0.113622)
(9.71335 0 0.124995)
(9.77419 0 0.138603)
(9.58875 0 0.144944)
(9.66407 0 0.164757)
(9.44229 0 0.166196)
(9.53359 0 0.192464)
(9.27331 0 0.189087)
(9.38199 0 0.222184)
(9.08093 0 0.213916)
(9.20854 0 0.25432)
(8.86401 0 0.240959)
(9.01237 0 0.289252)
(8.62124 0 0.270487)
(8.79237 0 0.327353)
(8.35117 0 0.302761)
(8.54725 0 0.368995)
(8.05218 0 0.33801)
(8.27556 0 0.414527)
(7.72258 0 0.376409)
(7.97574 0 0.464253)
(7.36069 0 0.418037)
(7.64615 0 0.518384)
(6.96492 0 0.462824)
(7.28512 0 0.576982)
(6.53393 0 0.510478)
(6.89114 0 0.639873)
(6.06685 0 0.560392)
(6.46291 0 0.706536)
(5.56358 0 0.61154)
(5.99964 0 0.77597)
(5.02509 0 0.662358)
(5.50128 0 0.846527)
(4.45391 0 0.710628)
(4.96892 0 0.915742)
(3.85462 0 0.7534)
(4.40528 0 0.980166)
(3.23446 0 0.78699)
(3.81524 0 1.03523)
(2.60427 0 0.807217)
(3.20681 0 1.07516)
(1.98149 0 0.810079)
(2.59194 0 1.09272)
(1.40425 0 0.776359)
(1.99497 0 1.07651)
(0.928712 0 0.64577)
(1.41849 0 0.977713)
(0.438962 0 0.383494)
(0.936748 0 0.716332)
(0.0588132 0 -0.119131)
(0.442922 0 0.342958)
(0.17476 0 -0.335972)
(9.98902 0 0.0594576)
(9.9948 0 0.0458974)
(9.9543 0 0.0895246)
(9.97366 0 0.0848979)
(9.89721 0 0.118104)
(9.92978 0 0.119244)
(9.82031 0 0.147996)
(9.86346 0 0.154076)
(9.72393 0 0.179546)
(9.77717 0 0.19054)
(9.60789 0 0.212927)
(9.67199 0 0.228801)
(9.4719 0 0.24857)
(9.54772 0 0.269325)
(9.31551 0 0.286977)
(9.40382 0 0.312723)
(9.13798 0 0.328621)
(9.23971 0 0.359579)
(8.93839 0 0.373964)
(9.05472 0 0.410451)
(8.71564 0 0.42346)
(8.84797 0 0.465893)
(8.46844 0 0.477556)
(8.61843 0 0.526459)
(8.19536 0 0.536657)
(8.36492 0 0.592682)
(7.89486 0 0.60109)
(8.08614 0 0.66504)
(7.56532 0 0.671038)
(7.78068 0 0.743903)
(7.20512 0 0.746453)
(7.44709 0 0.829445)
(6.81275 0 0.826937)
(7.08393 0 0.921533)
(6.38699 0 0.911584)
(6.68987 0 1.01956)
(5.92711 0 0.998794)
(6.26382 0 1.12226)
(5.43321 0 1.08605)
(5.8052 0 1.22743)
(4.90665 0 1.1697)
(5.31417 0 1.33165)
(4.35061 0 1.24466)
(4.79212 0 1.42999)
(3.7709 0 1.30421)
(4.24222 0 1.51555)
(3.1772 0 1.33938)
(3.67019 0 1.57897)
(2.58529 0 1.33754)
(3.08488 0 1.60715)
(2.01871 0 1.27226)
(2.50167 0 1.58084)
(1.48595 0 1.09469)
(1.92769 0 1.46341)
(0.957664 0 0.7686)
(1.38441 0 1.20961)
(0.479388 0 0.20199)
(0.828998 0 0.800336)
(0.433336 0 0.133559)
(9.98514 0 0.0716511)
(9.99366 0 0.0531745)
(9.95035 0 0.113697)
(9.97085 0 0.102349)
(9.89428 0 0.154233)
(9.92684 0 0.148048)
(9.81867 0 0.195708)
(9.86174 0 0.193855)
(9.72419 0 0.238983)
(9.77727 0 0.241452)
(9.61079 0 0.284533)
(9.67439 0 0.291381)
(9.4783 0 0.332965)
(9.55305 0 0.344214)
(9.32638 0 0.384952)
(9.41285 0 0.400671)
(9.15453 0 0.441154)
(9.25337 0 0.461474)
(8.96206 0 0.502214)
(9.07406 0 0.527326)
(8.74816 0 0.568775)
(8.87427 0 0.598924)
(8.51189 0 0.641467)
(8.65321 0 0.676965)
(8.25216 0 0.720883)
(8.40999 0 0.762127)
(7.96781 0 0.807529)
(8.14361 0 0.855033)
(7.6576 0 0.901749)
(7.85302 0 0.956193)
(7.32024 0 1.00362)
(7.53711 0 1.0659)
(6.95443 0 1.11279)
(7.19471 0 1.18413)
(6.559 0 1.22828)
(6.8247 0 1.31029)
(6.13301 0 1.34822)
(6.42601 0 1.44303)
(5.67596 0 1.46955)
(5.99776 0 1.57991)
(5.18814 0 1.5876)
(5.53945 0 1.71696)
(4.67108 0 1.69572)
(5.05122 0 1.84827)
(4.12813 0 1.7847)
(4.53422 0 1.96541)
(3.56513 0 1.84192)
(3.99111 0 2.05672)
(2.99071 0 1.84997)
(3.42615 0 2.10639)
(2.4147 0 1.7816)
(2.84637 0 2.09357)
(1.83961 0 1.59953)
(2.25518 0 1.9877)
(1.25873 0 1.27757)
(1.6595 0 1.75198)
(0.666416 0 0.788787)
(1.02344 0 1.36677)
(0.522776 0 0.786272)
(9.98336 0 0.0844553)
(9.99316 0 0.0613247)
(9.94817 0 0.136923)
(9.96956 0 0.12)
(9.89306 0 0.18816)
(9.92569 0 0.176358)
(9.81891 0 0.240342)
(9.86188 0 0.232865)
(9.72639 0 0.294687)
(9.77945 0 0.291305)
(9.61556 0 0.351926)
(9.67912 0 0.352545)
(9.48626 0 0.412783)
(9.56089 0 0.4173)
(9.33821 0 0.478031)
(9.42445 0 0.48638)
(9.17099 0 0.548442)
(9.26944 0 0.560621)
(8.98406 0 0.624775)
(9.0954 0 0.64084)
(8.77677 0 0.707785)
(8.90179 0 0.727849)
(8.54836 0 0.798215)
(8.68796 0 0.822455)
(8.29803 0 0.896773)
(8.45318 0 0.925444)
(8.02488 0 1.00408)
(8.19666 0 1.03755)
(7.72798 0 1.1206)
(7.91756 0 1.15937)
(7.40634 0 1.24651)
(7.615 0 1.29134)
(7.05896 0 1.38154)
(7.28806 0 1.43349)
(6.68482 0 1.52476)
(6.93575 0 1.58536)
(6.28295 0 1.67425)
(6.55706 0 1.74564)
(5.85248 0 1.82672)
(6.15092 0 1.91189)
(5.39284 0 1.97704)
(5.71628 0 2.08002)
(4.90395 0 2.11767)
(5.25219 0 2.24377)
(4.38656 0 2.23805)
(4.75794 0 2.39409)
(3.8424 0 2.3238)
(4.23329 0 2.51848)
(3.27407 0 2.35603)
(3.67839 0 2.60033)
(2.68423 0 2.30952)
(3.09442 0 2.61861)
(2.07176 0 2.15385)
(2.48062 0 2.54607)
(1.42872 0 1.86624)
(1.83909 0 2.35241)
(0.742266 0 1.41847)
(1.13085 0 2.02323)
(0.543055 0 1.51328)
(9.98263 0 0.0975563)
(9.99299 0 0.0698329)
(9.94739 0 0.15988)
(9.96922 0 0.137671)
(9.89345 0 0.221504)
(9.9259 0 0.204068)
(9.82118 0 0.284304)
(9.86369 0 0.270889)
(9.7311 0 0.349617)
(9.78366 0 0.339845)
(9.62333 0 0.418345)
(9.68636 0 0.412023)
(9.49773 0 0.49132)
(9.57178 0 0.488291)
(9.35406 0 0.569407)
(9.43969 0 0.569552)
(9.19196 0 0.653482)
(9.28976 0 0.656734)
(9.01095 0 0.744412)
(9.12161 0 0.75076)
(8.81047 0 0.843055)
(8.93473 0 0.852537)
(8.58988 0 0.950259)
(8.72858 0 0.962967)
(8.34849 0 1.06683)
(8.5025 0 1.08293)
(8.08554 0 1.19349)
(8.25581 0 1.21324)
(7.80027 0 1.33079)
(7.98775 0 1.3546)
(7.49182 0 1.47901)
(7.69753 0 1.50752)
(7.15932 0 1.63802)
(7.38429 0 1.67218)
(6.80178 0 1.80697)
(7.04706 0 1.84822)
(6.41813 0 1.98405)
(6.68472 0 2.03453)
(6.00714 0 2.16606)
(6.29595 0 2.22885)
(5.56746 0 2.34785)
(5.87915 0 2.42731)
(5.09759 0 2.52175)
(5.43235 0 2.62388)
(4.59598 0 2.6769)
(4.95322 0 2.80969)
(4.06109 0 2.79861)
(4.43909 0 2.97239)
(3.49128 0 2.86802)
(3.88694 0 3.09556)
(2.88463 0 2.86165)
(3.29386 0 3.15861)
(2.23706 0 2.75253)
(2.65578 0 3.13644)
(1.54177 0 2.51958)
(1.97399 0 3.00161)
(0.793304 0 2.12992)
(1.20672 0 2.73899)
(0.556489 0 2.29027)
(9.98249 0 0.110696)
(9.99301 0 0.0784085)
(9.94766 0 0.182449)
(9.96951 0 0.15514)
(9.89513 0 0.254003)
(9.92716 0 0.231052)
(9.82508 0 0.327018)
(9.86684 0 0.307744)
(9.73789 0 0.402874)
(9.78958 0 0.38683)
(9.63369 0 0.482621)
(9.69576 0 0.46953)
(9.51239 0 0.567211)
(9.58538 0 0.556853)
(9.37377 0 0.657607)
(9.45826 0 0.649796)
(9.21753 0 0.754782)
(9.31412 0 0.749376)
(9.04323 0 0.859696)
(9.15262 0 0.856604)
(8.85037 0 0.973304)
(8.97333 0 0.972484)
(8.63837 0 1.09654)
(8.77572 0 1.098)
(8.4066 0 1.23029)
(8.55922 0 1.23413)
(8.15437 0 1.37538)
(8.32316 0 1.38178)
(7.88091 0 1.53244)
(8.06682 0 1.54174)
(7.58541 0 1.70188)
(7.7894 0 1.71464)
(7.26692 0 1.88369)
(7.48997 0 1.9008)
(6.92437 0 2.07724)
(7.16745 0 2.10007)
(6.55641 0 2.28096)
(6.82049 0 2.31161)
(6.16136 0 2.49197)
(6.44739 0 2.53352)
(5.73705 0 2.70554)
(6.0459 0 2.76246)
(5.28073 0 2.91446)
(5.61309 0 2.99303)
(4.78895 0 3.10838)
(5.14519 0 3.21715)
(4.25757 0 3.27317)
(4.63748 0 3.4233)
(3.68187 0 3.39058)
(4.08434 0 3.5959)
(3.05677 0 3.43819)
(3.47984 0 3.71504)
(2.37673 0 3.39014)
(2.81716 0 3.75641)
(1.63721 0 3.22443)
(2.09825 0 3.69211)
(0.838774 0 2.8991)
(1.27837 0 3.50254)
(0.573107 0 3.1118)
(9.98272 0 0.123662)
(9.99316 0 0.0868716)
(9.94868 0 0.204454)
(9.97024 0 0.172211)
(9.89785 0 0.285468)
(9.9292 0 0.257166)
(9.83034 0 0.368257)
(9.87111 0 0.343258)
(9.74646 0 0.454223)
(9.79695 0 0.432032)
(9.64633 0 0.544528)
(9.70705 0 0.524791)
(9.5299 0 0.640235)
(9.60139 0 0.62266)
(9.397 0 0.742399)
(9.47983 0 0.726732)
(9.24735 0 0.852077)
(9.34215 0 0.838105)
(9.08058 0 0.970321)
(9.18807 0 0.957875)
(8.89624 0 1.09817)
(9.01719 0 1.08713)
(8.6938 0 1.23665)
(8.82906 0 1.22696)
(8.47265 0 1.38675)
(8.62312 0 1.37841)
(8.2321 0 1.54936)
(8.39875 0 1.5425)
(7.9714 0 1.72528)
(8.15522 0 1.72015)
(7.68964 0 1.91503)
(7.89167 0 1.91213)
(7.38575 0 2.11882)
(7.60708 0 2.11895)
(7.05842 0 2.33628)
(7.30018 0 2.34073)
(6.70594 0 2.56625)
(6.96931 0 2.57702)
(6.32608 0 2.80639)
(6.61233 0 2.82647)
(5.91584 0 3.05271)
(6.22632 0 3.08649)
(5.47127 0 3.29892)
(5.80739 0 3.35268)
(4.98725 0 3.53576)
(5.35039 0 3.61818)
(4.45745 0 3.75022)
(4.84877 0 3.87288)
(3.87456 0 3.92498)
(4.29453 0 4.1025)
(3.23094 0 4.03812)
(3.67892 0 4.28795)
(2.51975 0 4.06305)
(2.99219 0 4.40478)
(1.73763 0 3.97407)
(2.2364 0 4.42239)
(0.889093 0 3.71665)
(1.36277 0 4.314)
(0.598488 0 3.98261)
(9.98319 0 0.136296)
(9.99339 0 0.0951019)
(9.95027 0 0.225737)
(9.97129 0 0.188724)
(9.90141 0 0.315743)
(9.93186 0 0.282266)
(9.83677 0 0.407837)
(9.8763 0 0.377267)
(9.75658 0 0.503437)
(9.80558 0 0.475242)
(9.66098 0 0.603792)
(9.71999 0 0.57755)
(9.54997 0 0.710063)
(9.61953 0 0.685412)
(9.42339 0 0.823389)
(9.50408 0 0.800006)
(9.28104 0 0.944907)
(9.37349 0 0.92251)
(9.12258 0 1.07575)
(9.22753 0 1.0541)
(8.94763 0 1.21706)
(9.06587 0 1.19594)
(8.75569 0 1.36993)
(8.88809 0 1.34922)
(8.54621 0 1.53547)
(8.69371 0 1.51508)
(8.3185 0 1.71469)
(8.48213 0 1.69465)
(8.07177 0 1.90853)
(8.25261 0 1.889)
(7.80503 0 2.11772)
(8.00427 0 2.09908)
(7.51707 0 2.34271)
(7.73599 0 2.32566)
(7.20631 0 2.58353)
(7.44631 0 2.56921)
(6.87065 0 2.83956)
(7.13332 0 2.82977)
(6.50728 0 3.10918)
(6.7944 0 3.10671)
(6.11239 0 3.38943)
(6.42603 0 3.3984)
(5.68089 0 3.67533)
(6.02343 0 3.70175)
(5.20609 0 3.95918)
(5.58016 0 4.01158)
(4.67955 0 4.22961)
(5.08785 0 4.31969)
(4.09132 0 4.4706)
(4.53602 0 4.61373)
(3.43086 0 4.66052)
(3.91274 0 4.87585)
(2.68884 0 4.77088)
(3.20409 0 5.08125)
(1.86096 0 4.76996)
(2.41009 0 5.1954)
(0.953731 0 4.58722)
(1.47557 0 5.18159)
(0.638882 0 4.91673)
(9.98385 0 0.148473)
(9.99368 0 0.103013)
(9.9523 0 0.246158)
(9.97258 0 0.204545)
(9.90568 0 0.344678)
(9.93503 0 0.306213)
(9.8442 0 0.445575)
(9.88228 0 0.409615)
(9.76807 0 0.550291)
(9.81531 0 0.516268)
(9.67742 0 0.660142)
(9.73439 0 0.627573)
(9.5723 0 0.776372)
(9.63955 0 0.74483)
(9.45261 0 0.900197)
(9.53071 0 0.869295)
(9.31819 0 1.03283)
(9.40778 0 1.00221)
(9.16876 0 1.17549)
(9.27058 0 1.14484)
(9.00401 0 1.32938)
(9.11886 0 1.29841)
(8.8235 0 1.49573)
(8.95227 0 1.4642)
(8.62671 0 1.67572)
(8.77038 0 1.64346)
(8.413 0 1.87053)
(8.57264 0 1.83745)
(8.18156 0 2.08125)
(8.35837 0 2.04739)
(7.93135 0 2.30886)
(8.12666 0 2.27445)
(7.66105 0 2.55417)
(7.87637 0 2.5197)
(7.36886 0 2.81765)
(7.60592 0 2.78403)
(7.05236 0 3.09934)
(7.31321 0 3.06809)
(6.70825 0 3.39859)
(6.99531 0 3.37209)
(6.33202 0 3.71368)
(6.64823 0 3.69557)
(5.91751 0 4.04133)
(6.26644 0 4.03708)
(5.45654 0 4.3759)
(5.84241 0 4.39352)
(4.93852 0 4.70831)
(5.36603 0 4.75928)
(4.35044 0 5.02455)
(4.82417 0 5.12484)
(3.67765 0 5.30383)
(4.20087 0 5.47472)
(2.90599 0 5.51551)
(3.47601 0 5.78475)
(2.02662 0 5.62013)
(2.64363 0 6.01648)
(1.04458 0 5.52648)
(1.63688 0 6.12072)
(0.704115 0 5.93983)
(9.98463 0 0.160098)
(9.99402 0 0.110539)
(9.95468 0 0.26559)
(9.97406 0 0.219568)
(9.91055 0 0.372132)
(9.93861 0 0.328883)
(9.85249 0 0.481305)
(9.88891 0 0.44016)
(9.78073 0 0.594582)
(9.82597 0 0.554937)
(9.69542 0 0.713335)
(9.75006 0 0.674652)
(9.59664 0 0.838876)
(9.66121 0 0.800668)
(9.48434 0 0.972493)
(9.55942 0 0.934306)
(9.35841 0 1.11547)
(9.44465 0 1.07688)
(9.21868 0 1.26908)
(9.31679 0 1.22969)
(9.06486 0 1.43464)
(9.17566 0 1.39408)
(8.89662 0 1.61344)
(9.021 0 1.57137)
(8.71349 0 1.8068)
(8.85246 0 1.76293)
(8.5149 0 2.01603)
(8.66957 0 1.97014)
(8.30007 0 2.24243)
(8.47171 0 2.1944)
(8.06798 0 2.48726)
(8.25806 0 2.43711)
(7.81726 0 2.75169)
(8.0275 0 2.69967)
(7.54602 0 3.03676)
(7.77846 0 2.98345)
(7.25168 0 3.34328)
(7.50879 0 3.28974)
(6.93061 0 3.67169)
(7.21549 0 3.6197)
(6.57781 0 4.02178)
(6.89433 0 3.97423)
(6.18636 0 4.39232)
(6.53939 0 4.35375)
(5.74677 0 4.78034)
(6.14241 0 4.75774)
(5.2463 0 5.17996)
(5.6919 0 5.18397)
(4.66841 0 5.58056)
(5.17213 0 5.62709)
(3.99275 0 5.96385)
(4.56249 0 6.07615)
(3.19673 0 6.29863)
(3.8342 0 6.51045)
(2.26063 0 6.53732)
(2.96925 0 6.89054)
(1.18004 0 6.56162)
(1.87821 0 7.1541)
(0.812424 0 7.0956)
(9.98552 0 0.171092)
(9.99439 0 0.117631)
(9.95733 0 0.28393)
(9.97569 0 0.233704)
(9.9159 0 0.39798)
(9.94251 0 0.350167)
(9.86151 0 0.514878)
(9.8961 0 0.468774)
(9.79441 0 0.63613)
(9.83742 0 0.591095)
(9.71477 0 0.763154)
(9.7668 0 0.718602)
(9.62271 0 0.897322)
(9.68429 0 0.852706)
(9.51824 0 1.03998)
(9.58993 0 0.994784)
(9.40132 0 1.19246)
(9.48376 0 1.1462)
(9.27184 0 1.35613)
(9.36573 0 1.30832)
(9.12962 0 1.53234)
(9.23576 0 1.48253)
(8.9744 0 1.7225)
(9.09368 0 1.67024)
(8.80582 0 1.92802)
(8.93924 0 1.87291)
(8.62339 0 2.15038)
(8.77209 0 2.09204)
(8.42644 0 2.39107)
(8.59174 0 2.32919)
(8.21402 0 2.65164)
(8.39748 0 2.58599)
(7.98485 0 2.93366)
(8.18832 0 2.86418)
(7.73711 0 3.23876)
(7.96286 0 3.1656)
(7.46822 0 3.56859)
(7.71911 0 3.49221)
(7.17457 0 3.92475)
(7.45422 0 3.84616)
(6.85104 0 4.30876)
(7.16414 0 4.22978)
(6.49036 0 4.72177)
(6.84309 0 4.64553)
(6.0823 0 5.16411)
(6.48272 0 5.09584)
(5.61242 0 5.6343)
(6.07105 0 5.5827)
(5.06066 0 6.12722)
(5.59062 0 6.10663)
(4.39973 0 6.63061)
(5.01658 0 6.66447)
(3.5942 0 7.11757)
(4.31008 0 7.24482)
(2.60304 0 7.53666)
(3.43388 0 7.81601)
(1.39369 0 7.73635)
(2.25546 0 8.31061)
(1.00224 0 8.46063)
(9.98649 0 0.181394)
(9.9948 0 0.124249)
(9.96021 0 0.301086)
(9.97744 0 0.246882)
(9.92166 0 0.422111)
(9.94669 0 0.369973)
(9.87115 0 0.546163)
(9.90373 0 0.495348)
(9.80895 0 0.674777)
(9.84954 0 0.624612)
(9.73527 0 0.809413)
(9.78444 0 0.759266)
(9.65025 0 0.951487)
(9.70855 0 0.900759)
(9.55399 0 1.10239)
(9.62194 0 1.05051)
(9.44651 0 1.26352)
(9.52473 0 1.20993)
(9.32777 0 1.43627)
(9.41695 0 1.38042)
(9.19771 0 1.62208)
(9.29862 0 1.56342)
(9.05617 0 1.82241)
(9.16966 0 1.7604)
(8.9029 0 2.03879)
(9.02997 0 1.9729)
(8.73756 0 2.27283)
(8.87933 0 2.20252)
(8.55962 0 2.52621)
(8.71741 0 2.45096)
(8.36833 0 2.80075)
(8.54371 0 2.72007)
(8.16258 0 3.09843)
(8.35748 0 3.01188)
(7.9408 0 3.42143)
(8.1576 0 3.32865)
(7.70072 0 3.7722)
(7.94246 0 3.67299)
(7.43905 0 4.15357)
(7.7097 0 4.04797)
(7.15107 0 4.5688)
(7.45588 0 4.45725)
(6.82993 0 5.0216)
(7.17602 0 4.90532)
(6.46558 0 5.51612)
(6.86275 0 5.39771)
(6.04321 0 6.05649)
(6.50504 0 5.94112)
(5.54058 0 6.64578)
(6.08599 0 6.54347)
(4.92411 0 7.28331)
(5.57949 0 7.21322)
(4.14273 0 7.95712)
(4.93953 0 7.95718)
(3.12033 0 8.62888)
(4.10722 0 8.77064)
(1.75565 0 9.1231)
(2.87744 0 9.61565)
(1.36447 0 10.1802)
(9.98752 0 0.190954)
(9.99522 0 0.130361)
(9.96327 0 0.316984)
(9.97929 0 0.259044)
(9.92774 0 0.444435)
(9.95107 0 0.388223)
(9.88129 0 0.575049)
(9.91173 0 0.519789)
(9.8242 0 0.710395)
(9.8622 0 0.655377)
(9.75671 0 0.851962)
(9.80282 0 0.796513)
(9.67901 0 1.0012)
(9.73376 0 0.944674)
(9.59126 0 1.15954)
(9.65517 0 1.10131)
(9.49356 0 1.32841)
(9.5672 0 1.26785)
(9.38598 0 1.50925)
(9.47001 0 1.44575)
(9.26853 0 1.70353)
(9.36368 0 1.63647)
(9.14119 0 1.91279)
(9.24828 0 1.84152)
(9.00388 0 2.13864)
(9.12384 0 2.06248)
(8.8564 0 2.38278)
(8.99031 0 2.30106)
(8.69844 0 2.64707)
(8.84758 0 2.55905)
(8.52951 0 2.93356)
(8.69539 0 2.83848)
(8.34882 0 3.24455)
(8.53333 0 3.14159)
(8.15521 0 3.58271)
(8.3607 0 3.47099)
(7.94697 0 3.95123)
(8.17646 0 3.8298)
(7.72155 0 4.35398)
(7.97903 0 4.22181)
(7.47523 0 4.7958)
(7.76606 0 4.65181)
(7.20247 0 5.28289)
(7.53408 0 5.12598)
(6.89491 0 5.8232)
(7.27788 0 5.65253)
(6.53966 0 6.42713)
(6.98953 0 6.24259)
(6.116 0 7.10809)
(6.65635 0 6.91168)
(5.58927 0 7.88329)
(6.25786 0 7.68207)
(4.89802 0 8.77272)
(5.75372 0 8.58737)
(3.92522 0 9.79585)
(5.08475 0 9.67897)
(2.43282 0 10.8513)
(3.97869 0 11.0428)
(2.14644 0 12.563)
(9.9886 0 0.199731)
(9.99566 0 0.135945)
(9.96647 0 0.331562)
(9.98121 0 0.270144)
(9.93409 0 0.464867)
(9.95563 0 0.404856)
(9.89183 0 0.60143)
(9.92002 0 0.542022)
(9.84001 0 0.742845)
(9.87528 0 0.683302)
(9.77889 0 0.890625)
(9.8218 0 0.83024)
(9.70874 0 1.04624)
(9.75978 0 0.98433)
(9.62974 0 1.21115)
(9.68943 0 1.14704)
(9.54209 0 1.38681)
(9.61098 0 1.31982)
(9.44596 0 1.57467)
(9.52467 0 1.50413)
(9.34147 0 1.77625)
(9.4307 0 1.70145)
(9.22875 0 1.99311)
(9.32928 0 1.91332)
(9.10786 0 2.22691)
(9.22057 0 2.14135)
(8.97882 0 2.47945)
(9.10473 0 2.38728)
(8.84158 0 2.75269)
(8.98189 0 2.65297)
(8.69596 0 3.04883)
(8.85209 0 2.94054)
(8.5416 0 3.37043)
(8.71531 0 3.25239)
(8.37791 0 3.7205)
(8.57139 0 3.59134)
(8.20394 0 4.10274)
(8.42001 0 3.9608)
(8.01825 0 4.52181)
(8.26059 0 4.36501)
(7.81868 0 4.98372)
(8.09224 0 4.80945)
(7.60195 0 5.49651)
(7.91363 0 5.30131)
(7.36308 0 6.07121)
(7.7228 0 5.85044)
(7.09421 0 6.72347)
(7.51694 0 6.47075)
(6.78225 0 7.47649)
(7.29186 0 7.1828)
(6.40379 0 8.36704)
(7.04223 0 8.01896)
(5.91196 0 9.4597)
(6.75805 0 9.03575)
(5.19434 0 10.9012)
(6.45872 0 10.349)
(3.88508 0 13.173)
(6.19048 0 12.2949)
(5.26695 0 16.3682)
(0.336189 0 -0.231569)
(0.181952 0 -0.329277)
(0.637697 0 -0.192513)
(0.438117 0 -0.288334)
(0.896788 0 -0.158396)
(0.695906 0 -0.241918)
(1.12147 0 -0.132187)
(0.928048 0 -0.204839)
(1.31881 0 -0.111782)
(1.12908 0 -0.175658)
(1.49353 0 -0.0953278)
(1.30485 0 -0.151844)
(1.64897 0 -0.0816788)
(1.46094 0 -0.131905)
(1.78749 0 -0.0700156)
(1.60062 0 -0.114768)
(1.91032 0 -0.0597157)
(1.72554 0 -0.0993711)
(2.01788 0 -0.050468)
(1.8363 0 -0.0849591)
(2.11074 0 -0.0422105)
(1.93295 0 -0.0716114)
(2.19007 0 -0.0347442)
(2.01588 0 -0.05974)
(2.25611 0 -0.0276499)
(2.08664 0 -0.0485481)
(2.30717 0 -0.0207)
(2.14565 0 -0.0366563)
(2.34328 0 -0.0133586)
(2.19051 0 -0.0253065)
(2.36688 0 -0.00493897)
(2.22258 0 -0.0161537)
(2.37915 0 0.00244358)
(2.24357 0 -0.00819437)
(2.38184 0 0.00488123)
(2.24271 0 -0.00175667)
(2.37726 0 0.00115728)
(2.21836 0 0.0029164)
(2.37343 0 -0.00729246)
(2.17473 0 0.00238377)
(2.37257 0 -0.0175642)
(2.11889 0 0.000520759)
(2.37452 0 -0.0261045)
(2.05742 0 -0.00115544)
(2.37635 0 -0.0304102)
(1.99577 0 -0.00105955)
(2.37577 0 -0.0300616)
(1.93867 0 0.000326185)
(2.37349 0 -0.0265492)
(1.8909 0 0.00125951)
(2.37463 0 -0.0221038)
(1.85811 0 -0.000612512)
(2.38552 0 -0.0193244)
(1.84946 0 -0.0057299)
(2.41648 0 -0.0186762)
(1.86038 0 -0.0159076)
(2.47528 0 -0.0187925)
(1.90324 0 -0.0294878)
(2.01839 0 -0.0454985)
(0.261609 0 -0.450943)
(0.119684 0 -0.585506)
(0.517157 0 -0.392021)
(0.337824 0 -0.532717)
(0.742974 0 -0.33068)
(0.540406 0 -0.452768)
(0.940706 0 -0.281077)
(0.726145 0 -0.385105)
(1.1157 0 -0.24164)
(0.887332 0 -0.331425)
(1.27192 0 -0.209368)
(1.02828 0 -0.287622)
(1.41212 0 -0.182173)
(1.15272 0 -0.250876)
(1.53822 0 -0.158366)
(1.26302 0 -0.219244)
(1.65111 0 -0.136518)
(1.36059 0 -0.190699)
(1.75069 0 -0.116124)
(1.44583 0 -0.163608)
(1.83699 0 -0.0976946)
(1.51834 0 -0.138173)
(1.91164 0 -0.0807053)
(1.57613 0 -0.115952)
(1.97607 0 -0.0627302)
(1.62186 0 -0.0959124)
(2.02803 0 -0.0451259)
(1.6614 0 -0.073958)
(2.06834 0 -0.0330358)
(1.68247 0 -0.0535588)
(2.09857 0 -0.0256963)
(1.65866 0 -0.036844)
(2.10483 0 -0.017146)
(1.60784 0 -0.0123739)
(2.07684 0 -0.00658423)
(1.5429 0 0.0165009)
(2.0127 0 0.00301161)
(1.4585 0 0.0437724)
(1.9182 0 0.0110646)
(1.35399 0 0.0611592)
(1.80298 0 0.0185184)
(1.23652 0 0.0704862)
(1.67856 0 0.0259551)
(1.11508 0 0.0726189)
(1.55812 0 0.032142)
(0.999108 0 0.0686631)
(1.45321 0 0.0342653)
(0.898578 0 0.0596269)
(1.37329 0 0.0288989)
(0.82211 0 0.0453645)
(1.32842 0 0.0163545)
(0.778282 0 0.023565)
(1.31506 0 0.000645631)
(0.768258 0 0.00130099)
(1.34214 0 -0.0195452)
(0.801983 0 -0.0298186)
(1.42236 0 -0.047815)
(0.872996 0 -0.0697243)
(1.03452 0 -0.111221)
(0.189876 0 -0.678703)
(0.0726439 0 -0.771478)
(0.373752 0 -0.60431)
(0.230992 0 -0.708559)
(0.536012 0 -0.51749)
(0.357704 0 -0.604273)
(0.677744 0 -0.444529)
(0.478682 0 -0.514316)
(0.801535 0 -0.385281)
(0.579533 0 -0.441616)
(0.909629 0 -0.336154)
(0.664701 0 -0.381568)
(1.00382 0 -0.294497)
(0.735436 0 -0.330805)
(1.08568 0 -0.257948)
(0.792961 0 -0.287068)
(1.15581 0 -0.223967)
(0.838432 0 -0.247434)
(1.21321 0 -0.191287)
(0.87229 0 -0.208944)
(1.25609 0 -0.162102)
(0.896724 0 -0.171245)
(1.28651 0 -0.139805)
(0.902644 0 -0.138859)
(1.30961 0 -0.121322)
(0.873818 0 -0.112891)
(1.3133 0 -0.0965775)
(0.814316 0 -0.0766112)
(1.26926 0 -0.0603969)
(0.746561 0 -0.022693)
(1.16868 0 -0.0181602)
(0.658707 0 0.0319908)
(1.04497 0 0.0259235)
(0.54719 0 0.0702862)
(0.919552 0 0.0672017)
(0.439888 0 0.0983223)
(0.795238 0 0.0977353)
(0.331687 0 0.122959)
(0.66974 0 0.115219)
(0.222897 0 0.139211)
(0.547784 0 0.120633)
(0.119098 0 0.144544)
(0.435473 0 0.115347)
(0.025337 0 0.139209)
(0.339339 0 0.100985)
(-0.0538146 0 0.124316)
(0.266594 0 0.0793117)
(-0.113077 0 0.100745)
(0.223815 0 0.0503407)
(-0.147376 0 0.0689736)
(0.212118 0 0.0156204)
(-0.150934 0 0.0298681)
(0.24607 0 -0.02447)
(-0.133514 0 -0.016562)
(0.326884 0 -0.0788216)
(-0.0674443 0 -0.0713327)
(0.460207 0 -0.138024)
(0.0173945 0 -0.136594)
(0.141715 0 -0.181653)
(0.11858 0 -0.819681)
(0.0302172 0 -0.88762)
(0.223271 0 -0.727643)
(0.118891 0 -0.808675)
(0.311498 0 -0.620585)
(0.161409 0 -0.686652)
(0.385538 0 -0.530274)
(0.209433 0 -0.581816)
(0.445821 0 -0.455654)
(0.239498 0 -0.495276)
(0.492595 0 -0.392838)
(0.257799 0 -0.42222)
(0.526031 0 -0.339157)
(0.262328 0 -0.359177)
(0.547473 0 -0.292366)
(0.252969 0 -0.304834)
(0.558104 0 -0.24979)
(0.228991 0 -0.256035)
(0.557565 0 -0.208523)
(0.188888 0 -0.208518)
(0.539812 0 -0.165083)
(0.136837 0 -0.157553)
(0.487454 0 -0.115258)
(0.0691926 0 -0.0994336)
(0.384782 0 -0.0563664)
(-0.0276348 0 -0.0374062)
(0.251697 0 0.00735344)
(-0.138716 0 0.0189239)
(0.132647 0 0.062965)
(-0.24534 0 0.0607487)
(0.0364537 0 0.102341)
(-0.333056 0 0.0978196)
(-0.0586921 0 0.130101)
(-0.421045 0 0.13386)
(-0.15483 0 0.152493)
(-0.504522 0 0.161042)
(-0.246697 0 0.168714)
(-0.584724 0 0.181477)
(-0.330979 0 0.174905)
(-0.657954 0 0.19163)
(-0.404839 0 0.169746)
(-0.720863 0 0.189396)
(-0.46483 0 0.153567)
(-0.771134 0 0.174779)
(-0.507115 0 0.127303)
(-0.80668 0 0.148795)
(-0.528529 0 0.0919038)
(-0.825399 0 0.112849)
(-0.527769 0 0.0481991)
(-0.82498 0 0.068554)
(-0.503815 0 -0.00416054)
(-0.804374 0 0.0169604)
(-0.454436 0 -0.064711)
(-0.771943 0 -0.0425413)
(-0.383319 0 -0.128716)
(-0.71579 0 -0.107865)
(-0.314137 0 -0.183506)
(-0.660635 0 -0.171293)
(-0.617705 0 -0.214408)
(0.0404253 0 -0.885311)
(-0.0137062 0 -0.927214)
(0.0616256 0 -0.775684)
(-0.00239626 0 -0.828949)
(0.0694016 0 -0.654308)
(-0.0455479 0 -0.693913)
(0.06827 0 -0.552005)
(-0.0770911 0 -0.580785)
(0.0552704 0 -0.465285)
(-0.123518 0 -0.483704)
(0.0302198 0 -0.390313)
(-0.178692 0 -0.400448)
(-0.00779075 0 -0.32393)
(-0.244872 0 -0.326922)
(-0.062174 0 -0.262983)
(-0.32188 0 -0.259775)
(-0.135709 0 -0.203387)
(-0.409652 0 -0.196547)
(-0.228198 0 -0.141966)
(-0.508374 0 -0.135463)
(-0.335451 0 -0.0787441)
(-0.615504 0 -0.0748388)
(-0.448335 0 -0.01815)
(-0.722452 0 -0.0144321)
(-0.546827 0 0.0326036)
(-0.821303 0 0.0350064)
(-0.629393 0 0.0734303)
(-0.903871 0 0.0781941)
(-0.711461 0 0.111184)
(-0.983412 0 0.11827)
(-0.793328 0 0.147392)
(-1.06037 0 0.153844)
(-0.869087 0 0.177246)
(-1.13201 0 0.18448)
(-0.939449 0 0.197994)
(-1.19623 0 0.206946)
(-1.00059 0 0.209114)
(-1.25163 0 0.220421)
(-1.05058 0 0.208532)
(-1.29669 0 0.222724)
(-1.0886 0 0.195387)
(-1.33056 0 0.212482)
(-1.11387 0 0.170161)
(-1.35305 0 0.189763)
(-1.12562 0 0.134104)
(-1.36411 0 0.155599)
(-1.12347 0 0.0888984)
(-1.36361 0 0.111631)
(-1.10779 0 0.0361934)
(-1.35124 0 0.0599041)
(-1.07893 0 -0.0237577)
(-1.32817 0 0.00140803)
(-1.04062 0 -0.0892892)
(-1.29734 0 -0.0626993)
(-0.998318 0 -0.153623)
(-1.26063 0 -0.129595)
(-0.96069 0 -0.205572)
(-1.23116 0 -0.190166)
(-1.21654 0 -0.233072)
(-0.0431476 0 -0.86639)
(-0.0629159 0 -0.884953)
(-0.107738 0 -0.740624)
(-0.131514 0 -0.767181)
(-0.18134 0 -0.610724)
(-0.255459 0 -0.625189)
(-0.263106 0 -0.500727)
(-0.365299 0 -0.506242)
(-0.3527 0 -0.405955)
(-0.482168 0 -0.403953)
(-0.450283 0 -0.323121)
(-0.601098 0 -0.315638)
(-0.555222 0 -0.248842)
(-0.721738 0 -0.237872)
(-0.665665 0 -0.180929)
(-0.842958 0 -0.168269)
(-0.779146 0 -0.118139)
(-0.96317 0 -0.104744)
(-0.89297 0 -0.0594336)
(-1.07981 0 -0.0455576)
(-1.00072 0 -0.00499431)
(-1.18755 0 0.00825621)
(-1.0935 0 0.0442656)
(-1.28438 0 0.0554358)
(-1.17756 0 0.0886802)
(-1.36942 0 0.0968041)
(-1.25752 0 0.128679)
(-1.45003 0 0.135594)
(-1.33234 0 0.164006)
(-1.52456 0 0.17071)
(-1.40091 0 0.194157)
(-1.59185 0 0.20077)
(-1.46072 0 0.217301)
(-1.65033 0 0.224447)
(-1.51106 0 0.231427)
(-1.69891 0 0.239785)
(-1.55051 0 0.23515)
(-1.73696 0 0.245555)
(-1.57878 0 0.22707)
(-1.76435 0 0.240304)
(-1.59644 0 0.206717)
(-1.78164 0 0.223206)
(-1.60428 0 0.174672)
(-1.78979 0 0.194414)
(-1.60299 0 0.132288)
(-1.78974 0 0.154851)
(-1.59314 0 0.0814245)
(-1.78212 0 0.10606)
(-1.57523 0 0.0238409)
(-1.76732 0 0.0500226)
(-1.54975 0 -0.0395116)
(-1.74707 0 -0.0123242)
(-1.521 0 -0.105775)
(-1.72138 0 -0.0778256)
(-1.49466 0 -0.168539)
(-1.69806 0 -0.143126)
(-1.47334 0 -0.218779)
(-1.68342 0 -0.200857)
(-1.6794 0 -0.241715)
(-0.129649 0 -0.765345)
(-0.117099 0 -0.757971)
(-0.277254 0 -0.630949)
(-0.260469 0 -0.626026)
(-0.427034 0 -0.500476)
(-0.455463 0 -0.485337)
(-0.577169 0 -0.390769)
(-0.629789 0 -0.369368)
(-0.724801 0 -0.297328)
(-0.798935 0 -0.272541)
(-0.868169 0 -0.216944)
(-0.958944 0 -0.191035)
(-1.00606 0 -0.14639)
(-1.10922 0 -0.120856)
(-1.1376 0 -0.083196)
(-1.24835 0 -0.0592887)
(-1.26148 0 -0.026016)
(-1.37523 0 -0.00452596)
(-1.37238 0 0.0247267)
(-1.49 0 0.0420384)
(-1.46993 0 0.0693528)
(-1.59203 0 0.0834911)
(-1.55838 0 0.109777)
(-1.68424 0 0.122039)
(-1.64118 0 0.147048)
(-1.76946 0 0.157678)
(-1.71686 0 0.180824)
(-1.8468 0 0.189924)
(-1.78418 0 0.209823)
(-1.91533 0 0.217888)
(-1.84211 0 0.23278)
(-1.97421 0 0.240414)
(-1.88965 0 0.248246)
(-2.0227 0 0.256217)
(-1.92657 0 0.254775)
(-2.06048 0 0.263868)
(-1.95278 0 0.251181)
(-2.0877 0 0.262251)
(-1.96896 0 0.23655)
(-2.10506 0 0.250367)
(-1.97636 0 0.210641)
(-2.11375 0 0.227702)
(-1.97633 0 0.173957)
(-2.1152 0 0.194392)
(-1.96996 0 0.127643)
(-2.11064 0 0.151166)
(-1.95807 0 0.073333)
(-2.10095 0 0.0993374)
(-1.94106 0 0.0127665)
(-2.08695 0 0.0406376)
(-1.92056 0 -0.0519274)
(-2.07028 0 -0.0233723)
(-1.90012 0 -0.116975)
(-2.05167 0 -0.0885804)
(-1.88475 0 -0.176999)
(-2.03895 0 -0.151018)
(-1.87574 0 -0.224403)
(-2.03506 0 -0.205377)
(-2.03707 0 -0.242918)
(-0.213974 0 -0.59072)
(-0.172242 0 -0.548397)
(-0.434443 0 -0.457031)
(-0.381549 0 -0.415189)
(-0.645318 0 -0.336448)
(-0.63492 0 -0.288439)
(-0.843974 0 -0.238641)
(-0.855226 0 -0.18826)
(-1.02782 0 -0.15718)
(-1.0555 0 -0.108891)
(-1.19639 0 -0.0877992)
(-1.23452 0 -0.0445332)
(-1.34868 0 -0.0284736)
(-1.39413 0 0.00837464)
(-1.48367 0 0.0217435)
(-1.53598 0 0.0525552)
(-1.60174 0 0.0647947)
(-1.66196 0 0.0909927)
(-1.70783 0 0.103464)
(-1.77392 0 0.125831)
(-1.80531 0 0.139428)
(-1.87624 0 0.158674)
(-1.89426 0 0.17267)
(-1.96886 0 0.189015)
(-1.97433 0 0.202672)
(-2.05191 0 0.216545)
(-2.04493 0 0.228739)
(-2.12505 0 0.240609)
(-2.10544 0 0.249847)
(-2.18788 0 0.2603)
(-2.15536 0 0.264838)
(-2.24004 0 0.274573)
(-2.19444 0 0.272499)
(-2.28138 0 0.282329)
(-2.22295 0 0.271709)
(-2.31209 0 0.28247)
(-2.24154 0 0.261555)
(-2.33285 0 0.274088)
(-2.25134 0 0.241409)
(-2.34475 0 0.256465)
(-2.25386 0 0.211104)
(-2.34928 0 0.229232)
(-2.2506 0 0.171003)
(-2.348 0 0.192455)
(-2.2428 0 0.122003)
(-2.3423 0 0.146652)
(-2.23139 0 0.0655371)
(-2.33327 0 0.0928902)
(-2.21721 0 0.00357112)
(-2.32199 0 0.0328126)
(-2.2026 0 -0.0608514)
(-2.31 0 -0.0312451)
(-2.19062 0 -0.123625)
(-2.29943 0 -0.0948865)
(-2.18459 0 -0.180245)
(-2.29625 0 -0.154112)
(-2.186 0 -0.224083)
(-2.30136 0 -0.204671)
(-2.30781 0 -0.238318)
(-0.290295 0 -0.360692)
(-0.225515 0 -0.264071)
(-0.575037 0 -0.240521)
(-0.486568 0 -0.142889)
(-0.832137 0 -0.135467)
(-0.777591 0 -0.0483795)
(-1.05926 0 -0.0536272)
(-1.02158 0 0.0188039)
(-1.2573 0 0.00742574)
(-1.23464 0 0.0673843)
(-1.42919 0 0.0537783)
(-1.42014 0 0.104866)
(-1.57916 0 0.0912976)
(-1.58197 0 0.135631)
(-1.71231 0 0.124269)
(-1.72451 0 0.162878)
(-1.8324 0 0.15478)
(-1.85189 0 0.18814)
(-1.9411 0 0.18336)
(-1.96593 0 0.21169)
(-2.03869 0 0.209997)
(-2.06791 0 0.233941)
(-2.12563 0 0.234254)
(-2.15845 0 0.254478)