/*--------------------------------*- C++ -*----------------------------------*\
  =========                 |
  \\      /  F ield         | OpenFOAM: The Open Source CFD Toolbox
   \\    /   O peration     | Website:  https://openfoam.org
    \\  /    A nd           | Version:  dev
     \\/     M anipulation  |
\*---------------------------------------------------------------------------*/
FoamFile
{
    version     2.0;
    format      ascii;
    class       volVectorField;
    location    "3.7";
    object      U;
}
// * * * * * * * * * * * * * * * * * * * * * * * * * * * * * * * * * * * * * //

dimensions      [0 1 -1 0 0 0 0];

internalField   nonuniform List<vector> 
2790
(
(9.94399 0 0.0205233)
(9.87572 0 0.0295878)
(9.77521 0 0.0359897)
(9.64943 0 0.0425563)
(9.50409 0 0.0493855)
(9.34007 0 0.0564283)
(9.15654 0 0.0638157)
(8.95263 0 0.0717113)
(8.72747 0 0.0802547)
(8.48009 0 0.0895728)
(8.20928 0 0.0997925)
(7.91366 0 0.111044)
(7.59171 0 0.123459)
(7.24181 0 0.137163)
(6.86237 0 0.152271)
(6.45184 0 0.168869)
(6.00894 0 0.186996)
(5.53275 0 0.206618)
(5.02304 0 0.22759)
(4.48053 0 0.249611)
(3.90725 0 0.272177)
(3.30693 0 0.294527)
(2.68539 0 0.315622)
(2.05073 0 0.334292)
(1.4119 0 0.35061)
(0.798131 0 0.372887)
(0.110849 0 0.325113)
(-0.469552 0 -0.114833)
(-0.453761 0 -0.297169)
(-0.23116 0 -0.423862)
(9.9985 0 0.0407033)
(9.98145 0 0.0623832)
(9.93574 0 0.0791406)
(9.86416 0 0.0966252)
(9.77097 0 0.115124)
(9.65715 0 0.134488)
(9.52206 0 0.154974)
(9.36485 0 0.176942)
(9.18472 0 0.200706)
(8.98068 0 0.226547)
(8.75154 0 0.254741)
(8.4959 0 0.285556)
(8.21223 0 0.319245)
(7.89886 0 0.356018)
(7.55408 0 0.396014)
(7.17625 0 0.439257)
(6.76385 0 0.485587)
(6.31574 0 0.534582)
(5.83134 0 0.585457)
(5.31098 0 0.636951)
(4.75626 0 0.687202)
(4.17053 0 0.733647)
(3.55942 0 0.772957)
(2.93168 0 0.801101)
(2.30007 0 0.813762)
(1.69306 0 0.807271)
(1.10726 0 0.747287)
(0.658963 0 0.547973)
(0.186558 0 0.224678)
(-0.00819926 0 -0.453702)
(9.99559 0 0.0432074)
(9.97556 0 0.0752724)
(9.9318 0 0.103347)
(9.86489 0 0.132372)
(9.77778 0 0.16306)
(9.67155 0 0.195398)
(9.54588 0 0.229741)
(9.40014 0 0.2666)
(9.23366 0 0.306467)
(9.04564 0 0.349802)
(8.8351 0 0.397065)
(8.60083 0 0.448714)
(8.34147 0 0.505182)
(8.05553 0 0.566852)
(7.74142 0 0.633998)
(7.39749 0 0.706716)
(7.02217 0 0.784821)
(6.61403 0 0.867708)
(6.17202 0 0.954179)
(5.69573 0 1.04224)
(5.18574 0 1.12887)
(4.64407 0 1.20978)
(4.07492 0 1.27916)
(3.4855 0 1.32934)
(2.88697 0 1.35011)
(2.29958 0 1.32646)
(1.73194 0 1.22083)
(1.21633 0 0.97307)
(0.701199 0 0.570221)
(0.358074 0 -0.156456)
(9.99403 0 0.0494998)
(9.97181 0 0.0932073)
(9.92788 0 0.133573)
(9.86224 0 0.17421)
(9.77693 0 0.216434)
(9.67298 0 0.260661)
(9.55031 0 0.307428)
(9.40849 0 0.357412)
(9.24702 0 0.411286)
(9.06534 0 0.469698)
(8.86269 0 0.533292)
(8.63821 0 0.602711)
(8.39087 0 0.678577)
(8.11955 0 0.761456)
(7.82303 0 0.851799)
(7.50005 0 0.949851)
(7.1493 0 1.05552)
(6.76951 0 1.16821)
(6.35957 0 1.28658)
(5.91869 0 1.40824)
(5.44663 0 1.52945)
(4.94411 0 1.64467)
(4.41329 0 1.74614)
(3.85839 0 1.82323)
(3.28594 0 1.86139)
(2.70652 0 1.84037)
(2.12575 0 1.72607)
(1.55434 0 1.47795)
(0.957999 0 1.0838)
(0.509443 0 0.502433)
(9.99331 0 0.0572144)
(9.96994 0 0.11096)
(9.92593 0 0.162106)
(9.86145 0 0.213349)
(9.77798 0 0.266358)
(9.67635 0 0.321914)
(9.55654 0 0.3807)
(9.41821 0 0.443485)
(9.26097 0 0.51105)
(9.08433 0 0.584161)
(8.88771 0 0.663575)
(8.67039 0 0.750047)
(8.4316 0 0.844314)
(8.17048 0 0.947059)
(7.88611 0 1.05885)
(7.57752 0 1.18004)
(7.24371 0 1.31065)
(6.88367 0 1.45014)
(6.49636 0 1.59718)
(6.08082 0 1.74929)
(5.63626 0 1.90238)
(5.16223 0 2.05029)
(4.6589 0 2.18416)
(4.12734 0 2.29175)
(3.56953 0 2.35659)
(2.98901 0 2.35737)
(2.38694 0 2.26504)
(1.76647 0 2.04776)
(1.09004 0 1.69154)
(0.536675 0 1.15429)
(9.99302 0 0.0655397)
(9.96923 0 0.128703)
(9.92556 0 0.190116)
(9.86253 0 0.251845)
(9.78128 0 0.31558)
(9.68244 0 0.382319)
(9.566 0 0.452873)
(9.43171 0 0.528097)
(9.2792 0 0.608873)
(9.10806 0 0.696074)
(8.91777 0 0.790564)
(8.70774 0 0.893204)
(8.47729 0 1.00483)
(8.22569 0 1.12623)
(7.95217 0 1.25805)
(7.65592 0 1.40077)
(7.33607 0 1.5545)
(6.9917 0 1.71881)
(6.62176 0 1.8925)
(6.22509 0 2.07317)
(5.80038 0 2.2568)
(5.34616 0 2.43717)
(4.86083 0 2.60518)
(4.34283 0 2.74822)
(3.79053 0 2.84958)
(3.20271 0 2.88826)
(2.57669 0 2.83833)
(1.91356 0 2.67175)
(1.17281 0 2.37417)
(0.549995 0 1.89458)
(9.99297 0 0.0740761)
(9.96926 0 0.146316)
(9.92637 0 0.217486)
(9.86508 0 0.289295)
(9.78642 0 0.363357)
(9.69084 0 0.440828)
(9.57834 0 0.522659)
(9.44871 0 0.609807)
(9.30164 0 0.703248)
(9.13677 0 0.803953)
(8.95364 0 0.912883)
(8.7517 0 1.03099)
(8.53034 0 1.15919)
(8.28889 0 1.29836)
(8.02661 0 1.44926)
(7.74272 0 1.61243)
(7.43634 0 1.78813)
(7.10646 0 1.9761)
(6.75187 0 2.17534)
(6.37109 0 2.38375)
(5.96221 0 2.59768)
(5.52276 0 2.81133)
(5.04966 0 3.01612)
(4.53915 0 3.19996)
(3.98681 0 3.34671)
(3.38806 0 3.43604)
(2.73739 0 3.44343)
(2.03635 0 3.34166)
(1.24182 0 3.11378)
(0.563547 0 2.69337)
(9.99306 0 0.0825896)
(9.96981 0 0.163609)
(9.92807 0 0.244053)
(9.86884 0 0.325483)
(9.79312 0 0.409449)
(9.70125 0 0.497208)
(9.59322 0 0.589838)
(9.46887 0 0.688392)
(9.32795 0 0.793931)
(9.17013 0 0.907516)
(8.99502 0 1.0302)
(8.8021 0 1.16301)
(8.59081 0 1.30697)
(8.36051 0 1.46305)
(8.11046 0 1.6321)
(7.83983 0 1.81481)
(7.54764 0 2.0116)
(7.23272 0 2.22244)
(6.89357 0 2.44666)
(6.52825 0 2.68261)
(6.1342 0 2.92728)
(5.70798 0 3.17571)
(5.24512 0 3.42032)
(4.73995 0 3.65018)
(4.18566 0 3.85026)
(3.57493 0 4.00097)
(2.89968 0 4.07804)
(2.16224 0 4.05257)
(1.31621 0 3.90194)
(0.58326 0 3.54043)
(9.99326 0 0.0909302)
(9.97072 0 0.180412)
(9.93046 0 0.269672)
(9.87362 0 0.360246)
(9.80117 0 0.45365)
(9.71343 0 0.551212)
(9.61037 0 0.654111)
(9.49187 0 0.763492)
(9.35775 0 0.880496)
(9.20772 0 1.00627)
(9.04144 0 1.14194)
(8.85847 0 1.28864)
(8.65827 0 1.44748)
(8.44021 0 1.61954)
(8.20358 0 1.80581)
(7.94747 0 2.00714)
(7.67081 0 2.22417)
(7.37221 0 2.45719)
(7.04986 0 2.70596)
(6.70136 0 2.96947)
(6.32346 0 3.24557)
(5.91179 0 3.53045)
(5.46053 0 3.818)
(4.9622 0 4.09896)
(4.40762 0 4.35988)
(3.78661 0 4.58218)
(3.08777 0 4.74123)
(2.31288 0 4.80469)
(1.41076 0 4.74138)
(0.614361 0 4.44227)
(9.99352 0 0.0989944)
(9.9719 0 0.196583)
(9.9334 0 0.2942)
(9.87924 0 0.393422)
(9.81039 0 0.49576)
(9.72716 0 0.602591)
(9.62952 0 0.715183)
(9.5174 0 0.834758)
(9.39067 0 0.962536)
(9.24911 0 1.09973)
(9.09244 0 1.24757)
(8.92026 0 1.40726)
(8.73212 0 1.58003)
(8.52741 0 1.76705)
(8.30543 0 1.96949)
(8.06526 0 2.18841)
(7.80574 0 2.4247)
(7.52533 0 2.67907)
(7.22197 0 2.95181)
(6.89285 0 3.24271)
(6.53414 0 3.55068)
(6.14062 0 3.87339)
(5.70523 0 4.20662)
(5.21869 0 4.54333)
(4.66923 0 4.87243)
(4.04312 0 5.17704)
(3.32394 0 5.43247)
(2.50999 0 5.60223)
(1.54202 0 5.64386)
(0.664128 0 5.41847)
(9.99384 0 0.106707)
(9.9733 0 0.212005)
(9.93679 0 0.317508)
(9.88557 0 0.424862)
(9.82063 0 0.535594)
(9.74224 0 0.651125)
(9.65043 0 0.772789)
(9.54516 0 0.901882)
(9.42636 0 1.03969)
(9.29388 0 1.1875)
(9.1475 0 1.34661)
(8.98692 0 1.51832)
(8.81173 0 1.70395)
(8.62141 0 1.90482)
(8.4153 0 2.12224)
(8.19252 0 2.35751)
(7.95189 0 2.61187)
(7.69181 0 2.88643)
(7.41009 0 3.18216)
(7.10371 0 3.49973)
(6.76845 0 3.83933)
(6.39848 0 4.20041)
(5.98575 0 4.58106)
(5.51932 0 4.97724)
(4.98466 0 5.38129)
(4.36358 0 5.77961)
(3.63222 0 6.14931)
(2.78042 0 6.45098)
(1.73367 0 6.62897)
(0.744937 0 6.50366)
(9.9942 0 0.114009)
(9.97487 0 0.22658)
(9.94055 0 0.33948)
(9.89251 0 0.454431)
(9.83172 0 0.57299)
(9.7585 0 0.696615)
(9.67287 0 0.826696)
(9.57486 0 0.964592)
(9.46446 0 1.11164)
(9.3416 0 1.2692)
(9.20613 0 1.43863)
(9.05784 0 1.6213)
(8.89641 0 1.81864)
(8.72144 0 2.0321)
(8.53235 0 2.26316)
(8.32835 0 2.51335)
(8.10834 0 2.78424)
(7.87082 0 3.07744)
(7.61364 0 3.39458)
(7.33379 0 3.73733)
(7.02701 0 4.10728)
(6.68728 0 4.50585)
(6.30607 0 4.93395)
(5.87133 0 5.39131)
(5.36609 0 5.87528)
(4.76727 0 6.37826)
(4.04113 0 6.88338)
(3.16187 0 7.35386)
(2.02507 0 7.72379)
(0.880898 0 7.75787)
(9.99459 0 0.120857)
(9.97657 0 0.240231)
(9.94461 0 0.360016)
(9.89995 0 0.482009)
(9.84355 0 0.607804)
(9.77574 0 0.73889)
(9.6966 0 0.876702)
(9.60621 0 1.02265)
(9.50461 0 1.17811)
(9.39182 0 1.3445)
(9.26778 0 1.52323)
(9.13238 0 1.71575)
(8.98544 0 1.92356)
(8.82665 0 2.14823)
(8.65559 0 2.3914)
(8.47164 0 2.65483)
(8.2739 0 2.94041)
(8.06107 0 3.2502)
(7.83127 0 3.58652)
(7.58182 0 3.95199)
(7.30885 0 4.34963)
(7.00676 0 4.78294)
(6.66739 0 5.25588)
(6.27872 0 5.77275)
(5.8228 0 6.33754)
(5.27292 0 6.95236)
(4.58506 0 7.61375)
(3.71054 0 8.3013)
(2.48869 0 8.95897)
(1.12476 0 9.29436)
(9.99501 0 0.127215)
(9.97837 0 0.252892)
(9.9489 0 0.37903)
(9.90779 0 0.507497)
(9.85597 0 0.639919)
(9.7938 0 0.777811)
(9.7214 0 0.922645)
(9.63891 0 1.07586)
(9.54644 0 1.23889)
(9.44409 0 1.41316)
(9.33191 0 1.60014)
(9.2099 0 1.80133)
(9.07801 0 2.01829)
(8.93609 0 2.25269)
(8.78393 0 2.50631)
(8.62111 0 2.78108)
(8.44704 0 3.07916)
(8.26077 0 3.40304)
(8.06093 0 3.75559)
(7.84545 0 4.14029)
(7.61134 0 4.56144)
(7.35416 0 5.02445)
(7.06728 0 5.53625)
(6.74064 0 6.10587)
(6.35827 0 6.745)
(5.89457 0 7.46876)
(5.30146 0 8.29633)
(4.50971 0 9.24831)
(3.2697 0 10.3428)
(1.60558 0 11.361)
(9.99544 0 0.133055)
(9.98026 0 0.264512)
(9.95339 0 0.396453)
(9.91595 0 0.530801)
(9.86887 0 0.669212)
(9.81251 0 0.813224)
(9.74705 0 0.964332)
(9.67268 0 1.124)
(9.5896 0 1.29368)
(9.49798 0 1.47483)
(9.39797 0 1.66894)
(9.28972 0 1.87754)
(9.17331 0 2.10225)
(9.0488 0 2.34478)
(8.91617 0 2.60701)
(8.77531 0 2.89101)
(8.62599 0 3.19914)
(8.46776 0 3.53415)
(8.29989 0 3.89935)
(8.12125 0 4.29883)
(7.93013 0 4.73782)
(7.72398 0 5.22315)
(7.49898 0 5.76406)
(7.24924 0 6.37337)
(6.96527 0 7.06954)
(6.63158 0 7.88041)
(6.21539 0 8.85147)
(5.66727 0 10.0658)
(4.69202 0 11.7319)
(2.68885 0 14.5958)
(0.135641 0 -0.139277)
(0.313327 0 -0.124781)
(0.497074 0 -0.0997824)
(0.654486 0 -0.077362)
(0.781134 0 -0.0594594)
(0.882484 0 -0.0455646)
(0.964802 0 -0.0349273)
(1.03291 0 -0.0269107)
(1.09038 0 -0.0209606)
(1.13994 0 -0.0165844)
(1.1837 0 -0.0133503)
(1.22314 0 -0.0108807)
(1.25913 0 -0.00885116)
(1.29198 0 -0.00700891)
(1.3216 0 -0.00520493)
(1.34768 0 -0.0034025)
(1.36995 0 -0.00161254)
(1.38818 0 0.000241708)
(1.40192 0 0.00240486)
(1.41003 0 0.00508249)
(1.41124 0 0.00792716)
(1.40506 0 0.0101172)
(1.39288 0 0.0109988)
(1.37852 0 0.0103293)
(1.36574 0 0.00856323)
(1.35626 0 0.00631871)
(1.35022 0 0.00382489)
(1.34815 0 0.00101864)
(1.35152 0 -0.0015073)
(1.3633 0 -0.00353341)
(0.109661 0 -0.310518)
(0.280135 0 -0.28942)
(0.447791 0 -0.238215)
(0.593894 0 -0.190635)
(0.715254 0 -0.152386)
(0.816575 0 -0.122651)
(0.902876 0 -0.0998784)
(0.977938 0 -0.082708)
(1.04454 0 -0.0699442)
(1.10482 0 -0.0605268)
(1.16043 0 -0.0535266)
(1.21256 0 -0.0481251)
(1.26199 0 -0.0436081)
(1.30904 0 -0.0394091)
(1.35374 0 -0.0351922)
(1.39587 0 -0.0308993)
(1.43529 0 -0.0266345)
(1.47208 0 -0.0223583)
(1.50646 0 -0.0176304)
(1.53824 0 -0.0119062)
(1.56614 0 -0.00543229)
(1.58845 0 0.00030914)
(1.60534 0 0.00377795)
(1.61936 0 0.00458538)
(1.63371 0 0.00381161)
(1.64985 0 0.00257403)
(1.66763 0 0.00106863)
(1.68619 0 -0.00113629)
(1.70415 0 -0.0038286)
(1.7249 0 -0.00575618)
(0.0826982 0 -0.482431)
(0.225159 0 -0.452214)
(0.354269 0 -0.375357)
(0.466748 0 -0.303997)
(0.559701 0 -0.246714)
(0.637669 0 -0.202021)
(0.704366 0 -0.167581)
(0.762503 0 -0.141355)
(0.814118 0 -0.121588)
(0.860802 0 -0.106762)
(0.903802 0 -0.0955568)
(0.944053 0 -0.0867995)
(0.982179 0 -0.079447)
(1.01848 0 -0.0726423)
(1.05293 0 -0.0658534)
(1.08526 0 -0.0590008)
(1.11518 0 -0.0523611)
(1.14275 0 -0.0461003)
(1.16856 0 -0.0396186)
(1.19326 0 -0.0315165)
(1.21653 0 -0.0210776)
(1.23653 0 -0.0109456)
(1.25136 0 -0.00579406)
(1.26232 0 -0.00630466)
(1.27245 0 -0.00981777)
(1.28292 0 -0.0137913)
(1.29319 0 -0.0171794)
(1.30205 0 -0.0196304)
(1.30868 0 -0.0214432)
(1.31433 0 -0.0206737)
(0.0576473 0 -0.611257)
(0.164342 0 -0.566214)
(0.246602 0 -0.46665)
(0.319353 0 -0.377333)
(0.376981 0 -0.306667)
(0.424883 0 -0.251714)
(0.465133 0 -0.209399)
(0.499328 0 -0.177107)
(0.52876 0 -0.152672)
(0.554461 0 -0.134272)
(0.577257 0 -0.120333)
(0.597807 0 -0.10945)
(0.616641 0 -0.100353)
(0.634126 0 -0.0919487)
(0.650367 0 -0.0834962)
(0.6651 0 -0.0748168)
(0.677556 0 -0.0663283)
(0.687245 0 -0.058623)
(0.69465 0 -0.0516804)
(0.701952 0 -0.0445477)
(0.711032 0 -0.0356923)
(0.7193 0 -0.0244188)
(0.713446 0 -0.0135547)
(0.690519 0 -0.00732087)
(0.66439 0 -0.00589394)
(0.639487 0 -0.00502492)
(0.617036 0 -0.0042398)
(0.596108 0 -0.0048988)
(0.578525 0 -0.006602)
(0.564608 0 -0.00910615)
(0.0321699 0 -0.699588)
(0.0964689 0 -0.634704)
(0.125902 0 -0.515808)
(0.155763 0 -0.414691)
(0.173183 0 -0.335658)
(0.186047 0 -0.274289)
(0.194267 0 -0.227002)
(0.198675 0 -0.190812)
(0.199987 0 -0.163315)
(0.198793 0 -0.142532)
(0.195545 0 -0.126788)
(0.190669 0 -0.11459)
(0.18469 0 -0.104551)
(0.178147 0 -0.0954013)
(0.171463 0 -0.0861531)
(0.164671 0 -0.0763376)
(0.156344 0 -0.066166)
(0.145423 0 -0.0561877)
(0.128678 0 -0.0462593)
(0.10802 0 -0.0348523)
(0.0820763 0 -0.0196821)
(0.0570747 0 -0.0016675)
(0.0373914 0 0.0126814)
(0.0243677 0 0.017053)
(0.0105303 0 0.0136476)
(-0.00271038 0 0.00757607)
(-0.00773238 0 0.00215564)
(-0.0106272 0 -0.00302837)
(-0.0131475 0 -0.00852832)
(-0.019236 0 -0.017638)
(0.00499016 0 -0.740596)
(0.0211441 0 -0.652074)
(-0.00477025 0 -0.517209)
(-0.0207419 0 -0.409618)
(-0.0467725 0 -0.326051)
(-0.0730011 0 -0.26175)
(-0.101189 0 -0.212527)
(-0.130494 0 -0.175133)
(-0.160432 0 -0.146881)
(-0.190608 0 -0.125593)
(-0.220749 0 -0.109506)
(-0.250561 0 -0.097106)
(-0.279658 0 -0.0870189)
(-0.307598 0 -0.0780217)
(-0.333944 0 -0.0691637)
(-0.358315 0 -0.0599027)
(-0.38048 0 -0.0501633)
(-0.400449 0 -0.040218)
(-0.41844 0 -0.0303265)
(-0.434099 0 -0.0203234)
(-0.446539 0 -0.0100853)
(-0.455506 0 -0.000269634)
(-0.458812 0 0.00813369)
(-0.46319 0 0.0126633)
(-0.468973 0 0.0121976)
(-0.47628 0 0.00792213)
(-0.482853 0 0.00369773)
(-0.487699 0 0.000264517)
(-0.495364 0 -0.00456705)
(-0.502556 0 -0.0109135)
(-0.0264931 0 -0.726817)
(-0.0634169 0 -0.611359)
(-0.141997 0 -0.471656)
(-0.207375 0 -0.36431)
(-0.276089 0 -0.281399)
(-0.341883 0 -0.218866)
(-0.404419 0 -0.171963)
(-0.46286 0 -0.137215)
(-0.516681 0 -0.111827)
(-0.565645 0 -0.0935128)
(-0.609847 0 -0.0804012)
(-0.649599 0 -0.0709289)
(-0.685279 0 -0.0637096)
(-0.717226 0 -0.0575267)
(-0.745692 0 -0.0514555)
(-0.770804 0 -0.0449544)
(-0.792629 0 -0.037845)
(-0.811283 0 -0.0301723)
(-0.826945 0 -0.0219638)
(-0.839741 0 -0.0130618)
(-0.849483 0 -0.00344217)
(-0.856081 0 0.00584648)
(-0.8593 0 0.0127225)
(-0.862261 0 0.0159759)
(-0.866292 0 0.0151372)
(-0.87209 0 0.0114839)
(-0.878937 0 0.00717835)
(-0.8861 0 0.00260326)
(-0.893109 0 -0.003541)
(-0.898813 0 -0.010504)
(-0.0640773 0 -0.655177)
(-0.153359 0 -0.520854)
(-0.282714 0 -0.382262)
(-0.394911 0 -0.27898)
(-0.502057 0 -0.203087)
(-0.598838 0 -0.148729)
(-0.684626 0 -0.11031)
(-0.759597 0 -0.0836231)
(-0.824654 0 -0.0655881)
(-0.880995 0 -0.0538371)
(-0.929869 0 -0.0464133)
(-0.972442 0 -0.0417688)
(-1.00969 0 -0.0386198)
(-1.04238 0 -0.0358992)
(-1.07112 0 -0.0328736)
(-1.09632 0 -0.029186)
(-1.11821 0 -0.0247607)
(-1.13691 0 -0.019634)
(-1.15254 0 -0.0137611)
(-1.16528 0 -0.00701801)
(-1.17536 0 0.000529769)
(-1.18157 0 0.00816715)
(-1.18623 0 0.0144696)
(-1.19028 0 0.0179649)
(-1.19492 0 0.0179529)
(-1.20085 0 0.0152599)
(-1.20792 0 0.0113532)
(-1.21576 0 0.00655716)
(-1.2233 0 0.00021766)
(-1.22819 0 -0.00612689)
(-0.108013 0 -0.524203)
(-0.251376 0 -0.37964)
(-0.431371 0 -0.252162)
(-0.583769 0 -0.164033)
(-0.720726 0 -0.102984)
(-0.838985 0 -0.0626282)
(-0.939271 0 -0.0374306)
(-1.0228 0 -0.0229541)
(-1.09122 0 -0.0156175)
(-1.14809 0 -0.0124398)
(-1.19619 0 -0.0116734)
(-1.23769 0 -0.0122135)
(-1.27413 0 -0.0132375)
(-1.30644 0 -0.0140368)
(-1.33492 0 -0.0140545)
(-1.3601 0 -0.013007)
(-1.38228 0 -0.0109635)
(-1.40154 0 -0.00807336)
(-1.41787 0 -0.0043259)
(-1.43116 0 0.000393386)
(-1.441 0 0.00599009)
(-1.44858 0 0.0119525)
(-1.45486 0 0.0172806)
(-1.46062 0 0.0205006)
(-1.4667 0 0.0208245)
(-1.47362 0 0.0186777)
(-1.48158 0 0.0150557)
(-1.4906 0 0.0102925)
(-1.49931 0 0.00423996)
(-1.5035 0 -0.00120042)
(-0.163663 0 -0.335812)
(-0.373748 0 -0.194732)
(-0.617507 0 -0.0769659)
(-0.808273 0 -0.00856145)
(-0.961284 0 0.0247361)
(-1.0832 0 0.0388691)
(-1.18036 0 0.0421542)
(-1.25887 0 0.0396088)
(-1.32396 0 0.0344544)
(-1.37835 0 0.0283611)
(-1.42441 0 0.0222102)
(-1.46386 0 0.0163706)
(-1.49788 0 0.0111055)
(-1.52752 0 0.00683573)
(-1.55401 0 0.00401033)
(-1.57793 0 0.00268903)
(-1.59944 0 0.00254876)
(-1.61834 0 0.00325727)
(-1.63428 0 0.00482394)
(-1.64726 0 0.00756172)
(-1.65793 0 0.0116579)
(-1.66695 0 0.01665)
(-1.67506 0 0.0213802)
(-1.68292 0 0.0244171)
(-1.69101 0 0.0249137)
(-1.69959 0 0.0230492)
(-1.70897 0 0.0195676)
(-1.71933 0 0.0148563)
(-1.72915 0 0.00911266)
(-1.73421 0 0.00430803)
(-0.238709 0 -0.050926)
(-0.498523 0 0.0991046)
(-0.756628 0 0.143216)
(-0.952356 0 0.152177)
(-1.1104 0 0.146242)
(-1.2371 0 0.132636)
(-1.33897 0 0.116037)
(-1.42134 0 0.0988534)
(-1.48849 0 0.0823729)
(-1.54401 0 0.0675376)
(-1.59091 0 0.0547533)
(-1.63129 0 0.0437928)
(-1.66635 0 0.0344382)
(-1.69695 0 0.0269188)
(-1.72403 0 0.0215538)
(-1.74848 0 0.0181905)
(-1.77075 0 0.0161688)
(-1.7906 0 0.0148839)
(-1.80757 0 0.0143688)
(-1.82159 0 0.0152366)
(-1.83325 0 0.017959)
(-1.84358 0 0.022158)
(-1.85353 0 0.0265502)
(-1.86367 0 0.0295493)
(-1.87408 0 0.0301346)
(-1.88472 0 0.0283195)
(-1.89582 0 0.024803)
(-1.90764 0 0.020149)
(-1.91846 0 0.0147797)
(-1.92381 0 0.0104593)
(-0.282608 0 0.328718)
(-0.571553 0 0.381335)
(-0.863238 0 0.362091)
(-1.08056 0 0.322711)
(-1.24897 0 0.278068)
(-1.37909 0 0.234432)
(-1.48092 0 0.195172)
(-1.56191 0 0.161061)
(-1.62718 0 0.131824)
(-1.68078 0 0.107612)
(-1.72627 0 0.0881942)
(-1.76595 0 0.072292)
(-1.80073 0 0.0587586)
(-1.83109 0 0.0476548)
(-1.85805 0 0.0395721)
(-1.8829 0 0.0343075)
(-1.90622 0 0.0306546)
(-1.92746 0 0.0274606)
(-1.94563 0 0.0247159)
(-1.96043 0 0.0235153)
(-1.97274 0 0.0248665)
(-1.98409 0 0.02852)
(-1.99576 0 0.0329124)
(-2.00819 0 0.0360699)
(-2.021 0 0.0366721)
(-2.03365 0 0.0346201)
(-2.0462 0 0.0307559)
(-2.05898 0 0.025974)
(-2.07032 0 0.0209091)
(-2.07574 0 0.0170468)
(-0.334909 0 0.735096)
(-0.680187 0 0.722792)
(-1.0088 0 0.612036)
(-1.23301 0 0.502643)
(-1.39717 0 0.410485)
(-1.5194 0 0.332821)
(-1.61276 0 0.269806)
(-1.68645 0 0.219345)
(-1.74562 0 0.177998)
(-1.79397 0 0.144956)
(-1.8356 0 0.119869)
(-1.87323 0 0.100048)
(-1.90697 0 0.0827615)
(-1.93633 0 0.0680361)
(-1.96233 0 0.0573359)
(-1.98698 0 0.0506461)
(-2.01124 0 0.0458933)
(-2.034 0 0.0409527)
(-2.05332 0 0.0357063)
(-2.06846 0 0.0320838)
(-2.08074 0 0.0320389)
(-2.09254 0 0.0355029)
(-2.10563 0 0.04036)
(-2.1203 0 0.0439424)
(-2.13557 0 0.0444883)
(-2.15024 0 0.0418514)
(-2.16408 0 0.0372458)
(-2.17755 0 0.0321243)
(-2.18921 0 0.0273449)
(-2.19465 0 0.0239654)
(-0.437481 0 1.23509)
(-0.866871 0 1.12229)
(-1.22254 0 0.874962)
(-1.42452 0 0.671056)
(-1.56201 0 0.529614)
(-1.66237 0 0.417633)
(-1.73704 0 0.333144)
(-1.79694 0 0.270695)
(-1.84616 0 0.219572)
(-1.88606 0 0.177928)
(-1.92136 0 0.148132)
(-1.95596 0 0.125993)
(-1.98852 0 0.105597)
(-2.01627 0 0.0870797)
(-2.04012 0 0.0739466)
(-2.06367 0 0.0668459)
(-2.08873 0 0.0621057)
(-2.11334 0 0.0557581)
(-2.13384 0 0.0474696)
(-2.14864 0 0.0406696)
(-2.1598 0 0.0390527)
(-2.17117 0 0.0428183)
(-2.18533 0 0.0488095)
(-2.20232 0 0.0532162)
(-2.22029 0 0.0536647)
(-2.23712 0 0.0500318)
(-2.25209 0 0.0441695)
(-2.2659 0 0.0384096)
(-2.27757 0 0.0338903)
(-2.28295 0 0.0310095)
(-0.645703 0 2.16214)
(-1.17293 0 1.75413)
(-1.54524 0 1.16505)
(-1.67068 0 0.770705)
(-1.74371 0 0.610397)
(-1.80707 0 0.483311)
(-1.85079 0 0.384991)
(-1.89107 0 0.315442)
(-1.92967 0 0.253651)
(-1.95903 0 0.200169)
(-1.98459 0 0.168537)
(-2.01513 0 0.15015)
(-2.04708 0 0.129501)
(-2.07274 0 0.106752)
(-2.09264 0 0.0902423)
(-2.11371 0 0.0833987)
(-2.13978 0 0.0796904)
(-2.16729 0 0.0718568)
(-2.18944 0 0.0592563)
(-2.20306 0 0.047903)
(-2.21155 0 0.0444961)
(-2.22133 0 0.0495505)
(-2.23629 0 0.0578926)
(-2.25596 0 0.0638523)
(-2.27717 0 0.0642726)
(-2.29645 0 0.0591694)
(-2.31235 0 0.0513689)
(-2.32593 0 0.0445765)
(-2.33718 0 0.0403735)
(-2.34239 0 0.0380745)
(9.9959 0 0.138451)
(9.98225 0 0.275248)
(9.9581 0 0.412537)
(9.92452 0 0.552288)
(9.88241 0 0.696176)
(9.83214 0 0.845754)
(9.77396 0 1.00253)
(9.70811 0 1.16798)
(9.63488 0 1.34356)
(9.55453 0 1.53074)
(9.46734 0 1.73101)
(9.37356 0 1.94593)
(9.27348 0 2.1771)
(9.16734 0 2.42629)
(9.05539 0 2.6954)
(8.93786 0 2.98657)
(8.81494 0 3.30225)
(8.68676 0 3.64532)
(8.5534 0 4.01931)
(8.41487 0 4.42858)
(8.27108 0 4.87879)
(8.12195 0 5.37738)
(7.96741 0 5.93454)
(7.80776 0 6.56462)
(7.64422 0 7.28869)
(7.48181 0 8.13936)
(7.33388 0 9.17062)
(7.29072 0 10.4761)
(7.75127 0 12.2007)
(7.93781 0 14.9205)
(9.99638 0 0.143411)
(9.98433 0 0.285104)
(9.96305 0 0.427267)
(9.9335 0 0.5719)
(9.89655 0 0.720694)
(9.8526 0 0.875206)
(9.80194 0 1.03695)
(9.74488 0 1.20739)
(9.68179 0 1.38799)
(9.61303 0 1.5802)
(9.539 0 1.78551)
(9.4601 0 2.00544)
(9.37678 0 2.2416)
(9.28952 0 2.49572)
(9.19884 0 2.76969)
(9.10532 0 3.06561)
(9.00961 0 3.38592)
(8.91246 0 3.73346)
(8.81479 0 4.11168)
(8.71778 0 4.52485)
(8.62304 0 4.97837)
(8.53295 0 5.47927)
(8.45122 0 6.03687)
(8.38413 0 6.66376)
(8.34289 0 7.37714)
(8.3496 0 8.2004)
(8.4432 0 9.16366)
(8.67968 0 10.3001)
(9.32804 0 11.5541)
(9.82032 0 12.6398)
(9.99688 0 0.147849)
(9.9865 0 0.293917)
(9.96818 0 0.44042)
(9.94281 0 0.589373)
(9.91119 0 0.742471)
(9.87375 0 0.901265)
(9.83082 0 1.06725)
(9.78278 0 1.24189)
(9.73007 0 1.42661)
(9.67316 0 1.62284)
(9.61254 0 1.83203)
(9.54878 0 2.05565)
(9.4825 0 2.29527)
(9.41439 0 2.55253)
(9.34525 0 2.82924)
(9.276 0 3.1274)
(9.20775 0 3.44928)
(9.14183 0 3.79751)
(9.07993 0 4.17521)
(9.02426 0 4.58614)
(8.97785 0 5.03489)
(8.94498 0 5.52714)
(8.93195 0 6.06985)
(8.94829 0 6.67142)
(9.00849 0 7.34125)
(9.13471 0 8.08795)
(9.35798 0 8.91332)
(9.68773 0 9.80611)
(10.2536 0 10.7147)
(10.9412 0 11.4285)
(9.9974 0 0.151711)
(9.98873 0 0.30158)
(9.97346 0 0.451829)
(9.95237 0 0.604476)
(9.92621 0 0.761206)
(9.89541 0 0.923555)
(9.86037 0 1.09299)
(9.82152 0 1.27095)
(9.77935 0 1.45882)
(9.73443 0 1.65798)
(9.68737 0 1.86981)
(9.63886 0 2.09571)
(9.58969 0 2.33716)
(9.54075 0 2.59568)
(9.4931 0 2.87293)
(9.44796 0 3.17072)
(9.40683 0 3.49104)
(9.37153 0 3.83615)
(9.34435 0 4.20864)
(9.32828 0 4.61147)
(9.32725 0 5.04804)
(9.34655 0 5.52219)
(9.39343 0 6.03802)
(9.4778 0 6.5995)
(9.61287 0 7.20938)
(9.81545 0 7.86727)
(10.1083 0 8.56604)
(10.5 0 9.29096)
(11.0573 0 10.0318)
(11.85 0 10.6755)
(9.99792 0 0.154952)
(9.991 0 0.308001)
(9.97883 0 0.461359)
(9.9621 0 0.61703)
(9.94148 0 0.77668)
(9.91742 0 0.941815)
(9.89035 0 1.11387)
(9.86075 0 1.29423)
(9.8292 0 1.48422)
(9.79631 0 1.68516)
(9.7628 0 1.89835)
(9.72949 0 2.12508)
(9.6973 0 2.3667)
(9.66729 0 2.62458)
(9.64073 0 2.90016)
(9.61909 0 3.19498)
(9.60417 0 3.5107)
(9.59813 0 3.84909)
(9.60366 0 4.21206)
(9.62417 0 4.60165)
(9.66395 0 5.01997)
(9.72855 0 5.46903)
(9.82503 0 5.95042)
(9.96234 0 6.46483)
(10.1515 0 7.01117)
(10.4057 0 7.58554)
(10.742 0 8.17979)
(11.1722 0 8.77922)
(11.7191 0 9.37226)
(12.4716 0 9.88404)
(9.99845 0 0.157527)
(9.9933 0 0.313094)
(9.98426 0 0.468884)
(9.97192 0 0.626872)
(9.95687 0 0.788691)
(9.93958 0 0.955807)
(9.92049 0 1.1296)
(9.90015 0 1.31141)
(9.87916 0 1.50248)
(9.85822 0 1.70404)
(9.83812 0 1.91729)
(9.81976 0 2.14339)
(9.80419 0 2.38353)
(9.7926 0 2.63889)
(9.78641 0 2.91067)
(9.78726 0 3.20009)
(9.79712 0 3.50839)
(9.81836 0 3.83682)
(9.85383 0 4.1866)
(9.90704 0 4.55885)
(9.98226 0 4.95446)
(10.0847 0 5.3739)
(10.2207 0 5.81691)
(10.3978 0 6.28201)
(10.6249 0 6.76595)
(10.9115 0 7.26294)
(11.2688 0 7.76375)
(11.7049 0 8.25283)
(12.2205 0 8.71348)
(12.8956 0 9.10422)
(9.99898 0 0.159397)
(9.9956 0 0.316782)
(9.9897 0 0.47429)
(9.98174 0 0.633852)
(9.97226 0 0.797057)
(9.96169 0 0.965318)
(9.95053 0 1.13996)
(9.93934 0 1.32223)
(9.92877 0 1.51331)
(9.91956 0 1.71433)
(9.91256 0 1.92633)
(9.90875 0 2.15037)
(9.90923 0 2.38744)
(9.91529 0 2.6385)
(9.92844 0 2.90448)
(9.95039 0 3.18627)
(9.98321 0 3.48468)
(10.0293 0 3.80045)
(10.0914 0 4.13412)
(10.173 0 4.48598)
(10.278 0 4.85595)
(10.4109 0 5.24331)
(10.5772 0 5.64648)
(10.7826 0 6.06265)
(11.0336 0 6.48734)
(11.3367 0 6.91384)
(11.6978 0 7.33281)
(12.1212 0 7.73083)
(12.6006 0 8.09335)
(13.2053 0 8.39989)
(9.99951 0 0.16053)
(9.99788 0 0.318999)
(9.99509 0 0.47748)
(9.99149 0 0.637845)
(9.9875 0 0.801628)
(9.98357 0 0.970179)
(9.98021 0 1.14475)
(9.97798 0 1.32651)
(9.97757 0 1.51653)
(9.97975 0 1.71583)
(9.98541 0 1.92534)
(9.99554 0 2.14593)
(10.0113 0 2.37841)
(10.034 0 2.62351)
(10.0652 0 2.8819)
(10.1066 0 3.15411)
(10.1602 0 3.44058)
(10.2284 0 3.74152)
(10.3137 0 4.05693)
(10.4192 0 4.38642)
(10.5483 0 4.72914)
(10.7049 0 5.08355)
(10.8931 0 5.44726)
(11.1171 0 5.81677)
(11.3814 0 6.18715)
(11.6895 0 6.55187)
(12.0445 0 6.90264)
(12.4477 0 7.22915)
(12.8915 0 7.52028)
(13.4339 0 7.76474)
(10 0 0.160896)
(10.0001 0 0.319689)
(10.0004 0 0.478373)
(10.0011 0 0.638751)
(10.0025 0 0.802286)
(10.005 0 0.970258)
(10.0092 0 1.14384)
(10.0157 0 1.3241)
(10.0251 0 1.51201)
(10.0382 0 1.70847)
(10.0559 0 1.91427)
(10.0793 0 2.1301)
(10.1094 0 2.3566)
(10.1476 0 2.59426)
(10.1953 0 2.84349)
(10.2543 0 3.10451)
(10.3264 0 3.37738)
(10.4137 0 3.66193)
(10.5186 0 3.95766)
(10.6436 0 4.26369)
(10.7917 0 4.57864)
(10.9658 0 4.90048)
(11.1689 0 5.22643)
(11.4039 0 5.55278)
(11.6734 0 5.87477)
(11.9793 0 6.18656)
(12.3224 0 6.48129)
(12.7025 0 6.75113)
(13.1118 0 6.98776)
(13.599 0 7.18433)
(10.0005 0 0.160474)
(10.0023 0 0.318811)
(10.0056 0 0.476912)
(10.0104 0 0.636495)
(10.017 0 0.798948)
(10.0259 0 0.965471)
(10.0374 0 1.13714)
(10.0522 0 1.31494)
(10.071 0 1.49973)
(10.0944 0 1.69227)
(10.1235 0 1.89321)
(10.1592 0 2.1031)
(10.2025 0 2.32236)
(10.2548 0 2.55129)
(10.3175 0 2.79004)
(10.392 0 3.03857)
(10.4801 0 3.29665)
(10.5837 0 3.56374)
(10.7047 0 3.83903)
(10.8453 0 4.12128)
(11.0076 0 4.40881)
(11.1939 0 4.69935)
(11.4062 0 4.99003)
(11.6463 0 5.27728)
(11.9154 0 5.5568)
(12.2143 0 5.82361)
(12.5424 0 6.0722)
(12.8984 0 6.29668)
(13.2753 0 6.49101)
(13.7148 0 6.65105)
(10.001 0 0.15925)
(10.0044 0 0.316335)
(10.0106 0 0.473054)
(10.0194 0 0.631031)
(10.031 0 0.791569)
(10.0459 0 0.955779)
(10.0644 0 1.12465)
(10.0871 0 1.29905)
(10.1147 0 1.47974)
(10.1479 0 1.66735)
(10.1875 0 1.86239)
(10.2345 0 2.06524)
(10.2899 0 2.27618)
(10.3549 0 2.49529)
(10.4307 0 2.72252)
(10.5188 0 2.95761)
(10.6205 0 3.20007)
(10.7375 0 3.44914)
(10.8714 0 3.70377)
(11.0237 0 3.96253)
(11.1962 0 4.22358)
(11.3903 0 4.48465)
(11.6073 0 4.74295)
(11.8481 0 4.99525)
(12.113 0 5.23782)
(12.4019 0 5.46657)
(12.7135 0 5.67718)
(13.0461 0 5.8653)
(13.3933 0 6.0267)
(13.7918 0 6.15887)
(10.0015 0 0.157215)
(10.0065 0 0.312248)
(10.0154 0 0.466783)
(10.028 0 0.622343)
(10.0444 0 0.780139)
(10.065 0 0.941191)
(10.09 0 1.10639)
(10.1202 0 1.27651)
(10.156 0 1.45218)
(10.1981 0 1.63392)
(10.2474 0 1.82211)
(10.3047 0 2.017)
(10.3709 0 2.21868)
(10.4471 0 2.4271)
(10.5344 0 2.64202)
(10.6339 0 2.86301)
(10.7469 0 3.08941)
(10.8747 0 3.3203)
(11.0184 0 3.55449)
(11.1793 0 3.79047)
(11.3585 0 4.02642)
(11.5569 0 4.26013)
(11.7751 0 4.48908)
(12.0134 0 4.71042)
(12.2715 0 4.92104)
(12.5487 0 5.11767)
(12.8435 0 5.29698)
(13.1539 0 5.45583)
(13.4745 0 5.5913)
(13.8377 0 5.70189)
(10.0019 0 0.154369)
(10.0084 0 0.306548)
(10.0199 0 0.458102)
(10.0361 0 0.610443)
(10.0571 0 0.764687)
(10.0829 0 0.921762)
(10.1141 0 1.08246)
(10.1512 0 1.24745)
(10.1945 0 1.41726)
(10.2449 0 1.59229)
(10.3029 0 1.7728)
(10.3694 0 1.95891)
(10.4451 0 2.15059)
(10.531 0 2.34765)
(10.628 0 2.54972)
(10.737 0 2.75623)
(10.8591 0 2.96642)
(10.9952 0 3.17929)
(11.1461 0 3.39359)
(11.3128 0 3.60784)
(11.4958 0 3.82027)
(11.6957 0 4.02888)
(11.9124 0 4.23144)
(12.146 0 4.42553)
(12.3957 0 4.6086)
(12.6605 0 4.7781)
(12.9388 0 4.93152)
(13.2286 0 5.06661)
(13.5254 0 5.18138)
(13.8582 0 5.27498)
(10.0024 0 0.150717)
(10.0102 0 0.299249)
(10.0241 0 0.447034)
(10.0438 0 0.595371)
(10.0689 0 0.745278)
(10.0997 0 0.897589)
(10.1366 0 1.053)
(10.1799 0 1.21208)
(10.2301 0 1.37525)
(10.2878 0 1.54282)
(10.3536 0 1.71494)
(10.4281 0 1.89161)
(10.5121 0 2.07271)
(10.6062 0 2.25793)
(10.7113 0 2.44681)
(10.828 0 2.63872)
(10.9571 0 2.83281)
(11.0994 0 3.02807)
(11.2553 0 3.22328)
(11.4254 0 3.417)
(11.6099 0 3.60763)
(11.809 0 3.79339)
(12.0224 0 3.97236)
(12.2497 0 4.14252)
(12.4901 0 4.30186)
(12.7423 0 4.44838)
(13.0048 0 4.58025)
(13.2757 0 4.69586)
(13.5513 0 4.79388)
(13.8578 0 4.87389)
(10.0027 0 0.146271)
(10.0119 0 0.290376)
(10.0281 0 0.433622)
(10.0508 0 0.577193)
(10.0798 0 0.722009)
(10.1152 0 0.86881)
(10.1572 0 1.0182)
(10.2062 0 1.17065)
(10.2626 0 1.3265)
(10.3268 0 1.48596)
(10.3994 0 1.64908)
(10.4809 0 1.81579)
(10.5718 0 1.98587)
(10.6728 0 2.15895)
(10.7843 0 2.33451)
(10.9071 0 2.51187)
(11.0414 0 2.69018)
(11.1879 0 2.86844)
(11.3469 0 3.04548)
(11.5184 0 3.22)
(11.7026 0 3.39056)
(11.8993 0 3.55562)
(12.108 0 3.71356)
(12.3282 0 3.86275)
(12.5588 0 4.00159)
(12.7987 0 4.12858)
(13.0463 0 4.24237)
(13.3 0 4.34184)
(13.5566 0 4.42613)
(13.8402 0 4.49507)
(10.0031 0 0.141051)
(10.0134 0 0.279968)
(10.0317 0 0.417928)
(10.0573 0 0.556)
(10.0898 0 0.695006)
(10.1293 0 0.835597)
(10.1759 0 0.978286)
(10.23 0 1.12346)
(10.2918 0 1.27138)
(10.3618 0 1.42216)
(10.4402 0 1.5758)
(10.5276 0 1.73214)
(10.6243 0 1.89092)
(10.7308 0 2.05171)
(10.8474 0 2.21397)
(10.9746 0 2.377)
(11.1127 0 2.53999)
(11.2618 0 2.70197)
(11.4221 0 2.86188)
(11.5936 0 3.01855)
(11.776 0 3.17072)
(11.9691 0 3.31708)
(12.1723 0 3.45631)
(12.3847 0 3.58709)
(12.6055 0 3.70819)
(12.8335 0 3.81848)
(13.0672 0 3.91698)
(13.3053 0 4.00294)
(13.545 0 4.0758)
(13.8085 0 4.13557)
(10.0034 0 0.13508)
(10.0148 0 0.268072)
(10.035 0 0.400028)
(10.0631 0 0.531901)