/*--------------------------------*- C++ -*----------------------------------*\
  =========                 |
  \\      /  F ield         | OpenFOAM: The Open Source CFD Toolbox
   \\    /   O peration     | Website:  https://openfoam.org
    \\  /    A nd           | Version:  dev
     \\/     M anipulation  |
\*---------------------------------------------------------------------------*/
FoamFile
{
    version     2.0;
    format      ascii;
    class       surfaceVectorField;
    location    "3.7";
    object      Uf;
}
// * * * * * * * * * * * * * * * * * * * * * * * * * * * * * * * * * * * * * //

dimensions      [0 1 -1 0 0 0 0];

internalField   nonuniform List<vector> 
5457
(
(9.92088 0 0.0251097)
(9.97125 0 0.038746)
(9.82401 0 0.032827)
(9.92859 0 0.0485855)
(9.70961 0 0.0393122)
(9.85548 0 0.0587685)
(9.57543 0 0.0460117)
(9.7568 0 0.0705937)
(9.42138 0 0.052949)
(9.63753 0 0.0830137)
(9.24754 0 0.0601662)
(9.49861 0 0.0959366)
(9.05362 0 0.0678107)
(9.3393 0 0.109612)
(8.83892 0 0.076034)
(9.15874 0 0.124288)
(8.60252 0 0.0849694)
(8.95609 0 0.140166)
(8.34327 0 0.0947437)
(8.73038 0 0.157432)
(8.05986 0 0.105486)
(8.48041 0 0.176267)
(7.75082 0 0.117326)
(8.20478 0 0.196854)
(7.41458 0 0.130393)
(7.90197 0 0.219358)
(7.04953 0 0.144808)
(7.57033 0 0.243919)
(6.65407 0 0.160669)
(7.20822 0 0.270628)
(6.22677 0 0.178041)
(6.81404 0 0.299495)
(5.76649 0 0.196924)
(6.38639 0 0.330408)
(5.27265 0 0.217229)
(5.92424 0 0.363078)
(4.74547 0 0.238732)
(5.42719 0 0.39697)
(4.18631 0 0.261029)
(4.89576 0 0.431231)
(3.59809 0 0.283485)
(4.33176 0 0.464615)
(2.98568 0 0.3052)
(3.73873 0 0.495422)
(2.35625 0 0.325068)
(3.1224 0 0.521512)
(1.71923 0 0.342549)
(2.4912 0 0.54056)
(1.08447 0 0.361882)
(1.85599 0 0.551678)
(0.451956 0 0.348714)
(1.2456 0 0.563024)
(-0.145762 0 0.102511)
(0.609056 0 0.54492)
(-0.423592 0 -0.207091)
(0.0947056 0 0.259415)
(-0.402146 0 -0.361272)
(-0.133601 0 -0.0205087)
(-0.119679 0 -0.393877)
(9.99641 0 0.0516728)
(9.99705 0 0.0405049)
(9.95879 0 0.070862)
(9.97851 0 0.0674551)
(9.89824 0 0.0879874)
(9.93377 0 0.0898707)
(9.81658 0 0.105985)
(9.86453 0 0.113556)
(9.71358 0 0.124922)
(9.77438 0 0.138515)
(9.58908 0 0.144854)
(9.66435 0 0.164646)
(9.44274 0 0.166089)
(9.53397 0 0.192331)
(9.2739 0 0.188966)
(9.38249 0 0.222029)
(9.08166 0 0.213781)
(9.20919 0 0.254146)
(8.8649 0 0.240812)
(9.01316 0 0.289061)
(8.62231 0 0.270333)
(8.79332 0 0.327148)
(8.3524 0 0.302602)
(8.54837 0 0.36878)
(8.05358 0 0.337851)
(8.27685 0 0.414309)
(7.72415 0 0.376255)
(7.97719 0 0.464037)
(7.36241 0 0.417894)
(7.64775 0 0.518178)
(6.96677 0 0.462699)
(7.28687 0 0.576795)
(6.5359 0 0.510377)
(6.89301 0 0.639713)
(6.06891 0 0.560323)
(6.46488 0 0.706414)
(5.56568 0 0.611512)
(6.00168 0 0.775896)
(5.02721 0 0.662377)
(5.50336 0 0.846512)
(4.45599 0 0.710702)
(4.971 0 0.915796)
(3.85662 0 0.753537)
(4.4073 0 0.9803)
(3.23632 0 0.787197)
(3.81717 0 1.03545)
(2.60594 0 0.807507)
(3.20859 0 1.07549)
(1.98292 0 0.810477)
(2.59352 0 1.09316)
(1.40539 0 0.77692)
(1.99632 0 1.0771)
(0.929849 0 0.646439)
(1.4196 0 0.978452)
(0.439949 0 0.384394)
(0.937648 0 0.716844)
(0.0592188 0 -0.118565)
(0.443879 0 0.343586)
(0.174937 0 -0.335876)
(9.98903 0 0.0594315)
(9.99481 0 0.045878)
(9.95434 0 0.0894774)
(9.97368 0 0.0848551)
(9.89729 0 0.118033)
(9.92984 0 0.119175)
(9.82046 0 0.147899)
(9.86357 0 0.153977)
(9.72416 0 0.179422)
(9.77735 0 0.190409)
(9.60821 0 0.212775)
(9.67226 0 0.228637)
(9.47234 0 0.248391)
(9.54809 0 0.269128)
(9.31607 0 0.286772)
(9.40431 0 0.312495)
(9.13868 0 0.328393)
(9.24034 0 0.359322)
(8.93925 0 0.373716)
(9.05549 0 0.410169)
(8.71665 0 0.423198)
(8.8489 0 0.46559)
(8.46961 0 0.477285)
(8.61952 0 0.526142)
(8.19669 0 0.536386)
(8.36617 0 0.592358)
(7.89635 0 0.600826)
(8.08754 0 0.66472)
(7.56695 0 0.670792)
(7.78222 0 0.743597)
(7.20688 0 0.746236)
(7.44877 0 0.829166)
(6.81463 0 0.82676)
(7.08573 0 0.921293)
(6.38895 0 0.91146)
(6.69177 0 1.01938)
(5.92912 0 0.998736)
(6.2658 0 1.12214)
(5.43524 0 1.08607)
(5.80721 0 1.2274)
(4.90866 0 1.16981)
(5.31618 0 1.33173)
(4.35256 0 1.24488)
(4.79409 0 1.43018)
(3.77272 0 1.30455)
(4.2441 0 1.51587)
(3.17886 0 1.33985)
(3.67195 0 1.57943)
(2.58675 0 1.33814)
(3.08645 0 1.60776)
(2.01997 0 1.27301)
(2.50305 0 1.58162)
(1.48704 0 1.09547)
(1.92885 0 1.46431)
(0.958368 0 0.769238)
(1.38534 0 1.21048)
(0.479921 0 0.202541)
(0.829599 0 0.801128)
(0.433758 0 0.134177)
(9.98515 0 0.0716147)
(9.99367 0 0.0531486)
(9.95039 0 0.113631)
(9.97087 0 0.102292)
(9.89436 0 0.154134)
(9.9269 0 0.147955)
(9.81882 0 0.195574)
(9.86185 0 0.193723)
(9.72441 0 0.238812)
(9.77746 0 0.241279)
(9.61112 0 0.284324)
(9.67466 0 0.291164)
(9.47874 0 0.332719)
(9.55342 0 0.343955)
(9.32694 0 0.384671)
(9.41335 0 0.400369)
(9.15523 0 0.440841)
(9.254 0 0.461135)
(8.96291 0 0.501875)
(9.07483 0 0.526954)
(8.74917 0 0.568417)
(8.8752 0 0.598525)
(8.51305 0 0.641097)
(8.6543 0 0.676548)
(8.25348 0 0.720512)
(8.41123 0 0.761702)
(7.96928 0 0.807168)
(8.14501 0 0.854614)
(7.65921 0 0.901411)
(7.85457 0 0.955792)
(7.32197 0 1.00332)
(7.53879 0 1.06554)
(6.95626 0 1.11254)
(7.19651 0 1.18381)
(6.56092 0 1.2281)
(6.82659 0 1.31004)
(6.13497 0 1.34814)
(6.42797 0 1.44288)
(5.67794 0 1.46957)
(5.99975 0 1.57986)
(5.19011 0 1.58775)
(5.54145 0 1.71705)
(4.67299 0 1.69601)
(5.05317 0 1.84851)
(4.12993 0 1.78514)
(4.53609 0 1.96582)
(3.56679 0 1.84254)
(3.99287 0 2.05731)
(2.99218 0 1.85075)
(3.42774 0 2.10716)
(2.41596 0 1.78254)
(2.84776 0 2.09453)
(1.84064 0 1.60053)
(2.25634 0 1.98881)
(1.25946 0 1.27852)
(1.6604 0 1.75314)
(0.666809 0 0.789643)
(1.02402 0 1.36788)
(0.523059 0 0.787275)
(9.98337 0 0.0844085)
(9.99316 0 0.0612923)
(9.94821 0 0.136839)
(9.96958 0 0.119929)
(9.89314 0 0.188034)
(9.92574 0 0.176242)
(9.81906 0 0.24017)
(9.86199 0 0.2327)
(9.72662 0 0.294468)
(9.77963 0 0.291088)
(9.61589 0 0.351658)
(9.67939 0 0.352274)
(9.48671 0 0.412468)
(9.56127 0 0.416976)
(9.33878 0 0.477671)
(9.42496 0 0.486004)
(9.1717 0 0.548042)
(9.27009 0 0.560198)
(8.98492 0 0.624343)
(9.0962 0 0.640376)
(8.77778 0 0.707328)
(8.90274 0 0.727353)
(8.54954 0 0.797744)
(8.68907 0 0.821937)
(8.29936 0 0.896301)
(8.45445 0 0.924917)
(8.02636 0 1.00362)
(8.19809 0 1.03703)
(7.7296 0 1.12017)
(7.91914 0 1.15888)
(7.40809 0 1.24613)
(7.61672 0 1.29088)
(7.06082 0 1.38123)
(7.28989 0 1.4331)
(6.68676 0 1.52454)
(6.93768 0 1.58506)
(6.28493 0 1.67414)
(6.55906 0 1.74545)
(5.85448 0 1.82675)
(6.15296 0 1.91183)
(5.39482 0 1.97722)
(5.71832 0 2.08012)
(4.90587 0 2.11803)
(5.25419 0 2.24405)
(4.38838 0 2.2386)
(4.75987 0 2.39458)
(3.84408 0 2.32456)
(4.23509 0 2.51919)
(3.27557 0 2.35699)
(3.68003 0 2.60126)
(2.68552 0 2.31066)
(3.09586 0 2.61975)
(2.07279 0 2.1551)
(2.48181 0 2.54741)
(1.42945 0 1.86752)
(1.84002 0 2.35384)
(0.742651 0 1.4197)
(1.13143 0 2.02467)
(0.543335 0 1.51466)
(9.98264 0 0.0974989)
(9.99299 0 0.0697939)
(9.94744 0 0.159777)
(9.96925 0 0.137585)
(9.89354 0 0.221349)
(9.92597 0 0.203929)
(9.82133 0 0.284093)
(9.8638 0 0.27069)
(9.73133 0 0.349348)
(9.78385 0 0.339584)
(9.62366 0 0.418018)
(9.68664 0 0.411697)
(9.49818 0 0.490935)
(9.57217 0 0.487901)
(9.35464 0 0.568968)
(9.44021 0 0.5691)
(9.19268 0 0.652994)
(9.29042 0 0.656226)
(9.01183 0 0.743884)
(9.12242 0 0.750202)
(8.81151 0 0.842498)
(8.93571 0 0.85194)
(8.59109 0 0.949685)
(8.72972 0 0.962344)
(8.34986 0 1.06625)
(8.50382 0 1.08229)
(8.08707 0 1.19293)
(8.25729 0 1.21261)
(7.80194 0 1.33026)
(7.98939 0 1.354)
(7.49363 0 1.47855)
(7.69932 0 1.50698)
(7.16123 0 1.63764)
(7.3862 0 1.67171)
(6.80378 0 1.8067)
(7.04908 0 1.84786)
(6.42018 0 1.98392)
(6.68682 0 2.0343)
(6.00922 0 2.16609)
(6.29809 0 2.22878)
(5.56951 0 2.34806)
(5.88129 0 2.42743)
(5.09958 0 2.52218)
(5.43446 0 2.62421)
(4.59788 0 2.67755)
(4.95525 0 2.81027)
(4.06284 0 2.79951)
(4.44099 0 2.97322)
(3.49284 0 2.86915)
(3.88867 0 3.09665)
(2.88596 0 2.863)
(3.29538 0 3.15996)
(2.23813 0 2.75404)
(2.65704 0 3.13801)
(1.54253 0 2.52118)
(1.97495 0 3.00334)
(0.793693 0 2.13151)
(1.20731 0 2.74078)
(0.556771 0 2.29203)
(9.9825 0 0.110628)
(9.99302 0 0.0783627)
(9.9477 0 0.182326)
(9.96954 0 0.155039)
(9.89522 0 0.253819)
(9.92722 0 0.230888)
(9.82524 0 0.326768)
(9.86696 0 0.307511)
(9.73813 0 0.402555)
(9.78977 0 0.386524)
(9.63403 0 0.482232)
(9.69605 0 0.469148)
(9.51285 0 0.566754)
(9.58578 0 0.556395)
(9.37437 0 0.657085)
(9.45879 0 0.649265)
(9.21827 0 0.754202)
(9.3148 0 0.748778)
(9.04413 0 0.859069)
(9.15345 0 0.855949)
(8.85144 0 0.972641)
(8.97433 0 0.971782)
(8.63962 0 1.09586)
(8.7769 0 1.09727)
(8.40803 0 1.22961)
(8.56058 0 1.23338)
(8.15596 0 1.37471)
(8.3247 0 1.38104)
(7.88266 0 1.53182)
(8.06853 0 1.54103)
(7.5873 0 1.70133)
(7.79127 0 1.714)
(7.26894 0 1.88324)
(7.49199 0 1.90025)
(6.92648 0 2.07691)
(7.16959 0 2.09964)
(6.55859 0 2.28079)
(6.82272 0 2.31132)
(6.16356 0 2.492)
(6.44967 0 2.53342)
(5.73924 0 2.70578)
(6.0482 0 2.76258)
(5.28286 0 2.91495)
(5.61537 0 2.99341)
(4.79098 0 3.10914)
(5.14739 0 3.21781)
(4.25946 0 3.27421)
(4.63955 0 3.42426)
(3.68356 0 3.39191)
(4.08624 0 3.59717)
(3.0582 0 3.43978)
(3.4815 0 3.71661)
(2.37787 0 3.39193)
(2.81853 0 3.75825)
(1.63801 0 3.22636)
(2.0993 0 3.69416)
(0.839186 0 2.90106)
(1.27901 0 3.50471)
(0.573403 0 3.11396)
(9.98273 0 0.123583)
(9.99316 0 0.0868189)
(9.94873 0 0.204312)
(9.97026 0 0.172095)
(9.89794 0 0.285255)
(9.92926 0 0.256978)
(9.8305 0 0.367968)
(9.87123 0 0.342991)
(9.7467 0 0.453853)
(9.79715 0 0.43168)
(9.64667 0 0.544076)
(9.70734 0 0.524351)
(9.53037 0 0.639704)
(9.6018 0 0.622133)
(9.39761 0 0.741792)
(9.48037 0 0.726121)
(9.24812 0 0.851403)
(9.34285 0 0.837415)
(9.08152 0 0.969589)
(9.18893 0 0.957117)
(8.89735 0 1.0974)
(9.01823 0 1.08632)
(8.69509 0 1.23585)
(8.83028 0 1.22611)
(8.47413 0 1.38594)
(8.62454 0 1.37754)
(8.23377 0 1.54858)
(8.40036 0 1.54164)
(7.97324 0 1.72455)
(8.15702 0 1.71932)
(7.69164 0 1.91438)
(7.89365 0 1.91137)
(7.38789 0 2.11828)
(7.60923 0 2.11829)
(7.06068 0 2.33589)
(7.30246 0 2.34021)
(6.70828 0 2.56604)
(6.97171 0 2.57668)
(6.32846 0 2.80641)
(6.6148 0 2.82635)
(5.91822 0 3.05298)
(6.22883 0 3.08662)
(5.4736 0 3.29948)
(5.80988 0 3.3531)
(4.98948 0 3.53663)
(5.35282 0 3.61893)
(4.45953 0 3.75142)
(4.85107 0 3.87397)
(3.87642 0 3.92651)
(4.29664 0 4.10396)
(3.23252 0 4.03996)
(3.68077 0 4.28976)
(2.521 0 4.06515)
(2.99373 0 4.40692)
(1.73851 0 3.97636)
(2.23756 0 4.4248)
(0.889544 0 3.71902)
(1.36348 0 4.31657)
(0.59881 0 3.98521)
(9.98321 0 0.136206)
(9.99339 0 0.0950422)
(9.95032 0 0.225575)
(9.97131 0 0.188592)
(9.90151 0 0.3155)
(9.93193 0 0.282053)
(9.83693 0 0.407506)
(9.87643 0 0.376964)
(9.75683 0 0.503014)
(9.80578 0 0.474843)
(9.66134 0 0.603276)
(9.72029 0 0.577051)
(9.55045 0 0.709455)
(9.61994 0 0.684813)
(9.42402 0 0.822693)
(9.50464 0 0.799311)
(9.28183 0 0.944133)
(9.37421 0 0.921724)
(9.12355 0 1.07491)
(9.22842 0 1.05323)
(8.94878 0 1.21616)
(9.06694 0 1.19502)
(8.75704 0 1.36901)
(8.88937 0 1.34824)
(8.54776 0 1.53454)
(8.69519 0 1.51408)
(8.32025 0 1.71379)
(8.48381 0 1.69366)
(8.07371 0 1.90768)
(8.2545 0 1.88804)
(7.80716 0 2.11695)
(8.00637 0 2.09819)
(7.51936 0 2.34207)
(7.73828 0 2.32488)
(7.20874 0 2.58306)
(7.44877 0 2.56859)
(6.87318 0 2.83929)
(7.13591 0 2.82935)
(6.50988 0 3.10917)
(6.7971 0 3.10653)
(6.11502 0 3.38971)
(6.4288 0 3.39851)
(5.68348 0 3.67595)
(6.0262 0 3.7022)
(5.20858 0 3.96016)
(5.58288 0 4.01241)
(4.68188 0 4.23098)
(5.09045 0 4.32092)
(4.09343 0 4.47236)
(4.53843 0 4.61539)
(3.43266 0 4.66265)
(3.91487 0 4.87793)
(2.69027 0 4.77334)
(3.20585 0 5.08373)
(1.86196 0 4.77266)
(2.41143 0 5.1982)
(0.954242 0 4.59004)
(1.47639 0 5.18463)
(0.639244 0 4.91984)
(9.98386 0 0.148372)
(9.99368 0 0.102946)
(9.95235 0 0.245975)
(9.9726 0 0.204398)
(9.90578 0 0.344404)
(9.9351 0 0.305974)
(9.84437 0 0.445202)
(9.88241 0 0.409275)
(9.76832 0 0.549814)
(9.81551 0 0.515821)
(9.67779 0 0.65956)
(9.7347 0 0.627014)
(9.5728 0 0.775685)
(9.63998 0 0.744158)
(9.45326 0 0.899411)
(9.53128 0 0.868512)
(9.319 0 1.03195)
(9.40851 0 1.00133)
(9.16976 0 1.17453)
(9.2715 0 1.14386)
(9.00521 0 1.32837)
(9.11997 0 1.29736)
(8.82491 0 1.49468)
(8.95359 0 1.46309)
(8.62833 0 1.67466)
(8.77192 0 1.64232)
(8.41484 0 1.86948)
(8.57441 0 1.83631)
(8.18361 0 2.08026)
(8.36037 0 2.04628)
(7.93362 0 2.30797)
(8.12889 0 2.27341)
(7.6635 0 2.55341)
(7.87882 0 2.51878)
(7.37148 0 2.81707)
(7.60857 0 2.78329)
(7.05512 0 3.099)
(7.31603 0 3.06756)
(6.71112 0 3.39853)
(6.99828 0 3.37183)
(6.33493 0 3.71396)
(6.6513 0 3.69564)
(5.92042 0 4.04199)
(6.26955 0 4.03753)
(5.45937 0 4.37699)
(5.84549 0 4.39441)
(4.94118 0 4.70985)
(5.36901 0 4.76064)
(4.35286 0 5.02656)
(4.82695 0 5.12671)
(3.67973 0 5.30628)
(4.20335 0 5.47711)
(2.90765 0 5.51837)
(3.47808 0 5.78761)
(2.02778 0 5.6233)
(2.6452 0 6.01976)
(1.04517 0 5.52982)
(1.63784 0 6.1243)
(0.704532 0 5.94352)
(9.98465 0 0.159985)
(9.99402 0 0.110465)
(9.95473 0 0.265387)
(9.97409 0 0.219405)
(9.91065 0 0.371826)
(9.93867 0 0.328619)
(9.85266 0 0.48089)
(9.88904 0 0.439783)
(9.78099 0 0.59405)
(9.82618 0 0.55444)
(9.6958 0 0.712684)
(9.75037 0 0.67403)
(9.59715 0 0.838107)
(9.66165 0 0.799919)
(9.485 0 0.97161)
(9.56001 0 0.933433)
(9.35925 0 1.11448)
(9.44541 0 1.07589)
(9.21971 0 1.26801)
(9.31774 0 1.2286)
(9.0661 0 1.43349)
(9.17682 0 1.39289)
(8.89808 0 1.61224)
(9.02238 0 1.57012)
(8.71519 0 1.80558)
(8.85407 0 1.76164)
(8.51684 0 2.01483)
(8.67143 0 1.96884)
(8.30225 0 2.24128)
(8.47383 0 2.19313)
(8.0704 0 2.48621)
(8.26043 0 2.43592)
(7.8199 0 2.75079)
(8.03012 0 2.6986)
(7.54887 0 3.03606)
(7.78131 0 2.98255)
(7.2547 0 3.34284)
(7.51187 0 3.28907)
(6.93377 0 3.67156)
(7.21875 0 3.61933)
(6.58107 0 4.02203)
(6.89773 0 3.97423)
(6.18964 0 4.39301)
(6.54288 0 4.35419)
(5.74999 0 4.78152)
(6.14591 0 4.75867)
(5.24938 0 5.18168)
(5.69533 0 5.18546)
(4.67123 0 5.58283)
(5.17537 0 5.62919)
(3.99521 0 5.96667)
(4.56542 0 6.07886)
(3.1987 0 6.30195)
(3.83667 0 6.51376)
(2.262 0 6.54104)
(2.97114 0 6.89438)
(1.18074 0 6.56557)
(1.87937 0 7.15832)
(0.812917 0 7.09998)
(9.98553 0 0.170967)
(9.9944 0 0.11755)
(9.95738 0 0.283705)
(9.97572 0 0.233525)
(9.916 0 0.397642)
(9.94258 0 0.349876)
(9.86169 0 0.514419)
(9.89623 0 0.46836)
(9.79468 0 0.635541)
(9.83764 0 0.590548)
(9.71516 0 0.762433)
(9.76712 0 0.717916)
(9.62323 0 0.896468)
(9.68474 0 0.851879)
(9.51892 0 1.039)
(9.59053 0 0.993818)
(9.40218 0 1.19136)
(9.48453 0 1.1451)
(9.27291 0 1.35493)
(9.36671 0 1.3071)
(9.13091 0 1.53106)
(9.23695 0 1.48121)
(8.97593 0 1.72115)
(9.09511 0 1.66884)
(8.8076 0 1.92665)
(8.94093 0 1.87146)
(8.62543 0 2.14901)
(8.77405 0 2.09056)
(8.42874 0 2.38975)
(8.59397 0 2.32773)
(8.2166 0 2.65041)
(8.39999 0 2.58461)
(7.98769 0 2.93259)
(8.19112 0 2.86292)
(7.7402 0 3.2379)
(7.96594 0 3.16451)
(7.47153 0 3.568)
(7.72245 0 3.49137)
(7.17808 0 3.92452)
(7.45781 0 3.84565)
(6.85468 0 4.30895)
(7.16793 0 4.22967)
(6.49408 0 4.72246)
(6.84702 0 4.6459)
(6.08601 0 5.16536)
(6.48673 0 5.09678)
(5.61601 0 5.63619)
(6.07503 0 5.58429)
(5.064 0 6.12977)
(5.59444 0 6.10894)
(4.40267 0 6.63384)
(5.02009 0 6.66754)
(3.59658 0 7.12143)
(4.31309 0 7.24865)
(2.6047 0 7.54103)
(3.4362 0 7.82051)
(1.39453 0 7.74103)
(2.25688 0 8.31561)
(1.00283 0 8.46584)
(9.9865 0 0.181257)
(9.9948 0 0.124159)
(9.96026 0 0.300839)
(9.97747 0 0.246686)
(9.92176 0 0.421741)
(9.94676 0 0.369655)
(9.87132 0 0.545659)
(9.90387 0 0.494895)
(9.80922 0 0.67413)
(9.84976 0 0.624013)
(9.73566 0 0.808619)
(9.78477 0 0.758514)
(9.65079 0 0.950546)
(9.709 0 0.899851)
(9.55469 0 1.10131)
(9.62256 0 1.04945)
(9.4474 0 1.2623)
(9.52552 0 1.20872)
(9.32888 0 1.43493)
(9.41795 0 1.37907)
(9.19905 0 1.62064)
(9.29985 0 1.56195)
(9.05776 0 1.8209)
(9.17114 0 1.75884)
(8.90476 0 2.03724)
(9.03172 0 1.97127)
(8.73971 0 2.27127)
(8.88137 0 2.20085)
(8.56207 0 2.52469)
(8.71976 0 2.4493)
(8.37108 0 2.79933)
(8.54638 0 2.71847)
(8.16563 0 3.09716)
(8.36047 0 3.0104)
(7.94415 0 3.42037)
(8.16092 0 3.32735)
(7.70434 0 3.77144)
(7.9461 0 3.67195)
(7.44292 0 4.15319)
(7.71364 0 4.04726)
(7.15515 0 4.56888)
(7.4601 0 4.45697)
(6.83415 0 5.02224)
(7.18046 0 4.90558)
(6.46986 0 5.51741)
(6.86734 0 5.39861)
(6.04742 0 6.05852)
(6.50968 0 5.94277)
(5.54458 0 6.64862)
(6.09053 0 6.54597)
(4.92768 0 7.28701)
(5.58374 0 7.21665)
(4.14567 0 7.96163)
(4.94326 0 7.96159)
(3.12239 0 8.63406)
(4.11012 0 8.77596)
(1.75668 0 9.12867)
(2.8792 0 9.62165)
(1.36517 0 10.1864)
(9.98753 0 0.190804)
(9.99523 0 0.130264)
(9.96332 0 0.316715)
(9.97932 0 0.258831)
(9.92785 0 0.444031)
(9.95115 0 0.387878)
(9.88147 0 0.574499)
(9.91187 0 0.519296)
(9.82447 0 0.709689)
(9.86242 0 0.654725)
(9.7571 0 0.851094)
(9.80315 0 0.795694)
(9.67956 0 1.00017)
(9.73423 0 0.943683)
(9.59198 0 1.15835)
(9.6558 0 1.10015)
(9.49448 0 1.32707)
(9.56802 0 1.26653)
(9.38711 0 1.50777)
(9.47103 0 1.44427)
(9.26991 0 1.70193)
(9.36494 0 1.63485)
(9.14284 0 1.9111)
(9.24981 0 1.83978)
(9.00582 0 2.13689)
(9.12566 0 2.06066)
(8.85865 0 2.38101)
(8.99244 0 2.29918)
(8.70102 0 2.64533)
(8.85005 0 2.55717)
(8.53243 0 2.9319)
(8.69821 0 2.83664)
(8.35208 0 3.24304)
(8.53652 0 3.13985)
(8.15883 0 3.58142)
(8.36427 0 3.46944)
(7.95092 0 3.95024)
(8.18041 0 3.8285)
(7.72583 0 4.35338)
(7.98335 0 4.22086)
(7.4798 0 4.79571)
(7.77073 0 4.65131)
(7.20727 0 5.28341)
(7.53907 0 5.12605)
(6.89986 0 5.82447)
(7.28313 0 5.6533)
(6.54462 0 6.42926)
(6.99494 0 6.24422)
(6.12081 0 7.1112)
(6.66177 0 6.91431)
(5.59369 0 7.88749)
(6.26308 0 7.68586)
(4.90172 0 8.778)
(5.75842 0 8.59243)
(3.92783 0 9.80207)
(5.08849 0 9.6853)
(2.43404 0 10.8579)
(3.98086 0 11.0502)
(2.14722 0 12.5704)
(9.98861 0 0.199569)
(9.99567 0 0.13584)
(9.96652 0 0.331271)
(9.98124 0 0.269914)
(9.93419 0 0.46443)
(9.9557 0 0.404483)
(9.89201 0 0.600834)
(9.92016 0 0.541489)
(9.84029 0 0.742079)
(9.87551 0 0.682597)
(9.7793 0 0.889681)
(9.82214 0 0.829352)
(9.70929 0 1.04512)
(9.76025 0 0.983255)
(9.63047 0 1.20985)
(9.69007 0 1.14578)
(9.54303 0 1.38534)
(9.61181 0 1.31837)
(9.44712 0 1.57304)
(9.52572 0 1.50251)
(9.34289 0 1.77449)
(9.432 0 1.69967)
(9.23045 0 1.99124)
(9.33085 0 1.9114)
(9.10987 0 2.22496)
(9.22245 0 2.13933)
(8.98118 0 2.47746)
(9.10695 0 2.38518)
(8.84429 0 2.75071)
(8.98447 0 2.65085)
(8.69905 0 3.04692)
(8.85506 0 2.93844)
(8.54508 0 3.36865)
(8.71869 0 3.25038)
(8.3818 0 3.71893)
(8.5752 0 3.58948)
(8.20824 0 4.10148)
(8.42426 0 3.95919)
(8.02296 0 4.52095)
(8.2653 0 4.36375)
(7.82377 0 4.98339)
(8.0974 0 4.80864)
(7.60739 0 5.49684)
(7.91923 0 5.3011)
(7.36879 0 6.07236)
(7.72879 0 5.85099)
(7.10008 0 6.72561)
(7.52325 0 6.47224)
(6.7881 0 7.47982)
(7.29837 0 7.18545)
(6.40932 0 8.37174)
(7.04871 0 8.02303)
(5.91674 0 9.46591)
(6.76413 0 9.0415)
(5.19774 0 10.9088)
(6.46374 0 10.3567)
(3.88637 0 13.181)
(6.1929 0 12.3042)
(5.26402 0 16.3768)
(0.212924 0 -0.132115)
(0.122651 0 -0.208546)
(0.414236 0 -0.112431)
(0.296731 0 -0.192516)
(0.582872 0 -0.0887062)
(0.472432 0 -0.157459)
(0.72029 0 -0.0685177)
(0.62419 0 -0.125279)
(0.831954 0 -0.052595)
(0.748194 0 -0.0993952)
(0.923088 0 -0.0403095)
(0.849529 0 -0.0792063)
(0.998159 0 -0.0309669)
(0.933839 0 -0.0637036)
(1.06093 0 -0.0239712)
(1.00542 0 -0.0520081)
(1.11448 0 -0.0187986)
(1.06746 0 -0.043323)
(1.16123 0 -0.0149866)
(1.12238 0 -0.0369246)
(1.20295 0 -0.0121302)
(1.17207 0 -0.0321712)
(1.24078 0 -0.00987806)
(1.21785 0 -0.0284929)
(1.27532 0 -0.00794104)
(1.26056 0 -0.0253927)
(1.30664 0 -0.0061177)
(1.30051 0 -0.0224824)
(1.33452 0 -0.00431449)
(1.33767 0 -0.0195424)
(1.3587 0 -0.00251822)
(1.37177 0 -0.0165432)
(1.37897 0 -0.000696495)
(1.40262 0 -0.0135459)
(1.39504 0 0.00131036)
(1.43013 0 -0.0104846)
(1.40608 0 0.00372768)
(1.45419 0 -0.0070332)
(1.41079 0 0.00648783)
(1.47413 0 -0.00293042)
(1.40804 0 0.00900908)
(1.48869 0 0.00167261)
(1.39836 0 0.0105527)
(1.49676 0 0.00573789)
(1.38496 0 0.0106681)
(1.49911 0 0.00775756)
(1.37174 0 0.00945681)
(1.49894 0 0.007475)
(1.36098 0 0.00745438)
(1.49973 0 0.00593968)
(1.35336 0 0.0050867)
(1.50306 0 0.00410127)
(1.34933 0 0.00243853)
(1.50893 0 0.00212479)
(1.34984 0 -0.000229239)
(1.51717 0 -0.000265446)
(1.35598 0 -0.00250825)
(1.52784 0 -0.00307929)
(1.5441 0 -0.00523626)
(0.187902 0 -0.300095)
(0.0961797 0 -0.392584)
(0.37031 0 -0.264123)
(0.252647 0 -0.366953)
(0.526237 0 -0.214709)
(0.40103 0 -0.303052)
(0.656531 0 -0.171739)
(0.530321 0 -0.244064)
(0.766048 0 -0.137696)
(0.637478 0 -0.19688)
(0.85923 0 -0.111401)
(0.727122 0 -0.160193)
(0.939729 0 -0.0913958)
(0.803621 0 -0.132014)
(1.01052 0 -0.0764024)
(0.870221 0 -0.11066)
(1.07399 0 -0.0652917)
(0.92933 0 -0.0946667)
(1.13201 0 -0.0570685)
(0.982813 0 -0.0827523)
(1.18598 0 -0.0508581)
(1.03212 0 -0.0737991)
(1.23688 0 -0.0458936)
(1.07831 0 -0.0668188)
(1.28523 0 -0.0415337)
(1.12208 0 -0.0609405)
(1.33118 0 -0.0373259)
(1.16376 0 -0.0554647)
(1.3746 0 -0.0330714)
(1.20333 0 -0.0499764)
(1.41534 0 -0.0287924)
(1.24057 0 -0.0444262)
(1.45345 0 -0.024522)
(1.27523 0 -0.0390097)
(1.48915 0 -0.0200226)
(1.30741 0 -0.0337765)
(1.52242 0 -0.0148025)
(1.33751 0 -0.0282209)
(1.55224 0 -0.00870792)
(1.36575 0 -0.0214764)
(1.57699 0 -0.00259588)
(1.39133 0 -0.013358)
(1.59611 0 0.00202282)
(1.41249 0 -0.00559802)
(1.61142 0 0.00417684)
(1.42835 0 -0.00110765)
(1.62602 0 0.00420312)
(1.44084 0 -0.000776811)
(1.64169 0 0.00320021)
(1.45308 0 -0.00270718)
(1.65875 0 0.00183033)
(1.46639 0 -0.00509507)
(1.67681 0 -2.06521e-05)
(1.48041 0 -0.00737614)
(1.69515 0 -0.00246636)
(1.49412 0 -0.00968342)
(1.71317 0 -0.00478087)
(1.50642 0 -0.0121171)
(1.51961 0 -0.0124777)
(0.151512 0 -0.467503)
(0.0701727 0 -0.540981)
(0.294573 0 -0.414245)
(0.194751 0 -0.503764)
(0.414794 0 -0.340103)
(0.300436 0 -0.415304)
(0.514791 0 -0.275698)
(0.393051 0 -0.335228)
(0.59894 0 -0.224634)
(0.468341 0 -0.271784)
(0.670708 0 -0.185007)
(0.531276 0 -0.222567)
(0.732887 0 -0.154625)
(0.584749 0 -0.184777)
(0.78768 0 -0.131589)
(0.630916 0 -0.156059)
(0.836838 0 -0.114263)
(0.671439 0 -0.134434)
(0.881749 0 -0.101226)
(0.707632 0 -0.118226)
(0.923488 0 -0.0912305)
(0.74053 0 -0.105989)
(0.962816 0 -0.0831672)
(0.77093 0 -0.0964331)
(1.00016 0 -0.0760853)
(0.79941 0 -0.088399)
(1.03562 0 -0.0692884)
(0.826303 0 -0.0809153)
(1.06899 0 -0.0624681)
(0.85165 0 -0.0733657)
(1.10003 0 -0.0557206)
(0.875183 0 -0.065666)
(1.12875 0 -0.0492681)
(0.896369 0 -0.058202)
(1.15564 0 -0.0428982)
(0.914995 0 -0.0513187)
(1.1812 0 -0.0356159)
(0.931603 0 -0.0445012)
(1.20513 0 -0.0263594)
(0.947604 0 -0.0363599)
(1.22609 0 -0.0160721)
(0.963779 0 -0.026089)
(1.24276 0 -0.00840059)
(0.977914 0 -0.0154834)
(1.25557 0 -0.00604631)
(0.982403 0 -0.00852387)
(1.26683 0 -0.00804022)
(0.976418 0 -0.00714035)
(1.27776 0 -0.0117808)
(0.968419 0 -0.00873535)
(1.28822 0 -0.0154651)
(0.961204 0 -0.0107313)
(1.29754 0 -0.0183902)
(0.955112 0 -0.0122804)
(1.3051 0 -0.0205259)
(0.949081 0 -0.0135686)
(1.31092 0 -0.021063)
(0.943604 0 -0.0150381)
(0.939467 0 -0.0154324)
(0.112463 0 -0.589005)
(0.0449086 0 -0.651131)
(0.20953 0 -0.517027)
(0.130406 0 -0.59659)
(0.286668 0 -0.422525)
(0.186252 0 -0.487329)
(0.349407 0 -0.342422)
(0.237558 0 -0.392425)
(0.401383 0 -0.279519)
(0.275082 0 -0.31805)
(0.444913 0 -0.230809)
(0.305465 0 -0.2604)
(0.481826 0 -0.193446)
(0.3297 0 -0.216101)
(0.513508 0 -0.165035)
(0.349002 0 -0.182309)
(0.54106 0 -0.143582)
(0.364374 0 -0.156722)
(0.565378 0 -0.127386)
(0.376627 0 -0.137434)
(0.587193 0 -0.114957)
(0.386401 0 -0.122813)
(0.607078 0 -0.104956)
(0.394238 0 -0.111406)
(0.625426 0 -0.0962012)
(0.400666 0 -0.101889)
(0.642383 0 -0.087773)
(0.406136 0 -0.0930877)
(0.657788 0 -0.0792084)
(0.410915 0 -0.084163)
(0.671192 0 -0.0706232)
(0.414886 0 -0.0748392)
(0.682202 0 -0.0625217)
(0.41695 0 -0.0655589)
(0.691139 0 -0.0551932)
(0.416334 0 -0.057149)
(0.699179 0 -0.0481567)
(0.411664 0 -0.0496223)
(0.707455 0 -0.0401729)
(0.404986 0 -0.0415075)
(0.714366 0 -0.0301229)
(0.396554 0 -0.0302856)
(0.713633 0 -0.0190517)
(0.388187 0 -0.0150488)
(0.699921 0 -0.010475)
(0.375419 0 -0.000585959)
(0.676938 0 -0.00661593)
(0.357443 0 0.00585057)
(0.652524 0 -0.00546463)
(0.33746 0 0.00473851)
(0.628902 0 -0.00463705)
(0.318388 0 0.00199736)
(0.606645 0 -0.00456536)
(0.304652 0 -0.000570697)
(0.586544 0 -0.00574022)
(0.292741 0 -0.00324275)
(0.571625 0 -0.00783911)
(0.282689 0 -0.00755523)
(0.272686 0 -0.0141202)
(0.0679547 0 -0.667534)
(0.0185801 0 -0.717689)
(0.114115 0 -0.575966)
(0.0588065 0 -0.640733)
(0.144459 0 -0.465853)
(0.0605658 0 -0.515661)
(0.165574 0 -0.375646)
(0.0675107 0 -0.411675)
(0.180472 0 -0.30534)
(0.0632052 0 -0.331311)
(0.190357 0 -0.250928)
(0.0565228 0 -0.268991)
(0.196223 0 -0.209124)
(0.0465391 0 -0.221079)
(0.198837 0 -0.177228)
(0.0340908 0 -0.184474)
(0.198823 0 -0.153048)
(0.0197776 0 -0.156711)
(0.196689 0 -0.134754)
(0.00409269 0 -0.135748)
(0.192876 0 -0.120762)
(-0.012602 0 -0.119872)
(0.187797 0 -0.10963)
(-0.0299459 0 -0.107581)
(0.181829 0 -0.100031)
(-0.0474838 0 -0.0975011)
(0.175298 0 -0.0908325)
(-0.0647256 0 -0.0883993)
(0.168345 0 -0.081304)
(-0.0812404 0 -0.0792901)
(0.160678 0 -0.0713126)
(-0.096822 0 -0.0695919)
(0.151224 0 -0.0612365)
(-0.112068 0 -0.059242)
(0.13805 0 -0.0512828)
(-0.127513 0 -0.0485546)
(0.119658 0 -0.0406239)
(-0.144881 0 -0.0379066)
(0.0959781 0 -0.0273578)
(-0.163039 0 -0.02678)
(0.0696519 0 -0.0107824)
(-0.182231 0 -0.0142989)
(0.0459244 0 0.00542121)
(-0.199215 0 -0.000980502)
(0.0293319 0 0.0148411)
(-0.21071 0 0.00901957)
(0.0165999 0 0.0153707)
(-0.219411 0 0.0130472)
(0.00413275 0 0.0106481)
(-0.229222 0 0.0116189)
(-0.00445097 0 0.00489824)
(-0.239495 0 0.00662272)
(-0.0098177 0 -0.000405391)
(-0.245293 0 0.00225286)
(-0.012695 0 -0.00574548)
(-0.249163 0 -0.00176468)
(-0.01533 0 -0.0130287)
(-0.254256 0 -0.0062336)
(-0.260896 0 -0.0131284)
(0.0165766 0 -0.696864)
(-0.0107514 0 -0.733925)
(0.00889046 0 -0.585447)
(-0.0211364 0 -0.633383)
(-0.0106224 0 -0.464056)
(-0.0733838 0 -0.497442)
(-0.0327311 0 -0.368333)
(-0.114058 0 -0.391519)
(-0.0586273 0 -0.294285)
(-0.161431 0 -0.30826)
(-0.086607 0 -0.237433)
(-0.207442 0 -0.244673)
(-0.115885 0 -0.194053)
(-0.252804 0 -0.196234)
(-0.145801 0 -0.161176)
(-0.296677 0 -0.159688)
(-0.17593 0 -0.136364)
(-0.338557 0 -0.132337)
(-0.205992 0 -0.117646)
(-0.378126 0 -0.112003)
(-0.235745 0 -0.10338)
(-0.415298 0 -0.0969266)
(-0.264922 0 -0.0921227)
(-0.45008 0 -0.0856108)
(-0.293223 0 -0.0825741)
(-0.482468 0 -0.0766942)
(-0.320305 0 -0.0736456)
(-0.512412 0 -0.068958)
(-0.345764 0 -0.0645885)
(-0.539818 0 -0.0614462)
(-0.369156 0 -0.0550912)
(-0.564559 0 -0.0535841)
(-0.390169 0 -0.0452501)
(-0.586555 0 -0.0452015)
(-0.408797 0 -0.0353313)
(-0.605866 0 -0.0364016)
(-0.425467 0 -0.0253847)
(-0.622693 0 -0.0272881)
(-0.440232 0 -0.0152656)
(-0.63692 0 -0.0175972)
(-0.452182 0 -0.00523614)
(-0.648011 0 -0.00704209)
(-0.459225 0 0.00388182)
(-0.655793 0 0.00319541)
(-0.463265 0 0.0103715)
(-0.659056 0 0.0113587)
(-0.467211 0 0.0124333)
(-0.662725 0 0.0152774)
(-0.472179 0 0.0100854)
(-0.667633 0 0.0143607)
(-0.478882 0 0.00583517)
(-0.674185 0 0.0102347)
(-0.485461 0 0.00200164)
(-0.680895 0 0.00571391)
(-0.491706 0 -0.0021224)
(-0.686899 0 0.00144357)
(-0.495921 0 -0.00770238)
(-0.694237 0 -0.00411948)
(-0.700685 0 -0.0113823)
(-0.0387165 0 -0.669778)
(-0.0452852 0 -0.696004)
(-0.102127 0 -0.542342)
(-0.108388 0 -0.572743)
(-0.170238 0 -0.418624)
(-0.212356 0 -0.433845)
(-0.239813 0 -0.32335)
(-0.301143 0 -0.32809)
(-0.307705 0 -0.250506)
(-0.389073 0 -0.247827)
(-0.372606 0 -0.195695)
(-0.470361 0 -0.188267)
(-0.433496 0 -0.154797)
(-0.544523 0 -0.144564)
(-0.489815 0 -0.124673)
(-0.611228 0 -0.113025)
(-0.541259 0 -0.102779)
(-0.670667 0 -0.0907212)
(-0.587805 0 -0.0870353)
(-0.72332 0 -0.0752378)
(-0.629691 0 -0.0757216)
(-0.769858 0 -0.0646237)
(-0.667289 0 -0.0673624)
(-0.811021 0 -0.0573)
(-0.700997 0 -0.0606551)
(-0.847483 0 -0.0519117)
(-0.731161 0 -0.0545274)
(-0.879804 0 -0.0473044)
(-0.757988 0 -0.0482438)
(-0.908408 0 -0.0426436)
(-0.781528 0 -0.0414422)
(-0.933563 0 -0.0374749)
(-0.801773 0 -0.0340545)
(-0.955418 0 -0.0316744)
(-0.818817 0 -0.0261171)
(-0.974095 0 -0.0252817)
(-0.832966 0 -0.017566)
(-0.989743 0 -0.0182755)
(-0.844376 0 -0.00830946)
(-1.00251 0 -0.0105012)
(-0.853226 0 0.00114666)
(-1.01242 0 -0.0016676)
(-0.858835 0 0.00924338)
(-1.01882 0 0.00652114)
(-0.862086 0 0.0143297)
(-1.02277 0 0.0132407)
(-0.864958 0 0.0155616)
(-1.02627 0 0.0169004)
(-0.869098 0 0.0133324)
(-1.03061 0 0.0166457)
(-0.875241 0 0.00935688)
(-1.03647 0 0.013545)
(-0.882406 0 0.00491814)
(-1.04343 0 0.00948371)
(-0.888996 0 -0.000432159)
(-1.05093 0 0.00482875)
(-0.894428 0 -0.00698087)
(-1.0582 0 -0.00139512)
(-1.0635 0 -0.00805829)
(-0.0982838 0 -0.588818)
(-0.0860453 0 -0.599741)
(-0.216286 0 -0.452386)
(-0.202368 0 -0.459897)
(-0.334029 0 -0.331238)
(-0.357043 0 -0.323907)
(-0.446309 0 -0.241487)
(-0.48934 0 -0.225728)
(-0.549226 0 -0.176233)
(-0.611392 0 -0.156216)
(-0.641196 0 -0.129749)
(-0.718911 0 -0.108335)
(-0.72193 0 -0.0971262)
(-0.811949 0 -0.0760542)
(-0.792116 0 -0.0747134)
(-0.891197 0 -0.054873)
(-0.852863 0 -0.0597828)
(-0.957935 0 -0.0415786)
(-0.905441 0 -0.0501696)
(-1.01454 0 -0.0337076)
(-0.951109 0 -0.0441188)
(-1.06303 0 -0.0294043)
(-0.990956 0 -0.0402132)
(-1.10506 0 -0.027295)
(-1.02586 0 -0.0372758)
(-1.14191 0 -0.0262497)
(-1.05654 0 -0.0344045)
(-1.17441 0 -0.0252835)
(-1.08351 0 -0.0310518)
(-1.20302 0 -0.0237383)
(-1.10708 0 -0.0269998)
(-1.22821 0 -0.0213452)
(-1.12738 0 -0.022228)
(-1.25024 0 -0.0181071)
(-1.14453 0 -0.0167326)
(-1.26922 0 -0.0140946)
(-1.15873 0 -0.0104298)
(-1.2852 0 -0.00923)
(-1.17027 0 -0.00328922)
(-1.29822 0 -0.00332513)
(-1.1786 0 0.00430282)
(-1.30818 0 0.00338815)
(-1.18456 0 0.0112807)
(-1.31508 0 0.0100598)
(-1.18903 0 0.0161964)
(-1.32055 0 0.0158257)
(-1.19307 0 0.017959)
(-1.32545 0 0.0191831)
(-1.19798 0 0.0166225)
(-1.33081 0 0.0193578)
(-1.20433 0 0.0133299)
(-1.33724 0 0.0169655)
(-1.21145 0 0.00898381)
(-1.34475 0 0.0132278)
(-1.21851 0 0.00342529)
(-1.35318 0 0.00845784)
(-1.2258 0 -0.0029167)
(-1.3613 0 0.00226039)
(-1.36584 0 -0.00352824)
(-0.16347 0 -0.452786)
(-0.135838 0 -0.439632)
(-0.33792 0 -0.316663)
(-0.312562 0 -0.293069)