/*--------------------------------*- C++ -*----------------------------------*\
  =========                 |
  \\      /  F ield         | OpenFOAM: The Open Source CFD Toolbox
   \\    /   O peration     | Website:  https://openfoam.org
    \\  /    A nd           | Version:  dev
     \\/     M anipulation  |
\*---------------------------------------------------------------------------*/
FoamFile
{
    version     2.0;
    format      ascii;
    class       surfaceScalarField;
    location    "8.9";
    object      phi;
}
// * * * * * * * * * * * * * * * * * * * * * * * * * * * * * * * * * * * * * //

dimensions      [0 3 -1 0 0 0 0];

internalField   nonuniform List<scalar> 
5457
(
0.198418
0.00158239
0.19648
0.00193738
0.194192
0.00228811
0.191509
0.00268361
0.188427
0.00308124
0.18495
0.00347682
0.181072
0.00387864
0.176778
0.0042941
0.172049
0.00472832
0.166864
0.00518534
0.161195
0.00566865
0.155014
0.00618119
0.148289
0.00672515
0.140988
0.00730154
0.133078
0.00790971
0.124531
0.00854666
0.115325
0.0092061
0.105448
0.00987738
0.0949034
0.0105443
0.0837198
0.0111837
0.071955
0.0117647
0.0597067
0.0122483
0.0471181
0.0125886
0.034378
0.0127401
0.0216832
0.0126948
0.0090332
0.01265
-0.00291893
0.0119521
-0.00847317
0.00555424
-0.00804337
-0.000429806
-0.00804337
0.199928
0.00165424
0.199176
0.00268984
0.197965
0.00349907
0.196332
0.00431683
0.194271
0.00514134
0.191781
0.00596695
0.188854
0.0068057
0.185477
0.00767105
0.181632
0.00857334
0.177297
0.00952088
0.172444
0.0105209
0.167046
0.0115797
0.161069
0.0127021
0.15448
0.0138907
0.147245
0.015145
0.139331
0.01646
0.130713
0.0178243
0.121373
0.0192178
0.111308
0.0206093
0.100538
0.0219537
0.089113
0.0231893
0.0771253
0.024236
0.0647194
0.0249946
0.052112
0.0253474
0.039652
0.0251549
0.0281025
0.0241995
0.0185921
0.0214626
0.00879435
0.015352
0.0011821
0.00718245
-0.00686127
0.199781
0.00187369
0.199087
0.0033837
0.197946
0.00464002
0.196409
0.00585348
0.194483
0.00706751
0.192164
0.00828606
0.189446
0.0095232
0.186321
0.0107966
0.182773
0.0121214
0.178784
0.0135099
0.174331
0.0149732
0.16939
0.0165209
0.163931
0.0181609
0.157924
0.0198981
0.151336
0.0217335
0.144134
0.023662
0.136288
0.02567
0.127774
0.0277319
0.118577
0.0298064
0.108699
0.0318318
0.0981665
0.0337213
0.0870441
0.0353584
0.0754474
0.0365913
0.0635704
0.0372244
0.0517288
0.0369965
0.040394
0.0355343
0.0297362
0.0321204
0.019164
0.0259241
0.0095964
0.0167501
0.00273513
0.199703
0.00217063
0.199008
0.00407903
0.197887
0.00576058
0.196376
0.00736442
0.194488
0.00895568
0.192222
0.0105521
0.189574
0.012171
0.186538
0.0138327
0.183104
0.0155559
0.179257
0.0173565
0.174982
0.0192483
0.170259
0.0212437
0.165067
0.0233527
0.159383
0.0255825
0.153181
0.0279354
0.146435
0.0304074
0.139121
0.0329846
0.131213
0.0356395
0.122694
0.0383258
0.113553
0.0409729
0.103796
0.0434784
0.0934529
0.0457011
0.0825916
0.0474526
0.0713289
0.0484871
0.0598372
0.0484882
0.0483136
0.0470579
0.0368082
0.0436258
0.0251859
0.0375464
0.0133346
0.0286014
0.0160697
0.199667
0.00250322
0.198964
0.00478231
0.197863
0.00686192
0.196381
0.00884614
0.194532
0.0108045
0.192318
0.0127668
0.189734
0.0147548
0.186775
0.0167914
0.183433
0.0188977
0.179697
0.0210923
0.175554
0.0233914
0.170989
0.025809
0.165985
0.0283567
0.160525
0.0310429
0.154589
0.0338712
0.148158
0.0368382
0.141212
0.0399307
0.13373
0.0431212
0.125693
0.046363
0.117083
0.0495825
0.10789
0.0526721
0.0981105
0.0554803
0.0877604
0.0578026
0.0768745
0.0593731
0.0655047
0.0598579
0.0537044
0.0588582
0.041451
0.0558792
0.0285856
0.0504118
0.0148512
0.0423358
0.0309209
0.199653
0.00285043
0.198949
0.00548638
0.197871
0.00793988
0.196427
0.0102903
0.194627
0.0126045
0.192473
0.0149204
0.189963
0.0172645
0.187092
0.0196623
0.183853
0.0221371
0.180236
0.0247097
0.176229
0.0273981
0.17182
0.0302178
0.166995
0.0331817
0.161739
0.0362991
0.156036
0.0395743
0.149869
0.0430051
0.14322
0.0465792
0.136071
0.0502709
0.128398
0.0540356
0.120178
0.0578025
0.111383
0.0614668
0.101984
0.0648794
0.09195
0.067837
0.0812492
0.0700739
0.0698495
0.0712576
0.0577126
0.0709951
0.0447571
0.0688348
0.0308465
0.0643224
0.0158718
0.0573105
0.0467927
0.19965
0.00320039
0.198954
0.00618238
0.197904
0.00898953
0.196505
0.0116901
0.194762
0.0143468
0.19268
0.0170024
0.190257
0.0196882
0.187487
0.022432
0.184365
0.0252593
0.180882
0.0281927
0.177028
0.0312522
0.172791
0.0344546
0.168159
0.037814
0.163117
0.0413409
0.15765
0.0450409
0.151742
0.0489129
0.145375
0.0529471
0.138525
0.0571208
0.131166
0.0613942
0.123265
0.0657038
0.114778
0.0699539
0.105649
0.0740076
0.0958113
0.0776751
0.0851806
0.0807046
0.0736627
0.0827755
0.0611563
0.0835015
0.0475509
0.0824402
0.0327554
0.0791178
0.0167812
0.0732848
0.0635738
0.199655
0.00354574
0.198975
0.00686251
0.197959
0.0100053
0.19661
0.0130388
0.194934
0.0160229
0.192933
0.019003
0.190607
0.0220144
0.187952
0.0250873
0.184962
0.0282493
0.18163
0.031525
0.177946
0.0349357
0.173901
0.0385001
0.169481
0.0422337
0.164673
0.0461485
0.159462
0.050252
0.153829
0.0545456
0.147754
0.0590227
0.141209
0.063666
0.13416
0.068443
0.126563
0.0733011
0.118357
0.0781596
0.109463
0.0829009
0.0997803
0.0873583
0.0891808
0.0913041
0.0775185
0.0944377
0.0646411
0.0963789
0.050412
0.0966694
0.0347641
0.0947657
0.0177876
0.0902612
0.0813614
0.199664
0.00388158
0.199006
0.00752032
0.19803
0.0109816
0.196739
0.0143303
0.195137
0.0176249
0.193227
0.0209129
0.191009
0.0242323
0.18848
0.0276159
0.185636
0.0310934
0.18247
0.0346907
0.178975
0.0384312
0.17514
0.0423352
0.170954
0.0464198
0.166403
0.0506992
0.161472
0.0551834
0.15614
0.0598773
0.150383
0.0647794
0.14417
0.0698794
0.137458
0.0751551
0.130191
0.0805682
0.122292
0.0860581
0.11366
0.0915328
0.104161
0.0968575
0.0936262
0.101839
0.0818567
0.106207
0.0686416
0.109594
0.053795
0.111516
0.0372312
0.11133
0.0190804
0.108412
0.100442
0.199677
0.00420436
0.199047
0.00815057
0.198116
0.0119129
0.196887
0.0155586
0.195366
0.0191459
0.193556
0.0227235
0.191456
0.0263321
0.189065
0.0300068
0.18638
0.0337787
0.183395
0.0376756
0.180104
0.0417226
0.176497
0.0459414
0.172565
0.0503516
0.168295
0.0549695
0.16367
0.0598085
0.158669
0.0648779
0.153266
0.0701825
0.147425
0.0757208
0.141097
0.0814834
0.134215
0.0874497
0.12669
0.0935833
0.118398
0.0998247
0.109175
0.10608
0.0988103
0.112204
0.0870427
0.117975
0.07358
0.123057
0.0581394
0.126957
0.0405446
0.128924
0.0208972
0.128059
0.121339
0.199693
0.00451143
0.199095
0.00874896
0.198213
0.0127945
0.197053
0.0167183
0.19562
0.0205793
0.193916
0.0244274
0.191943
0.0283052
0.1897
0.0322497
0.187185
0.0362937
0.184394
0.0404666
0.181322
0.0447948
0.177961
0.0493021
0.174303
0.0540097
0.170335
0.058937
0.166043
0.0641008
0.161405
0.0695156
0.156395
0.0751933
0.150973
0.0811425
0.145088
0.0873681
0.138668
0.0938698
0.131612
0.100639
0.123782
0.107655
0.114986
0.114875
0.104972
0.122219
0.093407
0.12954
0.0798854
0.136578
0.0639557
0.142886
0.0452246
0.147655
0.0236056
0.149678
0.144945
0.199711
0.00480074
0.199148
0.00931197
0.19832
0.0136221
0.197234
0.0178046
0.195894
0.0219194
0.194303
0.0260177
0.192465
0.0301437
0.190379
0.0343359
0.188044
0.0386285
0.185458
0.0430523
0.182618
0.0476349
0.179518
0.0524019
0.176151
0.0573766
0.172508
0.0625808
0.168573
0.0680351
0.16433
0.0737592
0.159751
0.0797723
0.1548
0.0860935
0.149425
0.0927428
0.143554
0.0997407
0.137084
0.107109
0.12987
0.11487
0.121705
0.12304
0.112302
0.131622
0.101258
0.140583
0.0880291
0.149808
0.0719064
0.159009
0.0520715
0.16749
0.0278762
0.173874
0.172821
0.19973
0.00507068
0.199205
0.00983675
0.198435
0.0143921
0.197427
0.0188132
0.196185
0.0231615
0.194713
0.0274889
0.193016
0.0318411
0.191094
0.0362578
0.188948
0.0407744
0.186578
0.0454227
0.183981
0.0502316
0.181155
0.0552278
0.178095
0.0604366
0.174794
0.0658822
0.17124
0.0715884
0.16742
0.0775797
0.16331
0.083882
0.158879
0.0905244
0.154082
0.0975404
0.148851
0.104971
0.143093
0.112867
0.13667
0.121293
0.129381
0.130329
0.120927
0.140075
0.110865
0.150645
0.0985223
0.162151
0.0828782
0.174653
0.0624132
0.187955
0.0351089
0.201178
0.20793
0.199751
0.00531997
0.199266
0.010321
0.198557
0.0151015
0.19763
0.0197407
0.19649
0.0243013
0.195142
0.0288362
0.193592
0.0333919
0.19184
0.0380092
0.18989
0.0427244
0.187743
0.0475699
0.185399
0.0525756
0.182857
0.0577692
0.180117
0.0631773
0.177173
0.0688258
0.17402
0.0747413
0.170648
0.0809521
0.16704
0.0874896
0.163174
0.0943906
0.159014
0.1017
0.15451
0.109475
0.149587
0.117791
0.144133
0.126747
0.13798
0.136482
0.130869
0.147186
0.122385
0.159129
0.111834
0.172702
0.0979854
0.188502
0.0785017
0.207439
0.0486341
0.231046
0.256564
0.199772
0.00554766
0.19933
0.0107629
0.198684
0.015748
0.19784
0.0205843
0.196806
0.0253357
0.195586
0.0300559
0.194186
0.034792
0.19261
0.0395855
0.190861
0.0444731
0.188943
0.049488
0.186859
0.0546601
0.18461
0.060018
0.182198
0.0655889
0.179624
0.0713999
0.176886
0.0774792
0.173981
0.0838575
0.170901
0.0905696
0.167634
0.0976573
0.164162
0.105173
0.160454
0.113183
0.156467
0.121777
0.152136
0.131079
0.147359
0.141259
0.141977
0.152568
0.135727
0.165379
0.128138
0.180291
0.118268
0.198371
0.103866
0.221841
0.0776269
0.257285
0.334191
0.00383939
-0.00383939
0.00750402
-0.00366463
0.0105263
-0.00302233
0.0128823
-0.00235599
0.0146438
-0.00176142
0.0158881
-0.00124436
0.0166814
-0.000793276
0.0170797
-0.000398278
0.0171418
-6.21261e-05
0.0169041
0.000237713
0.0164341
0.000469972
0.0157861
0.000648036
0.0150131
0.000772947
0.0141701
0.000843054
0.013311
0.000859089
0.0124846
0.00082643
0.0117299
0.000754693
0.0110731
0.000656718
0.0105257
0.000547434
0.0100833
0.000442378
0.00972917
0.000354162
0.00944112
0.00028805
0.00919912
0.000242003
0.00898967
0.000209453
0.00880666
0.000183005
0.00864838
0.000158281
0.00851303
0.000135348
0.00839591
0.000117125
0.00829073
0.000105178
8.43749e-05
0.00356546
-0.00740485
0.00699118
-0.00709035
0.00988005
-0.00591119
0.0122208
-0.00469676
0.0140852
-0.00362576
0.0155447
-0.00270393
0.0166587
-0.00190724
0.0174728
-0.00121236
0.0180092
-0.000598539
0.0183003
-5.33568e-05
0.0183367
0.000433505
0.0181729
0.000811909
0.0178618
0.00108404
0.0174591
0.00124568
0.01702
0.00129825
0.0165935
0.0012529
0.0162186
0.00112956
0.0159207
0.000954639
0.0157097
0.000758508
0.0155795
0.000572487
0.0155124
0.000421289
0.0154869
0.000313567
0.015485
0.000243881
0.015496
0.000198484
0.0155162
0.000162809
0.0155453
0.000129206
0.0155818
9.87763e-05
0.0156214
7.75152e-05
0.0156569
6.97374e-05
7.59912e-05
0.00303314
-0.010438
0.00585661
-0.00991382
0.0082016
-0.00825618
0.0101005
-0.00659563
0.0116277
-0.00515301
0.0128431
-0.00391927
0.0137933
-0.00285751
0.0145156
-0.00193467
0.0150436
-0.00112646
0.0154065
-0.000416351
0.0156281
0.000211963
0.0156972
0.00074275
0.0156514
0.00112991
0.0155345
0.00136253
0.015389
0.00144378
0.015251
0.00139094
0.0151482
0.0012323
0.0150984
0.00100447
0.0151063
0.000750557
0.0151633
0.000515467
0.0152497
0.000334977
0.0153453
0.000217886
0.015435
0.000154242
0.0155108
0.000122682
0.0155727
0.000100941
0.0156236
7.83009e-05
0.0156663
5.60163e-05
0.0157013
4.25591e-05
0.015725
4.60223e-05
7.57967e-05
0.00244662
-0.0128846
0.00455984
-0.012027
0.0062417
-0.00993804
0.00759185
-0.00794578
0.00868434
-0.0062455
0.00956321
-0.00479814
0.0102609
-0.00355519
0.0108009
-0.00247464
0.0112038
-0.00152944
0.0114972
-0.000709755
0.0116994
9.8219e-06
0.0117941
0.000648015
0.0118147
0.00110933
0.011799
0.00137819
0.011777
0.00146581
0.0117696
0.00139839
0.0117905
0.00121138
0.0118455
0.000949461
0.0119309
0.000665181
0.0120314
0.000414963
0.0121203
0.000246065
0.0121793
0.000158893
0.0121973
0.000136223
0.0121743
0.000145643
0.0121188
0.000156485
0.0120409
0.000156194
0.0119493
0.000147655
0.0118493
0.000142566
0.0117435
0.000151822
0.00017383
0.00176672
-0.0146513
0.00308936
-0.0133497
0.00403728
-0.010886
0.0047764
-0.0086849
0.00537004
-0.00683913
0.00584786
-0.00527595
0.00623132
-0.00393866
0.00653339
-0.00277671
0.00676115
-0.0017572
0.0069202
-0.000868805
0.00704441
-0.00011439
0.00711513
0.000577292
0.00713149
0.00109298
0.007132
0.00137767
0.00713542
0.00146239
0.00714771
0.0013861
0.0071669
0.00119218
0.00718547
0.000930888
0.00719227
0.00065838
0.00717038
0.00043686
0.00708872
0.000327725
0.00694398
0.000303634
0.00673838
0.000341816
0.00648555
0.000398479
0.00620114
0.000440893
0.00589922
0.000458114
0.005589
0.000457871
0.00527524
0.000456324
0.00497107
0.000455994
0.000410085
0.00099432
-0.0156457
0.00143977
-0.0137951
0.00160804
-0.0110542
0.00168873
-0.00876559
0.0017172
-0.0068676
0.00171993
-0.00527868
0.001711
-0.00392973
0.00170091
-0.00276662
0.00170202
-0.00175831
0.00172708
-0.000893863
0.00170129
-8.86076e-05
0.00165633
0.000622259
0.0015882
0.00116111
0.00151178
0.00145408
0.00141792
0.00155625
0.00128319
0.00152083
0.00108209
0.00139329
0.000797678
0.0012153
0.000428747
0.00102731
-1.48759e-06
0.000867094
-0.000427733
0.000753971
-0.00084268
0.000718581
-0.00122914
0.000728277
-0.00158557
0.000754909
-0.00191363
0.000768952
-0.00221892
0.000763399
-0.00250842
0.000747379
-0.00278533
0.00073323
-0.00303761
0.00070828
0.000627324
3.98167e-05
-0.0156855
-0.000397538
-0.0133578
-0.00102988
-0.0104219
-0.00166774
-0.00812773
-0.0022827
-0.00625263
-0.00284386
-0.00471753
-0.00333653
-0.00343706
-0.00375832
-0.00234483
-0.00413422
-0.0013824
-0.0045183
-0.000509781
-0.00486568
0.000258763
-0.00511429
0.000870873
-0.00528201
0.00132883
-0.00546403
0.00163611
-0.00569435
0.00178657
-0.00598383
0.00181031
-0.00633121
0.00174067
-0.00672635
0.00161044
-0.0071536
0.00145456
-0.0075942
0.00130769
-0.00803555
0.00119533
-0.00845041
0.00113344
-0.00882612
0.00110399
-0.00915324
0.00108203
-0.00943238
0.00104809
-0.00966977
0.00100079
-0.00987497
0.00095258
-0.0100539
0.0009122
-0.010209
0.000863362
0.000798447
-0.000919495
-0.014766
-0.00236757
-0.0119097
-0.00385865
-0.00893082
-0.00530434
-0.00668204
-0.00663064
-0.00492632
-0.00781741
-0.00353076
-0.00885992
-0.00239455
-0.00976244
-0.00144231
-0.0105419
-0.000602942
-0.0111843
0.000132635
-0.0116393
0.00071371
-0.0119562
0.00118778
-0.0122131
0.00158581
-0.0124508
0.00187377
-0.0127051
0.00204086
-0.0129916
0.0020968
-0.0133111
0.00206015
-0.0136577
0.00195709
-0.0140243
0.00182111
-0.0144031
0.00168657
-0.0147856
0.00157776
-0.0151535
0.00150141
-0.0154899
0.00144033
-0.0157796
0.00137175
-0.0160161
0.00128455
-0.0162031
0.00118784
-0.0163518
0.00110124
-0.0164736
0.00103404
-0.0165853
0.000975054
0.000931625
-0.00204046
-0.0127255
-0.00450759
-0.00944256
-0.00695868
-0.00647973
-0.00922705
-0.00441367
-0.0112298
-0.0029236
-0.0129528
-0.00180774
-0.0144128
-0.000934527
-0.0156298
-0.000225331
-0.0165782
0.000345493
-0.017253
0.000807447
-0.0177472
0.00120783
-0.0181345
0.0015751
-0.0184378
0.0018891
-0.0186936
0.00212957
-0.0189374
0.00228472
-0.0191914
0.0023508
-0.0194635
0.00233222
-0.019753
0.00224662
-0.0200574
0.0021255
-0.0203747
0.00200384
-0.0207008
0.00190388
-0.0210239
0.00182453
-0.0213264
0.00174277
-0.0215886
0.00163399
-0.0217977
0.00149365
-0.0219538
0.00134394
-0.0220688
0.00121624
-0.0221594
0.00112458
-0.022247
0.00106268
0.00103699
-0.00337608
-0.00934943
-0.00701179
-0.00580685
-0.010469
-0.00302247
-0.0135109
-0.00137181
-0.0160859
-0.00034864
-0.0181722
0.000278589
-0.0197879
0.00068122
-0.0209906
0.000977361
-0.0218837
0.00123859
-0.0225747
0.00149848
-0.0231232
0.00175627
-0.0235485
0.00200043
-0.0238754
0.00221595
-0.024138
0.00239225
-0.0243728
0.00251944
-0.0246053
0.00258334
-0.024846
0.00257294
-0.025095
0.0024956
-0.0253515
0.00238199
-0.0256186
0.00227094
-0.0258993
0.00218453
-0.0261879
0.00211317
-0.0264674
0.00202225
-0.026713
0.00187959
-0.0269044
0.00168503
-0.0270376
0.00147721
-0.027127
0.00130562
-0.0271949
0.00119251
-0.0272636
0.0011314
0.00111896
-0.00519933
-0.00415011
-0.0106811
-0.000325072
-0.0150968
0.0013932
-0.0185132
0.00204464
-0.0210747
0.00221287
-0.0229989
0.00220279
-0.0244835
0.00216575
-0.0256509
0.0021448
-0.0265702
0.00215792
-0.0272927
0.00222094
-0.0278603
0.00232392
-0.0282992
0.00243931
-0.0286321
0.00254881
-0.0288918
0.00265194
-0.0291173
0.00274498
-0.0293375
0.00280347
-0.0295609
0.00279637
-0.0297832
0.00271791
-0.0300024
0.00260119
-0.0302273
0.00249584
-0.0304705
0.00242775
-0.0307342
0.00237684
-0.0310014
0.00228947
-0.0312401
0.00211831
-0.0314199
0.00186482
-0.0315321
0.00158945
-0.031596
0.00136948
-0.0316422
0.00123876
-0.0316931
0.00118227
0.00117993
-0.00795287
0.00380276
-0.0144534
0.00617545
-0.0191347
0.00607447
-0.0226151
0.00552512
-0.0252342
0.00483196
-0.0272135
0.00418201
-0.0287276
0.00367992
-0.0298969
0.00331409
-0.0307991
0.00306013
-0.0315002
0.00292201
-0.0320532
0.00287693
-0.0324837
0.00286985
-0.0328051
0.00287022
-0.0330472
0.00289399
-0.0332562
0.00295401
-0.0334668
0.00301403
-0.0336826
0.00301221
-0.0338879
0.00292324
-0.0340751
0.0027883
-0.0342597
0.00268045
-0.0344687
0.00263673
-0.0347146
0.00262278
-0.0349802
0.00255506
-0.0352223
0.00236044
-0.0353957
0.00203824
-0.0354851
0.00167881
-0.0355182
0.00140255
-0.0355396
0.00126019
-0.0355729
0.00121559
0.00122198
-0.0100284
0.0138312
-0.0177724
0.0139194
-0.023143
0.011445
-0.0268365
0.00921868
-0.0294556
0.00745103
-0.0313305
0.00605697
-0.0327304
0.00507979
-0.0338103
0.00439398
-0.0346277
0.00387759
-0.0352521
0.00354635
-0.0357557
0.00338057
-0.0361605
0.00327463
-0.0364547
0.00316443
-0.0366591
0.00309832
-0.0368366
0.0031316
-0.0370364
0.00321374
-0.0372536
0.00322943
-0.0374503
0.00311993
-0.0376055
0.00294357
-0.0377445
0.00281943
-0.0379166
0.00280886
-0.0381501
0.0028562
-0.0384258
0.00283077
-0.0386839
0.00261854
-0.0388568
0.00221112
-0.0389182
0.00174029
-0.0389097
0.00139398
-0.0388998
0.00125029
-0.0389168
0.00123265
0.0012486
-0.0132912
0.0271224
-0.0228857
0.023514
-0.0283007
0.01686
-0.0315754
0.0124934
-0.0338873
0.00976293
-0.0354053
0.00757491
-0.0364995
0.00617403
-0.037398
0.00529249
-0.0380705
0.00455005
-0.0385588
0.00403471
-0.038979
0.00380068
-0.0393524
0.00364809
-0.0396092
0.0034212
-0.0397468
0.00323589
-0.0398663
0.00325111
-0.040051
0.00339845
-0.040283
0.00346142
-0.0404825
0.00331951
-0.040602
0.00306298
-0.0406804
0.00289784
-0.0408055
0.00293396
-0.0410298
0.00308053
-0.0413299
0.00313092
-0.0416207
0.0029093
-0.0418009
0.00239134
-0.0418258
0.00176521
-0.0417569
0.00132499
-0.0417046
0.00119799
-0.0417098
0.00123791
0.00126804
-0.0189159
0.0460382
-0.0305547
0.0351528
-0.0353133
0.0216186
-0.0369392
0.0141193
-0.0386064
0.0114302
-0.0393782
0.00834666
-0.0398851
0.00668088
-0.0405977
0.00600511
-0.0411429
0.00509526
-0.0414161
0.00430789
-0.0416943
0.00407891
-0.0420397
0.0039935
-0.042258
0.00363953
-0.0422888
0.00326664
-0.0423059
0.00326821
-0.0424728
0.00356536
-0.0427466
0.00373527
-0.0429703
0.00354312
-0.043044
0.00313676
-0.0430304
0.00288417
-0.0430854
0.00298899
-0.0433014
0.00329655
-0.0436439
0.00347342
-0.0439896
0.00325502
-0.0441882
0.00258989
-0.0441628
0.00173985
-0.044002
0.0011642
-0.0438884
0.00108434
-0.0438924
0.00124189
0.00130074
0.207447
0.00576042
0.207034
0.0111755
0.206432
0.0163505
0.205647
0.0213687
0.204688
0.0262949
0.203561
0.0311833
0.202271
0.0360815
0.200826
0.0410312
0.199229
0.0460694
0.197488
0.0512292
0.195607
0.056541
0.193592
0.0620329
0.191449
0.0677324
0.189182
0.0736669
0.186796
0.079865
0.184296
0.0863579
0.181684
0.0931816
0.178962
0.100379
0.17613
0.108004
0.173187
0.116126
0.170128
0.124836
0.166948
0.134259
0.163642
0.144565
0.160211
0.155999
0.156676
0.168913
0.153131
0.183837
0.149937
0.201566
0.148763
0.223014
0.160374
0.245674
0.258903
0.235662
0.21249
0.00595283
0.212118
0.0115483
0.211574
0.0168941
0.210868
0.0220746
0.210008
0.0271553
0.209
0.0321908
0.207853
0.0372285
0.206574
0.0423103
0.205171
0.047473
0.203651
0.0527493
0.202023
0.0581689
0.200296
0.0637598
0.19848
0.0695485
0.196585
0.0755616
0.194623
0.0818267
0.192607
0.0883739
0.190552
0.0952372
0.188474
0.102457
0.186394
0.110083
0.184343
0.118178
0.182359
0.12682
0.180503
0.136115
0.178873
0.146195
0.177642
0.15723
0.177129
0.169426
0.177987
0.182979
0.181627
0.197925
0.190645
0.213995
0.206046
0.230273
0.245844
0.219105
0.217658
0.00612276
0.217329
0.0118773
0.21685
0.0173727
0.21623
0.0226942
0.215478
0.0279076
0.214601
0.0330673
0.213609
0.0382206
0.212511
0.0434089
0.211315
0.0486683
0.210034
0.0540307
0.208678
0.0595251
0.20726
0.0651778
0.205794
0.0710141
0.204297
0.0770586
0.202787
0.0833366
0.201287
0.0898748
0.199821
0.0967029
0.198423
0.103855
0.197135
0.111372
0.196012
0.119301
0.195132
0.1277
0.194609
0.136638
0.194613
0.146191
0.195406
0.156438
0.197398
0.167434
0.201199
0.179178
0.207579
0.191546
0.2172
0.204374
0.22979
0.217683
0.228896
0.246738
0.222951
0.0062682
0.22267
0.0121585
0.222262
0.0177808
0.221736
0.0232205
0.2211
0.0285431
0.220365
0.0338028
0.219539
0.0390462
0.218634
0.0443138
0.217662
0.0496408
0.216634
0.0550579
0.215567
0.0605924
0.214476
0.0662688
0.21338
0.07211
0.212301
0.0781379
0.211264
0.0843738
0.210299
0.0908398
0.209443
0.097559
0.208741
0.104557
0.208253
0.11186
0.208054
0.119499
0.208247
0.127507
0.208973
0.135912
0.210424
0.14474
0.212863
0.153998
0.216638
0.163659
0.222169
0.173648
0.229905
0.18381
0.24042
0.193859
0.254633
0.203469
0.210389
0.273141
0.228374
0.0063873
0.228144
0.0123885
0.227812
0.0181133
0.227385
0.0236467
0.226875
0.0290538
0.22629
0.0343879
0.225641
0.0396946
0.224942
0.0450134
0.224205
0.050378
0.223445
0.0558173
0.222681
0.0613567
0.221931
0.0670182
0.22122
0.0728218
0.220572
0.0787854
0.22002
0.0849259
0.2196
0.0912593
0.219359
0.0978008
0.21935
0.104565
0.219644
0.111566
0.220329
0.118815
0.221517
0.126318
0.223354
0.134075
0.226024
0.14207
0.229759
0.150263
0.234838
0.15858
0.241591
0.166895
0.250397
0.175003
0.261704
0.182552
0.275987
0.189186
0.19382
0.292556
0.233929
0.00647838
0.233754
0.012564
0.233502
0.0183655
0.233182
0.023967
0.232803
0.0294325
0.232376
0.0348143
0.231914
0.0401568
0.23143
0.0454978
0.230938
0.0508693
0.230458
0.0562982
0.230007
0.0618073
0.229609
0.0674158
0.229291
0.0731402
0.229082
0.0789941
0.229019
0.0849892
0.229144
0.0911347
0.229507
0.0974377
0.230169
0.103902
0.231206
0.110529
0.232709
0.117312
0.234789
0.124239
0.237582
0.131282
0.241253
0.1384
0.245993
0.145523
0.252025
0.152549
0.25959
0.15933
0.268931
0.165662
0.280228
0.171254
0.293579
0.175835
0.178889
0.30851
0.23962
0.00653994
0.239502
0.012682
0.239334
0.0185332
0.239125
0.024176
0.238884
0.0296731
0.238623
0.0350753
0.238355
0.0404253
0.238094
0.0457592
0.237856
0.0511068
0.237662
0.0564928
0.237532
0.0619371
0.237492
0.067456
0.23757
0.0730618
0.2378
0.0787639
0.238221
0.0845683
0.238878
0.090478
0.239824
0.0964918
0.241122
0.102604
0.242846
0.108804
0.245085
0.115073
0.247942
0.121382
0.251535
0.127689
0.256001
0.133933
0.26149
0.140034
0.268158
0.145881
0.276155
0.151333
0.285602
0.156214
0.296547
0.16031
0.308977
0.163404
0.165229
0.322637
0.245448
0.00657072
0.24539
0.0127403
0.24531
0.018613
0.245217
0.0242695
0.245119
0.0297706
0.245029
0.0351652
0.24496
0.0404943
0.244928
0.0457918
0.244949
0.0510852
0.245045
0.0563967
0.245239
0.0617433
0.245558
0.0671378
0.24603
0.0725889
0.246693
0.0781014
0.247585
0.0836763
0.248753
0.0893102
0.250249
0.0949952
0.252136
0.100718
0.254482
0.106458
0.257368
0.112187
0.260884
0.117867
0.265126
0.123446
0.270201
0.128858
0.276216
0.13402
0.283269
0.138828
0.291443
0.143158
0.300786
0.146872
0.311286
0.14981
0.322877
0.151813
0.15275
0.335356
0.251418
0.0065697
0.251422
0.0127367
0.251432
0.0186023
0.251458
0.0242442
0.251507
0.0297212
0.251592
0.0350803
0.251726
0.0403601
0.251926
0.0455923
0.252209
0.0508021
0.252597
0.0560088
0.253113
0.0612267
0.253786
0.0664651
0.254646
0.0717293
0.255727
0.0770197
0.257071
0.0823328
0.258721
0.0876601
0.260728
0.092988
0.263149
0.098297
0.266046
0.103561
0.269488
0.108745
0.273548
0.113807
0.278302
0.118692
0.283826
0.123334
0.29019
0.127656
0.297449
0.131568
0.30564
0.134968
0.314763
0.137749
0.324772
0.1398
0.33557
0.141015
0.141335
0.346985
0.257532
0.00653614
0.257599
0.01267
0.257702
0.0184989
0.257849
0.0240977
0.258048
0.0295226
0.25831
0.0348182
0.258649
0.0400209
0.259081
0.0451599
0.259625
0.0502579
0.260303
0.0553316
0.261137
0.0603923
0.262156
0.0654465
0.263389
0.0704959
0.264871
0.0755375
0.26664
0.0805638
0.268738
0.0855624
0.27121
0.0905156
0.274107
0.0954
0.277483
0.100186
0.281392
0.104836
0.285891
0.109307
0.291037
0.113546
0.296879
0.117493
0.303456
0.121079
0.310793
0.12423
0.318893
0.126868
0.327729
0.128914
0.337236
0.130294
0.347309
0.130942
0.130837
0.357807
0.263794
0.00646956
0.263925
0.0125392
0.264122
0.0183019
0.264391
0.0238289
0.26474
0.0291737
0.265179
0.0343784
0.265723
0.039477
0.266387
0.0444961
0.267189
0.0494559
0.26815
0.0543706
0.269294
0.0592488
0.270646
0.0640943
0.272236
0.0689058
0.274096
0.0736777
0.27626
0.0783994
0.278767
0.0830556
0.281656
0.0876262
0.284971
0.0920858
0.288753
0.0964034
0.293047
0.100543
0.297893
0.104461
0.303327
0.108111
0.30938
0.11144
0.316068
0.114391
0.323392
0.116906
0.331333
0.118926
0.33985
0.120397
0.348872
0.121272
0.3583
0.121514
0.121123
0.368014
0.270207
0.0063698
0.270402
0.0123441
0.270693
0.0180109
0.271084
0.0234377
0.271583
0.028675
0.272199
0.0337622
0.272945
0.0387306
0.273837
0.0436046
0.274891
0.0484019
0.276127
0.0531342
0.277568
0.0578079
0.279238
0.0624243
0.281164
0.0669799
0.283375
0.0714668
0.285902
0.0758726
0.288777
0.0801804
0.292034
0.0843689
0.295707
0.0884124
0.29983
0.0922807
0.304433
0.0959394
0.309544
0.0993504
0.315183
0.102472
0.321363
0.10526
0.328084
0.10767
0.335333
0.109658
0.343077
0.111181
0.351269
0.112206
0.359837
0.112704
0.368694
0.112657
0.112079
0.377738
0.276774
0.00623694
0.277033
0.0120849
0.277417
0.0176265
0.27793
0.0229251
0.278577
0.0280281
0.279367
0.0329722
0.280311
0.0377861
0.281424
0.0424916
0.282722
0.0471043
0.284222
0.0516338
0.285946
0.0560842
0.287915
0.0604551
0.290154
0.0647414
0.292687
0.0689337
0.295541
0.0730185
0.298743
0.0769783
0.30232
0.0807921
0.306297
0.0844349
0.310699
0.0878789
0.315546
0.091093
0.320852
0.0940441
0.326627
0.0966974
0.332869
0.0990179
0.339568
0.100971
0.3467
0.102526
0.354228
0.103653
0.362101
0.104333
0.370252
0.104552
0.378605
0.104305
0.103609
0.387075
0.283498
0.00607138
0.283821
0.0117624
0.284297
0.0171499
0.284929
0.0222931
0.285721
0.0272361
0.286681
0.0320127
0.287818
0.0366492
0.289144
0.041165
0.290675
0.0455735
0.292426
0.0498824
0.294416
0.0540944
0.296664
0.0582075
0.29919
0.0622156
0.302015
0.0661084
0.305161
0.0698722
0.30865
0.07349
0.3125
0.0769417
0.316731
0.0802043
0.321357
0.0832528
0.326389
0.0860606
0.331833
0.0885999
0.337688
0.0908427
0.343944
0.0927622
0.350582
0.0943333
0.357573
0.0955344
0.364878
0.0963486
0.372446
0.0967649
0.380218
0.0967795
0.388127
0.0963959
0.0956344
0.396102
0.290384
0.00587376
0.290769
0.0113778
0.291335
0.0165833
0.292083
0.0215448
0.293016
0.0263032
0.29414
0.0308894
0.295462
0.0353273
0.296992
0.0396341
0.298744
0.0438214
0.300732
0.0478951
0.302969
0.0518568
0.305474
0.0557034
0.308261
0.0594283
0.311348
0.0630211
0.314752
0.0664685
0.318487
0.0697544
0.322569
0.0728605
0.327006
0.0757665
0.331808
0.0784508
0.336978
0.080891
0.342513
0.0830649
0.348405
0.084951
0.354638
0.0865293
0.361188
0.0877828
0.368024
0.0886979
0.375107
0.0892657
0.38239
0.0894824
0.389819
0.0893507
0.397336
0.0888786
0.0880875
0.404883
0.297435
0.00564493
0.297879
0.010933
0.298534
0.0159292
0.299394
0.0206839
0.300463
0.0252345
0.301744
0.0296091
0.303242
0.0338291
0.304966
0.0379099
0.306926
0.0418613
0.309133
0.045688
0.311599
0.0493905
0.314337
0.0529653
0.31736
0.0564056
0.32068
0.0597014
0.324308
0.0628403
0.328255
0.0658078
0.332527
0.0685876
0.337132
0.0711624
0.342068
0.073514
0.347335
0.0756247
0.352923
0.077477
0.358818
0.0790552
0.365002
0.0803453
0.371449
0.0813366
0.378125
0.0820218
0.384993
0.0823975
0.39201
0.0824653
0.399129
0.0822316
0.406301
0.0817071
0.0809128
0.413475
0.304654
0.00538597
0.305157
0.0104299
0.305895
0.015191
0.306864
0.019715
0.308063
0.0240359
0.309493
0.0281793
0.311158
0.0321642
0.313063
0.0360041
0.315217
0.0397073
0.317628
0.0432777
0.320303
0.046715
0.323253
0.0500156
0.326485
0.0531729
0.330009
0.0561776
0.333831
0.0590187
0.337956
0.0616833
0.342386
0.0641575
0.347121
0.066427
0.352158
0.0684773
0.357488
0.0702944
0.3631
0.0718655
0.368975
0.0731796
0.375093
0.0742278
0.381425
0.0750041
0.387941
0.0755057
0.394605
0.0757337
0.401378
0.0756926
0.408218
0.0753912
0.415084
0.0748415
0.0740631
0.421933
0.312046
0.00509809
0.312605
0.00987109
0.313424
0.0143723
0.314496
0.018643
0.315818
0.0227141
0.317389
0.0266082
0.31921
0.0303425
0.321285
0.0339287
0.323619
0.0373739
0.326216
0.0406811
0.329081
0.0438497
0.33222
0.0468761
0.335639
0.0497542
0.339341
0.052476
0.343328
0.0550315
0.347601
0.05741
0.352159
0.0596001
0.356995
0.0615901
0.362104
0.0633689
0.367472
0.064926
0.373085
0.0662526
0.378923
0.0673414
0.384964
0.0681875
0.391179
0.0687887
0.397539
0.0691454
0.404012
0.0692613
0.410561
0.0691432
0.417151
0.0688007
0.423747
0.0682464
0.0674982
0.430311
0.319615
0.00478261
0.320227
0.00925907
0.321122
0.013477
0.322292
0.0174734
0.32373
0.0212758
0.325434
0.0249046
0.327402
0.0283747
0.329634
0.0316963
0.332133
0.0348754
0.334899
0.0379145
0.337936
0.0408129
0.341245
0.0435671
0.344827
0.0461719
0.348683
0.0486201
0.352811
0.0509036
0.357208
0.0530135
0.361867
0.0549406
0.366781
0.0566759
0.371939
0.0582112
0.377326
0.0595392
0.382925
0.0606539
0.388714
0.0615515
0.394672
0.0622299
0.400771
0.0626895
0.406984
0.0629331
0.413279
0.062966
0.419626
0.0627961
0.425993
0.0624335
0.43235
0.0618902
0.0611826
0.438665
0.327365
0.0044409
0.328028
0.00859655
0.328995
0.0125091
0.330257
0.0162116
0.331805
0.0197283
0.333632
0.0230771
0.335736
0.026271
0.338113
0.0293189
0.340763
0.0322258
0.343684
0.0349937
0.346875
0.0376219
0.350335
0.0401074
0.354061
0.0424457
0.35805
0.0446309
0.362297
0.0466563
0.366796
0.0485149
0.371537
0.0501995
0.376509
0.0517035
0.381699
0.0530211
0.387091
0.0541476
0.392665
0.0550796
0.398401
0.0558154
0.404276
0.0563553
0.410264
0.0567015
0.416339
0.0568583
0.422473
0.0568318
0.428638
0.0566304
0.434808
0.0562639
0.440954