/*--------------------------------*- C++ -*----------------------------------*\
  =========                 |
  \\      /  F ield         | OpenFOAM: The Open Source CFD Toolbox
   \\    /   O peration     | Website:  https://openfoam.org
    \\  /    A nd           | Version:  dev
     \\/     M anipulation  |
\*---------------------------------------------------------------------------*/
FoamFile
{
    version     2.0;
    format      ascii;
    class       surfaceScalarField;
    location    "4.3";
    object      phi;
}
// * * * * * * * * * * * * * * * * * * * * * * * * * * * * * * * * * * * * * //

dimensions      [0 3 -1 0 0 0 0];

internalField   nonuniform List<scalar> 
5457
(
0.198418
0.00158236
0.19648
0.00193733
0.194192
0.00228803
0.191509
0.00268351
0.188428
0.0030811
0.184951
0.00347665
0.181073
0.00387844
0.176779
0.00429386
0.172051
0.00472805
0.166866
0.00518503
0.161197
0.0056683
0.155017
0.0061808
0.148292
0.00672472
0.140991
0.00730107
0.133082
0.00790923
0.124535
0.00854617
0.11533
0.00920561
0.105453
0.00987691
0.094909
0.0105438
0.0837257
0.0111833
0.0719612
0.0117645
0.059713
0.0122482
0.0471243
0.0125887
0.034384
0.0127403
0.0216888
0.0126952
0.00903843
0.0126503
-0.00291571
0.0119541
-0.00847204
0.00555633
-0.00804301
-0.00042903
-0.00804301
0.199928
0.00165419
0.199176
0.00268974
0.197965
0.00349891
0.196332
0.00431662
0.194272
0.00514107
0.191782
0.00596662
0.188855
0.0068053
0.185478
0.00767058
0.181634
0.0085728
0.177298
0.00952025
0.172446
0.0105202
0.167048
0.0115789
0.161072
0.0127012
0.154483
0.0138898
0.147248
0.015144
0.139335
0.016459
0.130718
0.0178233
0.121378
0.0192168
0.111313
0.0206084
0.100544
0.021953
0.0891193
0.0231888
0.0771318
0.0242358
0.0647258
0.0249947
0.0521182
0.0253479
0.0396577
0.0251558
0.0281072
0.0242008
0.0185965
0.0214649
0.00879851
0.0153543
0.00118414
0.00718533
-0.00685887
0.199781
0.00187361
0.199087
0.00338355
0.197946
0.00463979
0.196409
0.00585317
0.194483
0.00706712
0.192164
0.00828557
0.189447
0.00952262
0.186322
0.0107959
0.182774
0.0121206
0.178785
0.013509
0.174333
0.0149722
0.169392
0.0165198
0.163934
0.0181596
0.157927
0.0198967
0.151339
0.021732
0.144138
0.0236605
0.136292
0.0256685
0.127779
0.0277304
0.118582
0.0298051
0.108704
0.0318307
0.0981727
0.0337205
0.0870505
0.035358
0.0754538
0.0365914
0.0635765
0.0372251
0.0517344
0.0369978
0.0403989
0.0355364
0.0297403
0.0321234
0.019167
0.0259276
0.00959821
0.0167541
0.00273935
0.199703
0.00217052
0.199008
0.00407882
0.197887
0.00576027
0.196376
0.00736402
0.194488
0.00895516
0.192223
0.0105515
0.189575
0.0121702
0.186539
0.0138318
0.183105
0.0155549
0.179258
0.0173553
0.174984
0.019247
0.170261
0.0212422
0.16507
0.0233511
0.159386
0.0255807
0.153184
0.0279335
0.146439
0.0304054
0.139125
0.0329826
0.131218
0.0356375
0.122699
0.038324
0.113558
0.0409714
0.103802
0.0434773
0.0934592
0.0457005
0.0825979
0.0474527
0.071335
0.048488
0.0598429
0.04849
0.0483186
0.0470607
0.0368123
0.0436297
0.0251888
0.0375511
0.013336
0.0286069
0.0160753
0.199667
0.0025031
0.198964
0.00478206
0.197863
0.00686155
0.196381
0.00884564
0.194533
0.0108039
0.192318
0.012766
0.189734
0.0147539
0.186776
0.0167903
0.183434
0.0188964
0.179699
0.0210909
0.175556
0.0233897
0.170991
0.0258071
0.165987
0.0283546
0.160527
0.0310407
0.154592
0.0338688
0.148162
0.0368357
0.141216
0.0399282
0.133735
0.0431188
0.125698
0.0463607
0.117089
0.0495806
0.107896
0.0526706
0.0981169
0.0554795
0.0877669
0.0578026
0.0768808
0.0593741
0.0655106
0.0598601
0.0537096
0.0588617
0.0414553
0.055884
0.0285886
0.0504178
0.0148528
0.0423427
0.0309281
0.199653
0.00285029
0.198949
0.00548609
0.197871
0.00793945
0.196427
0.0102898
0.194627
0.0126038
0.192473
0.0149194
0.189964
0.0172634
0.187093
0.019661
0.183854
0.0221356
0.180237
0.024708
0.17623
0.0273961
0.171822
0.0302156
0.166997
0.0331792
0.161742
0.0362964
0.156039
0.0395715
0.149873
0.0430021
0.143225
0.0465762
0.136076
0.050268
0.128403
0.0540328
0.120184
0.0578
0.11139
0.0614649
0.101991
0.0648782
0.0919568
0.0678368
0.081256
0.070075
0.069856
0.0712601
0.0577184
0.0709993
0.0447619
0.0688406
0.03085
0.0643297
0.0158736
0.0573191
0.0468017
0.19965
0.00320022
0.198954
0.00618205
0.197905
0.00898904
0.196505
0.0116894
0.194763
0.014346
0.192681
0.0170014
0.190257
0.019687
0.187488
0.0224305
0.184366
0.0252575
0.180883
0.0281907
0.177029
0.0312499
0.172793
0.034452
0.168161
0.0378112
0.163119
0.0413378
0.157653
0.0450375
0.151746
0.0489094
0.145379
0.0529435
0.13853
0.0571172
0.131171
0.0613908
0.123271
0.0657007
0.114784
0.0699514
0.105657
0.0740059
0.0958188
0.0776746
0.0851882
0.0807056
0.0736701
0.0827782
0.0611631
0.0835063
0.0475565
0.0824471
0.0327595
0.0791267
0.0167833
0.0732953
0.063585
0.199655
0.00354556
0.198975
0.00686215
0.197959
0.0100048
0.19661
0.0130381
0.194934
0.016022
0.192934
0.0190019
0.190608
0.022013
0.187953
0.0250856
0.184963
0.0282474
0.181631
0.0315227
0.177947
0.0349331
0.173902
0.0384972
0.169483
0.0422305
0.164676
0.046145
0.159465
0.0502482
0.153833
0.0545415
0.147758
0.0590185
0.141213
0.0636617
0.134165
0.0684388
0.126569
0.0732972
0.118364
0.0781564
0.109471
0.0828986
0.0997886
0.0873573
0.0891894
0.0913048
0.0775271
0.0944405
0.0646492
0.0963842
0.0504189
0.0966774
0.0347692
0.0947764
0.0177904
0.0902741
0.0813754
0.199664
0.00388138
0.199006
0.00751993
0.19803
0.010981
0.196739
0.0143295
0.195137
0.0176239
0.193227
0.0209116
0.191009
0.0242308
0.188481
0.0276142
0.185637
0.0310913
0.182471
0.0346883
0.178976
0.0384284
0.175141
0.042332
0.170956
0.0464162
0.166405
0.0506952
0.161475
0.055179
0.156143
0.0598726
0.150387
0.0647745
0.144175
0.0698743
0.137464
0.0751501
0.130197
0.0805635
0.1223
0.0860539
0.113669
0.0915295
0.10417
0.0968556
0.0936362
0.101839
0.0818669
0.10621
0.0686515
0.1096
0.0538038
0.111525
0.0372379
0.111342
0.0190841
0.108428
0.10046
0.199677
0.00420415
0.199047
0.00815016
0.198116
0.0119123
0.196887
0.0155577
0.195367
0.0191448
0.193556
0.0227222
0.191456
0.0263305
0.189066
0.0300049
0.18638
0.0337764
0.183396
0.037673
0.180105
0.0417195
0.176499
0.045938
0.172567
0.0503477
0.168297
0.0549651
0.163673
0.0598036
0.158673
0.0648726
0.15327
0.0701768
0.14743
0.0757149
0.141102
0.0814774
0.134222
0.0874439
0.126698
0.0935779
0.118407
0.0998202
0.109186
0.106077
0.098822
0.112203
0.0870551
0.117977
0.0735924
0.123062
0.0581508
0.126967
0.0405537
0.128939
0.0209024
0.128079
0.121362
0.199693
0.00451122
0.199095
0.00874853
0.198213
0.0127939
0.197053
0.0167174
0.19562
0.0205781
0.193916
0.024426
0.191943
0.0283035
0.1897
0.0322477
0.187185
0.0362913
0.184395
0.0404638
0.181323
0.0447916
0.177962
0.0492983
0.174304
0.0540055
0.170337
0.0589322
0.166046
0.0640954
0.161408
0.0695097
0.156398
0.0751869
0.150978
0.0811357
0.145094
0.0873611
0.138675
0.0938627
0.131621
0.100632
0.123792
0.107649
0.114998
0.11487
0.104986
0.122216
0.0934221
0.12954
0.0799013
0.136583
0.063971
0.142897
0.0452374
0.147673
0.0236131
0.149703
0.144975
0.199711
0.00480052
0.199148
0.00931154
0.19832
0.0136215
0.197234
0.0178037
0.195894
0.0219183
0.194303
0.0260163
0.192465
0.0301419
0.190379
0.0343338
0.188044
0.038626
0.185459
0.0430493
0.182619
0.0476315
0.179519
0.0523979
0.176153
0.057372
0.172509
0.0625756
0.168576
0.0680292
0.164333
0.0737527
0.159754
0.0797651
0.154804
0.0860858
0.149431
0.0927345
0.143561
0.0997321
0.137093
0.107101
0.129881
0.114862
0.121719
0.123033
0.112318
0.131617
0.101277
0.140581
0.0880495
0.149811
0.0719273
0.159019
0.05209
0.16751
0.027888
0.173906
0.172863
0.19973
0.00507045
0.199205
0.00983631
0.198435
0.0143915
0.197427
0.0188123
0.196185
0.0231603
0.194713
0.0274875
0.193016
0.0318393
0.191094
0.0362556
0.188948
0.0407718
0.186578
0.0454196
0.183982
0.050228
0.181156
0.0552236
0.178096
0.0604318
0.174795
0.0658766
0.171242
0.071582
0.167422
0.0775725
0.163313
0.083874
0.158884
0.0905156
0.154087
0.0975309
0.148859
0.104961
0.143103
0.112856
0.136682
0.121282
0.129396
0.130319
0.120946
0.140066
0.110888
0.150639
0.0985486
0.16215
0.0829072
0.174661
0.0624414
0.187976
0.0351288
0.201218
0.207992
0.199751
0.00531974
0.199266
0.0103206
0.198557
0.0151009
0.19763
0.0197398
0.19649
0.0243001
0.195142
0.0288348
0.193592
0.0333901
0.19184
0.0380071
0.18989
0.0427218
0.187743
0.0475668
0.185399
0.0525719
0.182858
0.0577649
0.180117
0.0631722
0.177174
0.0688199
0.174021
0.0747346
0.17065
0.0809444
0.167043
0.0874809
0.163177
0.0943808
0.159019
0.101689
0.154517
0.109463
0.149596
0.117778
0.144145
0.126733
0.137996
0.136468
0.13089
0.147172
0.122412
0.159117
0.111867
0.172694
0.0980257
0.188502
0.0785461
0.207456
0.0486714
0.231093
0.256663
0.199772
0.00554744
0.19933
0.0107625
0.198684
0.0157473
0.19784
0.0205834
0.196806
0.0253345
0.195586
0.0300544
0.194186
0.0347902
0.19261
0.0395833
0.190861
0.0444705
0.188943
0.0494848
0.186859
0.0546564
0.18461
0.0600136
0.182199
0.0655837
0.179625
0.0713938
0.176887
0.0774721
0.173982
0.0838493
0.170903
0.0905602
0.167637
0.0976466
0.164166
0.10516
0.16046
0.113169
0.156476
0.121762
0.152147
0.131062
0.147375
0.141241
0.141999
0.152548
0.135757
0.165359
0.128179
0.180273
0.118323
0.198358
0.103938
0.221841
0.0777067
0.257324
0.33437
0.00388438
-0.00388438
0.0076059
-0.00372152
0.0107166
-0.00311067
0.0132205
-0.00250391
0.0152181
-0.00199765
0.0168125
-0.00159437
0.0180917
-0.00127915
0.0191289
-0.00103727
0.0199844
-0.000855499
0.0207065
-0.000722067
0.0213332
-0.000626685
0.0218934
-0.000560189
0.0224073
-0.000513907
0.0228865
-0.000479267
0.0233344
-0.000447907
0.0237468
-0.000412406
0.0241144
-0.000367563
0.0244261
-0.000311679
0.0246727
-0.00024664
0.0248485
-0.00017578
0.0249493
-0.000100778
0.0249727
-2.34213e-05
0.0249082
6.447e-05
0.0247543
0.000153958
0.0245204
0.000233843
0.0242365
0.000283966
0.0239454
0.000291104
0.0236939
0.000251507
0.0235196
0.000174289
5.73857e-05
0.00350109
-0.00738547
0.00690466
-0.00712508
0.00980354
-0.00600955
0.0122013
-0.00490165
0.0141909
-0.00398723
0.0158617
-0.00326516
0.0172862
-0.00270366
0.0185221
-0.00227319
0.0196153
-0.00194869
0.020602
-0.00170881
0.0215107
-0.00153542
0.0223633
-0.00141275
0.0231757
-0.00132627
0.0239584
-0.00126196
0.0247167
-0.0012062
0.0254509
-0.00114665
0.0261574
-0.0010741
0.0268307
-0.000984901
0.0274661
-0.000882087
0.0280628
-0.000772485
0.0286217
-0.000659646
0.0291358
-0.000537518
0.0295947
-0.000394455
0.0299855
-0.000236852
0.0303041
-8.47134e-05
0.0305612
2.68128e-05
0.0307857
6.66372e-05
0.0310109
2.62718e-05
0.0312541
-6.8886e-05
-0.000148998
0.00287689
-0.0102624
0.00557798
-0.00982617
0.00783231
-0.00826387
0.00968015
-0.0067495
0.0112127
-0.00551976
0.0125052
-0.00455771
0.0136144
-0.00381281
0.0145827
-0.0032415
0.0154432
-0.00280916
0.016222
-0.00248764
0.01694
-0.00225345
0.0176136
-0.00208627
0.0182548
-0.00196751
0.0188723
-0.00187945
0.019471
-0.00180489
0.0200521
-0.00172774
0.0206132
-0.00163524
0.0211497
-0.00152137
0.0216573
-0.00138971
0.0221363
-0.00125145
0.022592
-0.00111543
0.0230315
-0.000976958
0.0234571
-0.000820082
0.0238604
-0.000640153
0.0242305
-0.000454777
0.0245509
-0.000293578
0.0248039
-0.000186444
0.0249962
-0.000166021
0.0251574
-0.000230032
-0.000277452
0.00219952
-0.0124619
0.00408046
-0.0117071
0.00556079
-0.0097442
0.00673736
-0.00792607
0.00769457
-0.00647697
0.0084921
-0.00535523
0.00916729
-0.00448801
0.00974597
-0.00382018
0.0102481
-0.00331128
0.0106899
-0.00292943
0.0110845
-0.00264812
0.0114427
-0.00244446
0.0117729
-0.00229772
0.012082
-0.00218847
0.012375
-0.00209795
0.0126554
-0.0020081
0.0129232
-0.00190311
0.0131748
-0.00177292
0.0134033
-0.00161821
0.0136045
-0.0014526
0.0137831
-0.00129404
0.0139522
-0.00114605
0.014121
-0.000988915
0.0142854
-0.00080451
0.0144241
-0.000593485
0.0144998
-0.000369353
0.0144685
-0.000155075
0.0143231
-2.06457e-05
0.0140777
1.53424e-05
-0.000140697
0.00142199
-0.0138839
0.00239975
-0.0126849
0.00303952
-0.010384
0.00347615
-0.00836271
0.00378097
-0.00678179
0.00399741
-0.00557167
0.00414448
-0.00463508
0.00423466
-0.00391036
0.00427883
-0.00335545
0.00428596
-0.00293655
0.00426331
-0.00262547
0.00421705
-0.0023982
0.00415262
-0.0022333
0.00407505
-0.0021109
0.0039896
-0.00201251
0.00390202
-0.00192051
0.00381688
-0.00181797
0.00373431
-0.00169035
0.00364546
-0.00152937
0.00352986
-0.001337
0.00336317
-0.00112736
0.00313454
-0.000917418
0.00286038
-0.000714753
0.00257562
-0.000519753
0.00231687
-0.000334728
0.00211601
-0.000168496
0.00196443
-3.49553e-06
0.00184938
9.44024e-05
0.00173883
0.000125895
-4.89561e-05
0.000530784
-0.0144147
0.00054578
-0.0126999
0.00029044
-0.0101286
-4.00702e-05
-0.0080322
-0.000439616
-0.00638224
-0.000875051
-0.00513624
-0.00133257
-0.00417756
-0.00179941
-0.00344352
-0.00226761
-0.00288724
-0.00273178
-0.00247239
-0.00318826
-0.00216899
-0.00363417
-0.00195229
-0.00406721
-0.00180025
-0.0044854
-0.00169271
-0.00488614
-0.00161177
-0.00526473
-0.00154192
-0.00561424
-0.00146846
-0.00592754
-0.00137705
-0.00620108
-0.00125583
-0.00643811
-0.00109997
-0.00665037
-0.000915104
-0.00685262
-0.00071517
-0.00705343
-0.000513938
-0.0072522
-0.000320984
-0.00744112
-0.000145808
-0.00761091
1.29199e-06
-0.00774883
0.000134427
-0.00786646
0.000212029
-0.0079385
0.000197932
5.4429e-05
-0.000470807
-0.0139439
-0.00144032
-0.0117304
-0.00255966
-0.00900928
-0.00372018
-0.00687168
-0.00486138
-0.00524105
-0.00596219
-0.00403543
-0.00699645
-0.0031433
-0.00795465
-0.00248532
-0.00883255
-0.00200935
-0.00963031
-0.00167462
-0.0103522
-0.00144711
-0.011005
-0.00129952
-0.0115963
-0.00120891
-0.0121334
-0.00115558
-0.0126222
-0.001123
-0.0130649
-0.00109917
-0.0134604
-0.00107299
-0.0138064
-0.00103108
-0.0141034
-0.000958766
-0.0143582
-0.000845232
-0.0145836
-0.000689719
-0.0147949
-0.000503807
-0.0150021
-0.000306767
-0.0152079
-0.000115162
-0.0154015
4.77991e-05
-0.0155736
0.000173343
-0.0157173
0.000278164
-0.0158444
0.000339076
-0.0159536
0.000307153
0.000187455
-0.00154676
-0.0123971
-0.00353099
-0.00974613
-0.00552871
-0.00701156
-0.0074666
-0.00493379
-0.00927021
-0.00343744
-0.0109042
-0.00240142
-0.0123506
-0.00169687
-0.0136167
-0.00121928
-0.0147192
-0.000906853
-0.0156796
-0.000714203
-0.0165199
-0.000606815
-0.0172598
-0.000559588
-0.0179161
-0.000552628
-0.0185021
-0.000569601
-0.0190295
-0.000595597
-0.0195046
-0.000624029
-0.0199284
-0.000649249
-0.0202998
-0.0006597
-0.0206207
-0.000637793
-0.0208992
-0.000566773
-0.0211482
-0.000440737
-0.0213811
-0.000270915
-0.0216074
-8.04105e-05
-0.0218209
9.83535e-05
-0.0220148
0.000241653
-0.0221956
0.000354104
-0.0223613
0.000443943
-0.0225123
0.000490072
-0.0226591
0.000453912
0.000360485
-0.002766
-0.00963109
-0.00585295
-0.00665918
-0.00873448
-0.00413003
-0.0113472
-0.00232111
-0.013646
-0.00113863
-0.0156475
-0.000399882
-0.017367
2.26404e-05
-0.0188104
0.00022416
-0.0200071
0.000289826
-0.0210104
0.00028903
-0.0218682
0.000251051
-0.0226169
0.000189065
-0.0232825
0.000112961
-0.0238826
3.05333e-05
-0.024429
-4.91544e-05
-0.024924
-0.000129072
-0.0253669
-0.000206375
-0.0257553
-0.000271238
-0.0260908
-0.000302305
-0.0263825
-0.00027507
-0.026647
-0.000176263
-0.0268996
-1.83053e-05
-0.0271403
0.000160268
-0.0273651
0.000323194
-0.0275782
0.00045472
-0.0277763
0.000552167
-0.0279544
0.000622083
-0.0281168
0.00065242
-0.0282806
0.00061777
0.000550765
-0.00431344
-0.00531766
-0.00892967
-0.00204295
-0.0130457
-1.40222e-05
-0.0163724
0.00100566
-0.0189966
0.00148556
-0.0210448
0.00164829
-0.0226575
0.00163537
-0.0239611
0.00152772
-0.0250489
0.0013776
-0.0259719
0.00121208
-0.0267678
0.00104693
-0.0274632
0.000884505
-0.0280767
0.000726438
-0.0286254
0.000579191
-0.0291238
0.000449311
-0.029584
0.00033108
-0.0300051
0.000214715
-0.030381
0.000104664
-0.0307101
2.68554e-05
-0.031
1.47958e-05
-0.0312649
8.85845e-05
-0.031515
0.000231846
-0.0317612
0.000406464
-0.0320064
0.000568406
-0.0322396
0.000687894
-0.0324505
0.000763127
-0.0326364
0.000807897
-0.0328064
0.000822459
-0.0329818
0.000793186
0.000749567
-0.00642401
0.00110635
-0.0120441
0.00357712
-0.0164064
0.00434827
-0.0197896
0.00438891
-0.0224589
0.00415478
-0.0245808
0.00377027
-0.0262829
0.00333746
-0.0276629
0.00290765
-0.0287941
0.00250883
-0.0297424
0.00216038
-0.0305592
0.00186371
-0.031276
0.00160132
-0.0319101
0.00136052
-0.0324773
0.00114641
-0.0329936
0.000965656
-0.0334683
0.000805787
-0.0338968
0.000643138
-0.0342662
0.000474154
-0.0345729
0.0003335
-0.0348332
0.000275081
-0.0350749
0.00033033
-0.0353234
0.00048034
-0.0355866
0.000669616
-0.0358541
0.000835909
-0.0361071
0.000940958
-0.0363305
0.000986475
-0.0365225
0.000999877
-0.0366978
0.000997842
-0.0368803
0.000975671
0.000953329
-0.00777457
0.00888093
-0.0141358
0.00993831
-0.0190289
0.00924144
-0.0227796
0.00813954
-0.0256274
0.00700262
-0.0278075
0.0059504
-0.0295126
0.0050425
-0.0308742
0.00426932
-0.0319766
0.00361119
-0.0328938
0.00307758
-0.0336897
0.00265959
-0.0343977
0.00230936
-0.0350268
0.00198958
-0.0355876
0.00170727
-0.0361019
0.00147993
-0.0365846
0.00128844
-0.0370263
0.00108491
-0.037402
0.000849827
-0.0376997
0.000631155
-0.0379411
0.000516554
-0.038169
0.000558212
-0.0384187
0.000729987
-0.0386986
0.000949508
-0.0389914
0.00112872
-0.0392676
0.00121718
-0.0395041
0.00122296
-0.0396998
0.00119563
-0.0398766
0.00117462
-0.0400617
0.00116081
0.0011586
-0.00932612
0.018207
-0.016972
0.0175842
-0.0223428
0.0146122
-0.0261313
0.0119281
-0.0288966
0.00976787
-0.0309376
0.00799145
-0.0325014
0.00660629
-0.033749
0.00551696
-0.0347494
0.00461153
-0.0355747
0.00390295
-0.036309
0.00339383
-0.0369879
0.00298824
-0.0375977
0.00259946
-0.0381353
0.00224486
-0.0386318
0.00197644
-0.0391156
0.00177219
-0.0395716
0.00154095
-0.0399524
0.00123062
-0.0402295
0.000908199
-0.0404327
0.000719738
-0.04063
0.000755507
-0.0408739
0.000973942
-0.0411728
0.0012484
-0.0414975
0.00145344
-0.0418026
0.00152228
-0.0420531
0.00147339
-0.042248
0.00139057
-0.04242
0.00134662
-0.0426032
0.00134405
0.00136225
-0.0122619
0.0304689
-0.0214654
0.0267878
-0.0267821
0.0199289
-0.0300251
0.0151711
-0.0323907
0.0121334
-0.0340491
0.00964986
-0.035286
0.00784318
-0.0363213
0.00655228
-0.0371559
0.00544619
-0.0378239
0.00457094
-0.038453
0.00402292
-0.0390924
0.00362763
-0.0396772
0.0031842
-0.0401707
0.00273845
-0.0406254
0.00243109
-0.0411018
0.00224862
-0.0415798
0.00201891
-0.0419717
0.00162259
-0.0422162
0.00115268
-0.0423545
0.00085803
-0.0424989
0.000899884
-0.0427309
0.00120592
-0.0430551
0.00157264
-0.0434229
0.00182124
-0.0437658
0.00186513
-0.044031
0.00173863
-0.0442173
0.00157683
-0.044375
0.00150436
-0.0445517
0.00152079
0.0015616
-0.0174062
0.0478751
-0.0285144
0.037896
-0.0330325
0.0244469
-0.0344941
0.0166327
-0.0361282
0.0137675
-0.0371067
0.0106283
-0.0377674
0.00850388
-0.0385478
0.00733272
-0.0392263
0.00612463
-0.0396579
0.00500255
-0.0401103
0.00447538
-0.0407105
0.00422785
-0.0412814
0.00375507
-0.0417099
0.00316693
-0.042088
0.00280923
-0.0425526
0.00271315
-0.0430785
0.00254486
-0.043505
0.00204908
-0.0437067
0.00135435
-0.0437376
0.000888963
-0.0437952
0.00095746
-0.0440087
0.00141943
-0.0443701
0.00193403
-0.044798
0.00224915
-0.0451915
0.00225865
-0.0454727
0.00201982
-0.0456376
0.00174171
-0.045766
0.00163279
-0.0459322
0.00168696
0.00175606
0.207447
0.00576021
0.207034
0.0111751
0.206432
0.0163499
0.205647
0.0213679
0.204688
0.0262938
0.203561
0.0311819
0.202271
0.0360797
0.200825
0.0410291
0.199229
0.0460668
0.197488
0.0512261
0.195607
0.0565372
0.193592
0.0620284
0.191449
0.0677271
0.189182
0.0736607
0.186796
0.0798576
0.184296
0.0863493
0.181685
0.0931716
0.178964
0.100367
0.176133
0.107991
0.173192
0.116111
0.170135
0.124818
0.166959
0.134238
0.163658
0.144542
0.160233
0.155972
0.156709
0.168883
0.153179
0.183803
0.15001
0.201527
0.14888
0.22297
0.160592
0.245612
0.258755
0.236207
0.21249
0.00595264
0.212118
0.0115479
0.211574
0.0168935
0.210868
0.0220738
0.210008
0.0271543
0.209
0.0321894
0.207853
0.0372269
0.206574
0.0423083
0.20517
0.0474705
0.20365
0.0527462
0.202022
0.0581653
0.200295
0.0637554
0.198479
0.0695432
0.196584
0.0755553
0.194623
0.0818193
0.192607
0.0883651
0.190552
0.0952268
0.188474
0.102445
0.186396
0.110069
0.184346
0.118161
0.182364
0.126801
0.180511
0.136091
0.178886
0.146167
0.177662
0.157197
0.177159
0.169386
0.178033
0.182929
0.1817
0.19786
0.190766
0.213904
0.206239
0.230139
0.245636
0.219359
0.217658
0.00612258
0.217329
0.0118769
0.21685
0.0173722
0.21623
0.0226935
0.215478
0.0279067
0.214601
0.0330661
0.213609
0.0382191
0.21251
0.043407
0.211315
0.0486659
0.210033
0.0540278
0.208677
0.0595215
0.207259
0.0651735
0.205793
0.0710089
0.204296
0.0770524
0.202786
0.0833292
0.201285
0.0898659
0.19982
0.0966923
0.198422
0.103843
0.197134
0.111357
0.196012
0.119283
0.195134
0.127678
0.194614
0.136612
0.194621
0.14616
0.195418
0.156399
0.197418
0.167386
0.201229
0.179117
0.207623
0.191466
0.217259
0.204268
0.229856
0.217542
0.228709
0.246783
0.222951
0.00626805
0.22267
0.0121583
0.222262
0.0177804
0.221735
0.0232199
0.2211
0.0285423
0.220364
0.0338017
0.219538
0.0390448
0.218633
0.0443121
0.217661
0.0496387
0.216633
0.0550553
0.215566
0.0605891
0.214474
0.0662648
0.213378
0.0721051
0.212299
0.0781319
0.211261
0.0843666
0.210296
0.0908311
0.20944
0.0975486
0.208738
0.104544
0.20825
0.111845
0.208051
0.119481
0.208245
0.127485
0.208972
0.135885
0.210424
0.144707
0.212866
0.153957
0.216644
0.163609
0.222176
0.173584
0.229913
0.183729
0.240424
0.193757
0.254627
0.20334
0.210223
0.273113
0.228374
0.00638718
0.228144
0.0123883
0.227812
0.018113
0.227385
0.0236462
0.226874
0.0290531
0.226289
0.034387
0.22564
0.0396935
0.224941
0.0450119
0.224203
0.0503761
0.223443
0.055815
0.222679
0.0613538
0.221929
0.0670146
0.221217
0.0728173
0.220569
0.0787799
0.220016
0.0849192
0.219596
0.0912511
0.219354
0.0977909
0.219345
0.104553
0.219638
0.111551
0.220323
0.118797
0.22151
0.126297
0.223347
0.134049
0.226016
0.142038
0.22975
0.150224
0.234827
0.158531
0.241577
0.166835
0.250377
0.174929
0.261673
0.182461
0.275938
0.189075
0.193686
0.292475
0.233929
0.0064783
0.233754
0.0125638
0.233502
0.0183652
0.233181
0.0239666
0.232802
0.029432
0.232376
0.0348137
0.231913
0.0401559
0.231428
0.0454967
0.230937
0.0508678
0.230456
0.0562963
0.230004
0.0618048
0.229606
0.0674127
0.229287
0.0731363
0.229078
0.0789893
0.229014
0.0849832
0.229138
0.0911273
0.2295
0.0974287
0.230162
0.103891
0.231198
0.110515
0.232699
0.117296
0.234777
0.124218
0.237568
0.131258
0.241236
0.13837
0.245974
0.145487
0.252
0.152505
0.259557
0.159277
0.268888
0.165599
0.280169
0.17118
0.293497
0.175747
0.178789
0.308393
0.23962
0.0065399
0.239502
0.012682
0.239334
0.0185331
0.239125
0.0241758
0.238884
0.0296728
0.238623
0.0350748
0.238354
0.0404247
0.238092
0.0457584
0.237854
0.0511057
0.237659
0.0564913
0.237529
0.0619352
0.237488
0.0674535
0.237566
0.0730586
0.237795
0.0787599
0.238215
0.0845633
0.238871
0.0904717
0.239815
0.096484
0.241112
0.102595
0.242835
0.108793
0.245071
0.115059
0.247925
0.121365
0.251515
0.127668
0.255977
0.133908
0.26146
0.140004
0.26812
0.145845
0.276108
0.15129
0.285542
0.156165
0.296467
0.160254
0.308874
0.163341
0.165161
0.322502
0.245448
0.00657072
0.24539
0.0127403
0.24531
0.018613
0.245216
0.0242695
0.245119
0.0297705
0.245028
0.0351651
0.244959
0.040494
0.244926
0.0457914
0.244947
0.0510846
0.245043
0.0563958
0.245236
0.061742
0.245553
0.0671361
0.246025
0.0725866
0.246687
0.0780984
0.247578
0.0836725
0.248744
0.0893054
0.250239
0.0949891
0.252123
0.10071
0.254468
0.106449
0.257351
0.112176
0.260862
0.117853
0.265101
0.123429
0.27017
0.128838
0.276177
0.133996
0.283222
0.1388
0.291385
0.143127
0.300713
0.146837
0.311194
0.149772
0.322763
0.151773
0.152709
0.335214
0.251418
0.00656975
0.251422
0.0127368
0.251432
0.0186024
0.251457
0.0242443
0.251506
0.0297214
0.251591
0.0350804
0.251725
0.0403602
0.251924
0.0455924
0.252207
0.050802
0.252594
0.0560086
0.25311
0.0612262
0.253781
0.0664643
0.25464
0.0717281
0.25572
0.077018
0.257062
0.0823305
0.258711
0.087657
0.260716
0.092984
0.263134
0.0982918
0.266028
0.103554
0.269467
0.108737
0.273523
0.113797
0.278272
0.11868
0.28379
0.123321
0.290145
0.127641
0.297396
0.13155
0.305574
0.134949
0.314683
0.137729
0.324675
0.139779
0.335453
0.140995
0.141318
0.346844
0.257532
0.00653625
0.257599
0.0126702
0.257702
0.0184992
0.257848
0.0240981
0.258047
0.029523
0.258308
0.0348187
0.258647
0.0400214
0.259079
0.0451604
0.259623
0.0502584
0.260299
0.0553321
0.261133
0.0603927
0.26215
0.0654467
0.263383
0.0704958
0.264864
0.0755371
0.266631
0.0805631
0.268727
0.0855612
0.271197
0.0905138
0.274091
0.0953975
0.277463
0.100182
0.281368
0.104832
0.285864
0.109302
0.291004
0.11354
0.296838
0.117486
0.303408
0.121071
0.310736
0.124222
0.318824
0.12686
0.327646
0.128907
0.337138
0.130288
0.347194
0.130939
0.13084
0.357672
0.263794
0.00646973
0.263925
0.0125396
0.264122
0.0183024
0.26439
0.0238295
0.264739
0.0291744
0.265178
0.0343793
0.265722
0.0394779
0.266385
0.0444971
0.267186
0.0494571
0.268147
0.0543718
0.269289
0.0592501
0.27064
0.0640955
0.272229
0.068907
0.274087
0.0736788
0.27625
0.0784004
0.278755
0.0830565
0.281642
0.0876269
0.284953
0.0920862
0.288732
0.0964036
0.293022
0.100543
0.297863
0.104461
0.303292
0.108111
0.309338
0.11144
0.316017
0.114392
0.323332
0.116907
0.331264
0.118929
0.339768
0.120402
0.348777
0.12128
0.35819
0.121526
0.121141
0.367889
0.270207
0.00637002
0.270402
0.0123446
0.270693
0.0180116
0.271084
0.0234385
0.271582
0.028676
0.272198
0.0337634
0.272944
0.0387321
0.273835
0.0436063
0.274888
0.0484038
0.276123
0.0531363
0.277563
0.0578101
0.279232
0.0624267
0.281157
0.0669824
0.283366
0.0714695
0.285891
0.0758755
0.288764
0.0801835
0.292019
0.0843722
0.295689
0.0884158
0.299808
0.0922844
0.304407
0.0959435
0.309513
0.099355
0.315147
0.102477
0.32132
0.105267
0.328034
0.107678
0.335274
0.109667
0.343009
0.111193
0.35119
0.112221
0.359747
0.112723
0.368592
0.112682
0.112109
0.377624
0.276774
0.00623722
0.277033
0.0120855
0.277417
0.0176273
0.277929
0.0229262
0.278576
0.0280294
0.279365
0.0329738
0.28031
0.037788
0.281422
0.0424938
0.282719
0.0471069
0.284219
0.0516366
0.285941
0.0560874
0.287909
0.0604587
0.290146
0.0647453
0.292678
0.068938
0.29553
0.0730232
0.29873
0.0769835
0.302304
0.0807978
0.306279
0.0844413
0.310677
0.087886
0.31552
0.091101
0.320822
0.0940532
0.326591
0.096708
0.332827
0.0990301
0.33952
0.100986
0.346645
0.102542
0.354165
0.103673
0.362028
0.104357
0.370171
0.10458
0.378514
0.104339
0.103649
0.386974
0.283498
0.00607172
0.283821
0.0117631
0.284297
0.0171509
0.284929
0.0222945
0.28572
0.0272378
0.286679
0.0320147
0.287816
0.0366515
0.289142
0.0411677
0.290672
0.0455767
0.292423
0.049886
0.294412
0.0540985
0.296658
0.0582122
0.299183
0.0622208
0.302006
0.0661142
0.305151
0.0698788
0.308637
0.0734974
0.312485
0.0769499
0.316713
0.0802135
0.321336
0.0832632
0.326364
0.0860724
0.331804
0.0886132
0.337654
0.090858
0.343905
0.0927796
0.350537
0.0943534
0.357522
0.0955576
0.36482
0.0963755
0.372381
0.096796
0.380146
0.0968154
0.388047
0.0964372
0.0956819
0.396015
0.290384
0.00587415
0.290768
0.0113786
0.291335
0.0165844
0.292083
0.0215464
0.293016
0.0263051
0.294138
0.0308918
0.29546
0.0353301
0.29699
0.0396374
0.298742
0.0438252
0.300728
0.0478995
0.302965
0.0518618
0.305468
0.0557091
0.308254
0.0594347
0.31134
0.0630284
0.314742
0.0664767
0.318475
0.0697637
0.322554
0.072871
0.326989
0.0757783
0.331789
0.0784641
0.336955
0.0809061
0.342486
0.083082
0.348374
0.0849703
0.354602
0.0865513
0.361148
0.0878078
0.367979
0.0887263
0.375057
0.0892979
0.382334
0.0895191
0.389757
0.0893922
0.397269
0.0889254
0.0881402
0.40481
0.297435
0.00564538
0.297879
0.0109338
0.298533
0.0159305
0.299394
0.0206857
0.300462
0.0252367
0.301742
0.0296118
0.30324
0.0338324
0.304964
0.0379137
0.306923
0.0418657
0.30913
0.0456931
0.311595
0.0493964
0.314332
0.052972
0.317354
0.0564132
0.320672
0.0597101
0.324299
0.0628501
0.328244
0.0658189
0.332514
0.0686001
0.337116
0.0711764
0.342051
0.0735299
0.347314
0.0756426
0.352899
0.0774972
0.358791
0.0790779
0.364972
0.0803709
0.371414
0.0813654
0.378086
0.0820542
0.38495
0.0824339
0.391963
0.082506
0.399078
0.082277
0.406246
0.0817577
0.0809688
0.413418
0.304654
0.00538646
0.305157
0.0104309
0.305895
0.0151925
0.306864
0.0197169
0.308062
0.0240384
0.309492
0.0281823
0.311156
0.0321678
0.313062
0.0360083
0.315215
0.0397123
0.317625
0.0432835
0.320299
0.0467217
0.323248
0.0500232
0.32648
0.0531815
0.330003
0.0561874
0.333823
0.0590298
0.337946
0.0616958
0.342374
0.0641717
0.347108
0.066443
0.352143
0.0684952
0.357471
0.0703146
0.36308
0.0718882
0.368952
0.0732049
0.375067
0.0742561
0.381397
0.0750357
0.38791
0.075541
0.394571
0.0757729
0.401341
0.075736
0.408179
0.0754391
0.415043
0.0748942
0.0741209
0.42189
0.312046
0.00509862
0.312605
0.00987213
0.313423
0.0143738
0.314495
0.0186451
0.315817
0.0227167
0.317388
0.0266115
0.319209
0.0303464
0.321284
0.0339334
0.323617
0.0373793
0.326213
0.0406874
0.329078
0.0438569
0.332217
0.0468844
0.335634
0.0497637
0.339335
0.0524867
0.343321
0.0550437
0.347593
0.0574238
0.35215
0.0596156
0.356985
0.0616075
0.362092
0.0633884
0.367458
0.0649479
0.37307
0.066277
0.378906
0.0673686
0.384944
0.0682178
0.391158
0.0688222
0.397516
0.0691825
0.403987
0.0693022
0.410535
0.0691881
0.417124
0.0688498
0.423718
0.0682999
0.0675563
0.430283
0.319615
0.00478316
0.320227
0.00926016
0.321122
0.0134786
0.322292
0.0174756
0.32373
0.0212786
0.325433
0.0249081
0.327401
0.0283788
0.329633
0.0317012
0.332131
0.0348812
0.334897
0.0379212
0.337934
0.0408205
0.341242
0.0435759
0.344824
0.0461819
0.348679
0.0486315
0.352806
0.0509165
0.357202
0.0530281
0.361861
0.054957
0.366774
0.0566943
0.37193
0.0582318
0.377316
0.0595621
0.382914
0.0606794
0.388703
0.0615798
0.394659
0.0622611
0.400758
0.0627239
0.406969
0.0629709
0.413264
0.0630075
0.419611
0.0628413
0.425978
0.0624826
0.432335
0.0619433
0.0612398
0.438651
0.327365
0.00444147
0.328027
0.00859767
0.328995
0.0125108
0.330257
0.0162139
0.331804
0.0197312
0.333632
0.0230807
0.335735
0.0262753
0.338113
0.0293239
0.340762
0.0322317
0.343683
0.0350006
0.346873
0.0376298
0.350333
0.0401165
0.354059
0.0424561
0.358047
0.0446427
0.362294
0.0466697
0.366792
0.0485299
0.371533
0.0502163
0.376505