/*--------------------------------*- C++ -*----------------------------------*\
  =========                 |
  \\      /  F ield         | OpenFOAM: The Open Source CFD Toolbox
   \\    /   O peration     | Website:  https://openfoam.org
    \\  /    A nd           | Version:  dev
     \\/     M anipulation  |
\*---------------------------------------------------------------------------*/
FoamFile
{
    version     2.0;
    format      ascii;
    class       volVectorField;
    location    "4.3";
    object      U;
}
// * * * * * * * * * * * * * * * * * * * * * * * * * * * * * * * * * * * * * //

dimensions      [0 1 -1 0 0 0 0];

internalField   nonuniform List<vector> 
2790
(
(9.94399 0 0.0205231)
(9.87572 0 0.0295876)
(9.77521 0 0.0359893)
(9.64944 0 0.0425559)
(9.50409 0 0.0493851)
(9.34007 0 0.0564279)
(9.15655 0 0.0638153)
(8.95264 0 0.071711)
(8.72748 0 0.0802545)
(8.4801 0 0.0895728)
(8.2093 0 0.0997927)
(7.91367 0 0.111045)
(7.59172 0 0.12346)
(7.24182 0 0.137164)
(6.86237 0 0.152273)
(6.45184 0 0.168871)
(6.00893 0 0.186998)
(5.53274 0 0.20662)
(5.02303 0 0.227592)
(4.48051 0 0.249613)
(3.90722 0 0.272179)
(3.3069 0 0.294528)
(2.68536 0 0.315623)
(2.05069 0 0.334293)
(1.41187 0 0.350611)
(0.7981 0 0.372888)
(0.110802 0 0.325096)
(-0.469559 0 -0.114844)
(-0.453767 0 -0.297169)
(-0.231163 0 -0.423864)
(9.9985 0 0.0407028)
(9.98145 0 0.0623824)
(9.93575 0 0.0791395)
(9.86417 0 0.0966239)
(9.77098 0 0.115123)
(9.65716 0 0.134487)
(9.52207 0 0.154973)
(9.36487 0 0.176941)
(9.18473 0 0.200705)
(8.98069 0 0.226547)
(8.75155 0 0.254741)
(8.49591 0 0.285558)
(8.21224 0 0.319247)
(7.89886 0 0.35602)
(7.55409 0 0.396018)
(7.17625 0 0.439262)
(6.76384 0 0.485592)
(6.31573 0 0.534587)
(5.83132 0 0.585463)
(5.31096 0 0.636956)
(4.75623 0 0.687207)
(4.1705 0 0.733652)
(3.55938 0 0.77296)
(2.93164 0 0.801102)
(2.30004 0 0.813761)
(1.69303 0 0.807268)
(1.10723 0 0.747278)
(0.658944 0 0.547962)
(0.18653 0 0.224662)
(-0.00819992 0 -0.45371)
(9.99559 0 0.0432066)
(9.97556 0 0.075271)
(9.9318 0 0.103345)
(9.8649 0 0.132369)
(9.77778 0 0.163057)
(9.67155 0 0.195396)
(9.54589 0 0.229739)
(9.40015 0 0.266599)
(9.23367 0 0.306466)
(9.04565 0 0.349802)
(8.83511 0 0.397066)
(8.60084 0 0.448716)
(8.34148 0 0.505186)
(8.05554 0 0.566857)
(7.74142 0 0.634004)
(7.39749 0 0.706724)
(7.02216 0 0.78483)
(6.61402 0 0.867717)
(6.17201 0 0.954189)
(5.69571 0 1.04225)
(5.18571 0 1.12888)
(4.64405 0 1.20979)
(4.07488 0 1.27916)
(3.48546 0 1.32934)
(2.88693 0 1.35011)
(2.29955 0 1.32645)
(1.73192 0 1.22081)
(1.21631 0 0.973052)
(0.701185 0 0.5702)
(0.358065 0 -0.156484)
(9.99403 0 0.0494988)
(9.97181 0 0.0932054)
(9.92788 0 0.133571)
(9.86225 0 0.174207)
(9.77694 0 0.216431)
(9.67299 0 0.260658)
(9.55032 0 0.307425)
(9.4085 0 0.35741)
(9.24704 0 0.411284)
(9.06535 0 0.469698)
(8.8627 0 0.533294)
(8.63822 0 0.602714)
(8.39088 0 0.678582)
(8.11955 0 0.761463)
(7.82304 0 0.851808)
(7.50006 0 0.949861)
(7.1493 0 1.05553)
(6.7695 0 1.16823)
(6.35956 0 1.28659)
(5.91867 0 1.40825)
(5.44661 0 1.52946)
(4.94409 0 1.64468)
(4.41326 0 1.74615)
(3.85836 0 1.82323)
(3.28591 0 1.86139)
(2.70648 0 1.84036)
(2.12572 0 1.72606)
(1.55431 0 1.47793)
(0.957984 0 1.08377)
(0.509437 0 0.502404)
(9.99331 0 0.0572131)
(9.96994 0 0.110958)
(9.92593 0 0.162102)
(9.86146 0 0.213345)
(9.77799 0 0.266353)
(9.67635 0 0.32191)
(9.55655 0 0.380696)
(9.41822 0 0.443482)
(9.26098 0 0.511048)
(9.08435 0 0.584161)
(8.88772 0 0.663576)
(8.67041 0 0.75005)
(8.43162 0 0.84432)
(8.17049 0 0.947067)
(7.88611 0 1.05886)
(7.57752 0 1.18005)
(7.24371 0 1.31066)
(6.88366 0 1.45016)
(6.49635 0 1.5972)
(6.0808 0 1.74931)
(5.63624 0 1.9024)
(5.1622 0 2.05031)
(4.65886 0 2.18417)
(4.1273 0 2.29175)
(3.56949 0 2.35659)
(2.98897 0 2.35736)
(2.3869 0 2.26502)
(1.76645 0 2.04772)
(1.09003 0 1.6915)
(0.536667 0 1.15425)
(9.99302 0 0.065538)
(9.96923 0 0.1287)
(9.92556 0 0.190111)
(9.86253 0 0.25184)
(9.78129 0 0.315574)
(9.68245 0 0.382314)
(9.56601 0 0.452868)
(9.43172 0 0.528093)
(9.27921 0 0.60887)
(9.10807 0 0.696073)
(8.91779 0 0.790565)
(8.70776 0 0.893208)
(8.47731 0 1.00484)
(8.2257 0 1.12624)
(7.95218 0 1.25807)
(7.65593 0 1.40079)
(7.33608 0 1.55451)
(6.99169 0 1.71883)
(6.62175 0 1.89252)
(6.22508 0 2.0732)
(5.80036 0 2.25683)
(5.34613 0 2.43719)
(4.8608 0 2.60519)
(4.34279 0 2.74823)
(3.79049 0 2.84957)
(3.20266 0 2.88825)
(2.57665 0 2.8383)
(1.91353 0 2.67171)
(1.17279 0 2.37412)
(0.549984 0 1.89453)
(9.99297 0 0.0740741)
(9.96927 0 0.146312)
(9.92637 0 0.217481)
(9.86509 0 0.289289)
(9.78643 0 0.363351)
(9.69085 0 0.440821)
(9.57835 0 0.522653)
(9.44872 0 0.609802)
(9.30166 0 0.703244)
(9.13679 0 0.803951)
(8.95366 0 0.912884)
(8.75172 0 1.03099)
(8.53036 0 1.1592)
(8.2889 0 1.29837)
(8.02662 0 1.44927)
(7.74273 0 1.61245)
(7.43634 0 1.78815)
(7.10646 0 1.97613)
(6.75187 0 2.17537)
(6.37108 0 2.38378)
(5.96218 0 2.59771)
(5.52273 0 2.81136)
(5.04962 0 3.01614)
(4.53911 0 3.19997)
(3.98676 0 3.34671)
(3.38801 0 3.43602)
(2.73734 0 3.44339)
(2.03631 0 3.34161)
(1.24179 0 3.11372)
(0.563533 0 2.6933)
(9.99306 0 0.0825872)
(9.96981 0 0.163604)
(9.92807 0 0.244047)
(9.86885 0 0.325476)
(9.79313 0 0.409441)
(9.70126 0 0.4972)
(9.59324 0 0.58983)
(9.46888 0 0.688386)
(9.32796 0 0.793927)
(9.17015 0 0.907514)
(8.99504 0 1.0302)
(8.80212 0 1.16301)
(8.59083 0 1.30698)
(8.36053 0 1.46306)
(8.11048 0 1.63212)
(7.83984 0 1.81483)
(7.54765 0 2.01163)
(7.23272 0 2.22247)
(6.89356 0 2.44669)
(6.52824 0 2.68265)
(6.13417 0 2.92732)
(5.70795 0 3.17574)
(5.24507 0 3.42035)
(4.73989 0 3.6502)
(4.1856 0 3.85026)
(3.57487 0 4.00095)
(2.89962 0 4.078)
(2.16219 0 4.05251)
(1.31617 0 3.90186)
(0.583242 0 3.54034)
(9.99326 0 0.0909274)
(9.97072 0 0.180407)
(9.93046 0 0.269665)
(9.87362 0 0.360237)
(9.80118 0 0.453641)
(9.71344 0 0.551202)
(9.61038 0 0.654103)
(9.49189 0 0.763485)
(9.35776 0 0.880491)
(9.20774 0 1.00626)
(9.04146 0 1.14194)
(8.85849 0 1.28864)
(8.65829 0 1.44749)
(8.44024 0 1.61955)
(8.2036 0 1.80583)
(7.94749 0 2.00716)
(7.67082 0 2.2242)
(7.37221 0 2.45723)
(7.04986 0 2.706)
(6.70134 0 2.96952)
(6.32343 0 3.24561)
(5.91175 0 3.53049)
(5.46048 0 3.81804)
(4.96213 0 4.09898)
(4.40754 0 4.35989)
(3.78653 0 4.58216)
(3.08768 0 4.74118)
(2.3128 0 4.80461)
(1.4107 0 4.74128)
(0.614336 0 4.44214)
(9.99352 0 0.0989913)
(9.97191 0 0.196577)
(9.9334 0 0.294192)
(9.87924 0 0.393412)
(9.8104 0 0.49575)
(9.72717 0 0.602581)
(9.62953 0 0.715172)
(9.51742 0 0.834749)
(9.39069 0 0.962529)
(9.24913 0 1.09973)
(9.09246 0 1.24757)
(8.92029 0 1.40726)
(8.73214 0 1.58003)
(8.52744 0 1.76707)
(8.30546 0 1.96951)
(8.06529 0 2.18843)
(7.80576 0 2.42474)
(7.52534 0 2.67911)
(7.22197 0 2.95186)
(6.89284 0 3.24276)
(6.53412 0 3.55073)
(6.14058 0 3.87344)
(5.70517 0 4.20667)
(5.21862 0 4.54337)
(4.66914 0 4.87245)
(4.04302 0 5.17703)
(3.32383 0 5.43242)
(2.50988 0 5.60214)
(1.54194 0 5.64373)
(0.664091 0 5.41831)
(9.99384 0 0.106703)
(9.9733 0 0.211998)
(9.9368 0 0.317499)
(9.88558 0 0.424851)
(9.82064 0 0.535583)
(9.74225 0 0.651112)
(9.65045 0 0.772777)
(9.54518 0 0.901872)
(9.42638 0 1.03968)
(9.2939 0 1.1875)
(9.14753 0 1.34661)
(8.98695 0 1.51832)
(8.81176 0 1.70395)
(8.62144 0 1.90483)
(8.41533 0 2.12226)
(8.19255 0 2.35754)
(7.95191 0 2.6119)
(7.69183 0 2.88647)
(7.4101 0 3.18221)
(7.10371 0 3.49979)
(6.76843 0 3.8394)
(6.39844 0 4.20048)
(5.98568 0 4.58113)
(5.51923 0 4.9773)
(4.98454 0 5.38132)
(4.36344 0 5.77961)
(3.63207 0 6.14926)
(2.78027 0 6.45087)
(1.73355 0 6.62879)
(0.74488 0 6.50343)
(9.9942 0 0.114005)
(9.97487 0 0.226573)
(9.94056 0 0.33947)
(9.89252 0 0.454419)
(9.83173 0 0.572977)
(9.75851 0 0.696601)
(9.67289 0 0.826683)
(9.57488 0 0.964579)
(9.46448 0 1.11163)
(9.34162 0 1.26919)
(9.20616 0 1.43862)
(9.05787 0 1.6213)
(8.89645 0 1.81865)
(8.72148 0 2.03211)
(8.53238 0 2.26318)
(8.32838 0 2.51338)
(8.10837 0 2.78428)
(7.87085 0 3.07749)
(7.61366 0 3.39464)
(7.33379 0 3.7374)
(7.027 0 4.10736)
(6.68725 0 4.50594)
(6.30601 0 4.93404)
(5.87123 0 5.3914)
(5.36595 0 5.87534)
(4.76709 0 6.37829)
(4.04092 0 6.88335)
(3.16165 0 7.35373)
(2.02489 0 7.72355)
(0.880803 0 7.75753)
(9.99459 0 0.120852)
(9.97657 0 0.240222)
(9.94461 0 0.360004)
(9.89995 0 0.481996)
(9.84356 0 0.607789)
(9.77575 0 0.738874)
(9.69662 0 0.876686)
(9.60623 0 1.02263)
(9.50463 0 1.1781)
(9.39185 0 1.34449)
(9.26781 0 1.52322)
(9.13242 0 1.71575)
(8.98548 0 1.92357)
(8.82669 0 2.14824)
(8.65563 0 2.39143)
(8.47168 0 2.65487)
(8.27394 0 2.94045)
(8.0611 0 3.25026)
(7.8313 0 3.58659)
(7.58184 0 3.95208)
(7.30885 0 4.34973)
(7.00673 0 4.78305)
(6.66732 0 5.256)
(6.27862 0 5.77287)
(5.82263 0 6.33765)
(5.2727 0 6.95243)
(4.58477 0 7.61375)
(3.71021 0 8.30117)
(2.48839 0 8.95866)
(1.12459 0 9.29384)
(9.99501 0 0.12721)
(9.97838 0 0.252883)
(9.94891 0 0.379018)
(9.90779 0 0.507482)
(9.85598 0 0.639901)
(9.79381 0 0.777793)
(9.72142 0 0.922627)
(9.63893 0 1.07584)
(9.54647 0 1.23887)
(9.44412 0 1.41315)
(9.33195 0 1.60013)
(9.20994 0 1.80132)
(9.07805 0 2.01829)
(8.93614 0 2.2527)
(8.78398 0 2.50633)
(8.62116 0 2.78111)
(8.44709 0 3.07921)
(8.26082 0 3.4031)
(8.06097 0 3.75567)
(7.84548 0 4.14039)
(7.61135 0 4.56156)
(7.35414 0 5.02458)
(7.06723 0 5.53641)
(6.74053 0 6.10604)
(6.35809 0 6.74517)
(5.8943 0 7.4689)
(5.30108 0 8.29639)
(4.50922 0 9.24822)
(3.26918 0 10.3424)
(1.60523 0 11.3601)
(9.99545 0 0.13305)
(9.98026 0 0.264502)
(9.95339 0 0.396439)
(9.91596 0 0.530784)
(9.86888 0 0.669193)
(9.81252 0 0.813204)
(9.74707 0 0.964311)
(9.67271 0 1.12398)
(9.58963 0 1.29366)
(9.49801 0 1.47482)
(9.39801 0 1.66893)
(9.28976 0 1.87753)
(9.17336 0 2.10225)
(9.04885 0 2.34479)
(8.91622 0 2.60703)
(8.77538 0 2.89104)
(8.62606 0 3.19919)
(8.46782 0 3.53421)
(8.29995 0 3.89943)
(8.12129 0 4.29894)
(7.93016 0 4.73795)
(7.72399 0 5.22332)
(7.49894 0 5.76426)
(7.24914 0 6.3736)
(6.96509 0 7.06978)
(6.63128 0 7.88066)
(6.2149 0 8.85168)
(5.66653 0 10.0659)
(4.69103 0 11.7315)
(2.68806 0 14.594)
(0.122635 0 -0.12439)
(0.287165 0 -0.11333)
(0.456932 0 -0.0904533)
(0.601297 0 -0.0691701)
(0.715837 0 -0.0519819)
(0.805625 0 -0.0386481)
(0.876706 0 -0.0284774)
(0.933811 0 -0.0208418)
(0.980435 0 -0.0152119)
(1.01928 0 -0.0111414)
(1.0525 0 -0.00825911)
(1.08177 0 -0.00625375)
(1.10833 0 -0.004855)
(1.13298 0 -0.00382037)
(1.15609 0 -0.00293418)
(1.17762 0 -0.00202018)
(1.19721 0 -0.000965035)
(1.21431 0 0.000261679)
(1.22838 0 0.00161738)
(1.23901 0 0.00304281)
(1.24598 0 0.00452614)
(1.24902 0 0.00604685)
(1.24811 0 0.0074201)
(1.24275 0 0.00865276)
(1.23288 0 0.00958222)
(1.21947 0 0.00987842)
(1.2045 0 0.00933763)
(1.19039 0 0.00793422)
(1.17933 0 0.00584438)
(1.17268 0 0.00266674)
(0.102317 0 -0.284448)
(0.261203 0 -0.26808)
(0.417415 0 -0.220277)
(0.552634 0 -0.174434)
(0.663698 0 -0.137255)
(0.755167 0 -0.108411)
(0.832003 0 -0.0863945)
(0.897933 0 -0.0698166)
(0.95565 0 -0.0575139)
(1.0072 0 -0.0485186)
(1.05421 0 -0.0420352)
(1.09792 0 -0.0374034)
(1.1393 0 -0.0340543)
(1.17899 0 -0.0314806)
(1.2174 0 -0.0292303)
(1.25468 0 -0.0269283)
(1.29072 0 -0.0243245)
(1.32529 0 -0.0213424)
(1.35808 0 -0.0180786)
(1.3889 0 -0.0147022)
(1.41776 0 -0.0112917)
(1.44471 0 -0.00779251)
(1.46917 0 -0.00415661)
(1.49056 0 -0.000475441)
(1.50842 0 0.00280439)
(1.52257 0 0.00505413)
(1.53411 0 0.00584954)
(1.54505 0 0.00513942)
(1.55634 0 0.00331444)
(1.57114 0 0.000908157)
(0.0793563 0 -0.445807)
(0.213461 0 -0.420266)
(0.335091 0 -0.347641)
(0.439885 0 -0.278416)
(0.525193 0 -0.222597)
(0.595749 0 -0.179327)
(0.655468 0 -0.146186)
(0.707049 0 -0.121026)
(0.752427 0 -0.102111)
(0.793091 0 -0.0880345)
(0.830222 0 -0.0776561)
(0.864754 0 -0.0700337)
(0.897402 0 -0.0643613)
(0.92869 0 -0.0599257)
(0.958961 0 -0.0560919)
(0.988386 0 -0.0523231)
(1.01695 0 -0.0482414)
(1.04448 0 -0.0437105)
(1.07068 0 -0.0388703)
(1.09537 0 -0.0340247)
(1.11861 0 -0.0293439)
(1.14084 0 -0.0245743)
(1.1625 0 -0.0191805)
(1.18352 0 -0.0132064)
(1.20313 0 -0.00757865)
(1.22066 0 -0.00363243)
(1.23514 0 -0.00231405)
(1.24602 0 -0.00377605)
(1.2542 0 -0.00708819)
(1.26273 0 -0.0091202)
(0.057541 0 -0.569766)
(0.16021 0 -0.529085)
(0.239985 0 -0.434015)
(0.309017 0 -0.34653)
(0.362535 0 -0.277374)
(0.406394 0 -0.224279)
(0.443154 0 -0.183754)
(0.474388 0 -0.152941)
(0.501245 0 -0.12967)
(0.524652 0 -0.112246)
(0.545361 0 -0.0993036)
(0.563974 0 -0.0897213)
(0.580974 0 -0.0825407)
(0.596749 0 -0.0769231)
(0.611614 0 -0.0721236)
(0.625821 0 -0.0674955)
(0.639502 0 -0.0625486)
(0.652616 0 -0.0570514)
(0.664834 0 -0.0511276)
(0.675699 0 -0.0452133)
(0.684983 0 -0.0397724)
(0.693326 0 -0.0349496)
(0.701775 0 -0.0302974)
(0.710686 0 -0.0252661)
(0.718879 0 -0.0196997)
(0.72463 0 -0.013858)
(0.726142 0 -0.00846434)
(0.721673 0 -0.00452865)
(0.712253 0 -0.00343606)
(0.695074 0 -0.00386048)
(0.0351154 0 -0.658608)
(0.100649 0 -0.597514)
(0.133288 0 -0.482834)
(0.163986 0 -0.382581)
(0.181841 0 -0.304932)
(0.195146 0 -0.245967)
(0.204455 0 -0.200999)
(0.21053 0 -0.166675)
(0.213916 0 -0.140606)
(0.215139 0 -0.120959)
(0.214621 0 -0.106263)
(0.212689 0 -0.0953186)
(0.209637 0 -0.0871042)
(0.205768 0 -0.0807298)
(0.201394 0 -0.0754013)
(0.196865 0 -0.0704094)
(0.192473 0 -0.0651587)
(0.188436 0 -0.0592566)
(0.184387 0 -0.052641)
(0.179692 0 -0.0456111)
(0.172709 0 -0.0385761)
(0.163391 0 -0.0316862)
(0.150779 0 -0.0246781)
(0.136888 0 -0.0174834)
(0.122977 0 -0.0105616)
(0.110144 0 -0.00462143)
(0.101651 0 0.000121951)
(0.0956146 0 0.00318691)
(0.0924318 0 0.00387076)
(0.0804776 0 -0.00336678)
(0.0111469 0 -0.706556)
(0.0344078 0 -0.620921)
(0.0174485 0 -0.489689)
(0.00772581 0 -0.381619)
(-0.0126815 0 -0.298524)
(-0.0330649 0 -0.237092)
(-0.0551117 0 -0.190481)
(-0.0779255 0 -0.15514)
(-0.101189 0 -0.128502)
(-0.124513 0 -0.108579)
(-0.147643 0 -0.0937968)
(-0.170404 0 -0.0828991)
(-0.192625 0 -0.0748219)
(-0.214148 0 -0.0686406)
(-0.234835 0 -0.0635723)
(-0.254484 0 -0.058978)
(-0.272784 0 -0.0543245)
(-0.28936 0 -0.0491872)
(-0.303945 0 -0.0433298)
(-0.316549 0 -0.0368231)
(-0.327545 0 -0.0300603)
(-0.337481 0 -0.0235345)
(-0.347077 0 -0.0176166)
(-0.356834 0 -0.0123095)
(-0.36687 0 -0.00760128)
(-0.37642 0 -0.00353916)
(-0.384135 0 -5.16071e-05)
(-0.389783 0 0.00276865)
(-0.395697 0 0.00354931)
(-0.402344 0 0.000760275)
(-0.016407 0 -0.7068)
(-0.0402947 0 -0.593227)
(-0.105438 0 -0.452455)
(-0.158422 0 -0.343841)
(-0.216351 0 -0.262096)
(-0.271997 0 -0.201877)
(-0.325095 0 -0.157203)
(-0.374718 0 -0.124101)
(-0.420526 0 -0.0998304)
(-0.462371 0 -0.0823213)
(-0.500327 0 -0.0698927)
(-0.53467 0 -0.0612197)
(-0.565762 0 -0.0552152)
(-0.593982 0 -0.0509708)
(-0.619662 0 -0.0477441)
(-0.643001 0 -0.0449873)
(-0.663992 0 -0.0422423)
(-0.682505 0 -0.039066)
(-0.698475 0 -0.03507)
(-0.712095 0 -0.0300512)
(-0.723876 0 -0.0241151)
(-0.734537 0 -0.0176778)
(-0.744784 0 -0.0112832)
(-0.755001 0 -0.00542673)
(-0.765333 0 -0.000495743)
(-0.77461 0 0.00337669)
(-0.782148 0 0.00604722)
(-0.789071 0 0.00707525)
(-0.795725 0 0.00558659)
(-0.800616 0 0.00201032)
(-0.0501537 0 -0.653974)
(-0.122462 0 -0.519081)
(-0.23369 0 -0.377865)
(-0.328364 0 -0.271713)
(-0.421666 0 -0.194702)
(-0.507253 0 -0.140842)
(-0.583936 0 -0.103335)
(-0.651397 0 -0.0771482)
(-0.710233 0 -0.0591148)
(-0.761519 0 -0.0471521)
(-0.806304 0 -0.0395335)
(-0.845624 0 -0.0349373)
(-0.880383 0 -0.0323376)
(-0.911342 0 -0.0309252)
(-0.939134 0 -0.0300812)
(-0.964198 0 -0.0294473)
(-0.986675 0 -0.028735)
(-1.00651 0 -0.0275606)
(-1.0237 0 -0.0254581)
(-1.03852 0 -0.0220617)
(-1.05151 0 -0.0173429)
(-1.06337 0 -0.0117247)
(-1.0747 0 -0.00590589)
(-1.08596 0 -0.000651325)
(-1.09601 0 0.00355374)
(-1.10521 0 0.00680091)
(-1.11391 0 0.00937871)
(-1.1223 0 0.0106082)
(-1.13008 0 0.00949947)
(-1.13469 0 0.00678567)
(-0.0909637 0 -0.544243)
(-0.214727 0 -0.39617)
(-0.375664 0 -0.263898)
(-0.508519 0 -0.170902)
(-0.6295 0 -0.106173)
(-0.736153 0 -0.0631268)
(-0.828727 0 -0.0360703)
(-0.908034 0 -0.0201195)
(-0.973131 0 -0.011752)
(-1.02744 0 -0.00769824)
(-1.07348 0 -0.006273)
(-1.1133 0 -0.00650051)
(-1.14841 0 -0.00769673)
(-1.1799 0 -0.00932388)
(-1.20862 0 -0.0110559)
(-1.23468 0 -0.0127102)
(-1.25813 0 -0.0141319)
(-1.27886 0 -0.0150139)
(-1.29682 0 -0.0148009)
(-1.3123 0 -0.0129311)
(-1.326 0 -0.0092352)
(-1.33877 0 -0.00419905)
(-1.35138 0 0.00119299)
(-1.36279 0 0.0059261)
(-1.37365 0 0.00954758)
(-1.38388 0 0.0121381)
(-1.3934 0 0.013914)
(-1.40253 0 0.0144958)
(-1.41066 0 0.0132355)
(-1.41497 0 0.0110051)
(-0.145571 0 -0.373706)
(-0.334071 0 -0.22632)
(-0.56349 0 -0.109691)
(-0.748429 0 -0.0292801)
(-0.893363 0 0.0116247)
(-1.00746 0 0.0311139)
(-1.09707 0 0.0382221)
(-1.16816 0 0.0382227)
(-1.22739 0 0.0350636)
(-1.27723 0 0.0306218)
(-1.31988 0 0.0257734)
(-1.35691 0 0.0208159)
(-1.38943 0 0.0159305)
(-1.41835 0 0.0113696)
(-1.44438 0 0.00726793)
(-1.46838 0 0.00360971)
(-1.49045 0 0.000272602)
(-1.51032 0 -0.0025646)
(-1.52778 0 -0.00422582)
(-1.54308 0 -0.00390235)
(-1.55686 0 -0.00129356)
(-1.56979 0 0.00309314)
(-1.58202 0 0.00807374)
(-1.59437 0 0.0125034)
(-1.60631 0 0.0157288)
(-1.61734 0 0.0177217)
(-1.62742 0 0.0187967)
(-1.637 0 0.0188756)
(-1.64534 0 0.0176046)
(-1.64949 0 0.0157942)
(-0.227491 0 -0.136227)
(-0.481215 0 0.044098)
(-0.732038 0 0.109816)
(-0.91613 0 0.126)
(-1.06428 0 0.126119)
(-1.18195 0 0.117556)
(-1.27603 0 0.105256)
(-1.35191 0 0.0918288)
(-1.41382 0 0.0786119)
(-1.46522 0 0.0665394)
(-1.50899 0 0.0559819)
(-1.54706 0 0.0466472)
(-1.58059 0 0.0382478)
(-1.61044 0 0.0308962)
(-1.63749 0 0.0247421)
(-1.66237 0 0.0194373)
(-1.68504 0 0.0144101)
(-1.70491 0 0.00962878)
(-1.72154 0 0.00597594)
(-1.73538 0 0.00470266)
(-1.74771 0 0.00639053)
(-1.75994 0 0.0104541)
(-1.77286 0 0.0154223)
(-1.78627 0 0.0197142)
(-1.79929 0 0.0224049)
(-1.81109 0 0.0235513)
(-1.82167 0 0.0237611)
(-1.83156 0 0.0233311)
(-1.84003 0 0.0221308)
(-1.84407 0 0.0207383)
(-0.287667 0 0.264808)
(-0.568106 0 0.326023)
(-0.850485 0 0.318073)
(-1.05895 0 0.287256)
(-1.21957 0 0.250066)
(-1.34244 0 0.212757)
(-1.43776 0 0.178962)
(-1.51313 0 0.149603)
(-1.57369 0 0.124522)
(-1.6235 0 0.103912)
(-1.66599 0 0.0874526)
(-1.70338 0 0.0737838)
(-1.73653 0 0.0617515)
(-1.76602 0 0.0513374)
(-1.79287 0 0.0428548)
(-1.81801 0 0.0357563)
(-1.84133 0 0.0288565)
(-1.86168 0 0.0217333)
(-1.87811 0 0.0155969)
(-1.89111 0 0.0124979)
(-1.90257 0 0.0135285)
(-1.91453 0 0.0178301)
(-1.92802 0 0.0232483)
(-1.9426 0 0.0276003)
(-1.95686 0 0.0296974)
(-1.96953 0 0.0297588)
(-1.98051 0 0.0288838)
(-1.99053 0 0.0278775)
(-1.99899 0 0.0267632)
(-2.00293 0 0.025749)
(-0.34092 0 0.665017)
(-0.683048 0 0.663047)
(-1.00801 0 0.562079)
(-1.2271 0 0.461332)
(-1.38585 0 0.376855)
(-1.50258 0 0.305826)
(-1.5907 0 0.248942)
(-1.65965 0 0.204003)
(-1.71465 0 0.167534)
(-1.7595 0 0.138812)
(-1.7983 0 0.117293)
(-1.8336 0 0.100145)
(-1.86552 0 0.084758)
(-1.8938 0 0.0712075)
(-1.91961 0 0.0605543)
(-1.94454 0 0.0521371)
(-1.96847 0 0.0437001)
(-1.98932 0 0.0340304)
(-2.00515 0 0.024816)
(-2.01643 0 0.0194758)
(-2.02607 0 0.0199841)
(-2.03721 0 0.0250924)
(-2.05122 0 0.0315511)
(-2.06723 0 0.036269)
(-2.08307 0 0.0377029)
(-2.09676 0 0.0363487)
(-2.10798 0 0.0340696)
(-2.11783 0 0.0323927)
(-2.12607 0 0.0314132)
(-2.12987 0 0.0307729)
(-0.450617 0 1.16897)
(-0.881068 0 1.06284)
(-1.23649 0 0.822702)
(-1.43602 0 0.626225)
(-1.57053 0 0.491953)
(-1.66705 0 0.385833)
(-1.73741 0 0.307848)
(-1.79325 0 0.251597)
(-1.83867 0 0.205729)
(-1.8752 0 0.168871)
(-1.90773 0 0.143184)
(-1.93985 0 0.124138)
(-1.97014 0 0.106117)
(-1.99637 0 0.0894929)
(-2.01993 0 0.0771698)
(-2.04397 0 0.0686162)
(-2.06871 0 0.0595356)
(-2.09044 0 0.0471025)
(-2.10536 0 0.0337266)
(-2.11378 0 0.0252879)
(-2.12035 0 0.0254585)
(-2.13003 0 0.0322375)
(-2.14465 0 0.0405575)
(-2.16263 0 0.0460197)
(-2.18056 0 0.0466426)
(-2.19545 0 0.0433518)
(-2.20667 0 0.0391566)
(-2.21589 0 0.036663)
(-2.22362 0 0.0359423)
(-2.22723 0 0.0357118)
(-0.670143 0 2.12527)
(-1.20181 0 1.70872)
(-1.57693 0 1.11373)
(-1.70204 0 0.71981)
(-1.77431 0 0.569622)
(-1.83479 0 0.448259)
(-1.87403 0 0.357656)
(-1.91075 0 0.294988)
(-1.94582 0 0.237732)
(-1.9716 0 0.189173)
(-1.99422 0 0.162547)
(-2.02194 0 0.147589)
(-2.05094 0 0.129311)
(-2.07447 0 0.108654)
(-2.0942 0 0.0934923)
(-2.11663 0 0.0852524)
(-2.1431 0 0.0759299)
(-2.16706 0 0.0597312)
(-2.18109 0 0.040141)
(-2.18502 0 0.0272612)
(-2.18657 0 0.0278309)
(-2.19391 0 0.0381814)
(-2.20942 0 0.0499473)
(-2.2302 0 0.0568998)
(-2.25103 0 0.0566294)
(-2.26737 0 0.0507183)
(-2.27816 0 0.0438561)
(-2.28604 0 0.0403585)
(-2.29288 0 0.0402135)
(-2.29626 0 0.0405258)
(9.9959 0 0.138445)
(9.98225 0 0.275237)
(9.9581 0 0.412522)
(9.92453 0 0.552269)
(9.88242 0 0.696155)
(9.83216 0 0.845732)
(9.77398 0 1.00251)
(9.70814 0 1.16795)
(9.63491 0 1.34354)
(9.55457 0 1.53072)
(9.46738 0 1.731)
(9.37361 0 1.94592)
(9.27353 0 2.1771)
(9.1674 0 2.4263)
(9.05546 0 2.69542)
(8.93793 0 2.9866)
(8.81501 0 3.30229)
(8.68684 0 3.64539)
(8.55348 0 4.0194)
(8.41494 0 4.4287)
(8.27114 0 4.87894)
(8.12198 0 5.37757)
(7.96741 0 5.93478)
(7.8077 0 6.56491)
(7.64406 0 7.28904)
(7.48151 0 8.13977)
(7.33332 0 9.17108)
(7.28968 0 10.4766)
(7.74901 0 12.2011)
(7.93309 0 14.9204)
(9.99638 0 0.143405)
(9.98434 0 0.285092)
(9.96305 0 0.427251)
(9.93351 0 0.57188)
(9.89656 0 0.72067)
(9.85261 0 0.875181)
(9.80196 0 1.03692)
(9.74491 0 1.20736)
(9.68182 0 1.38796)
(9.61307 0 1.58018)
(9.53904 0 1.78549)
(9.46015 0 2.00542)
(9.37685 0 2.24159)
(9.28959 0 2.49572)
(9.19892 0 2.7697)
(9.10541 0 3.06564)
(9.0097 0 3.38596)
(8.91256 0 3.73353)
(8.81489 0 4.11177)
(8.71788 0 4.52497)
(8.62314 0 4.97853)
(8.53303 0 5.47948)
(8.45128 0 6.03715)
(8.38414 0 6.66411)
(8.34282 0 7.37759)
(8.3494 0 8.20099)
(8.44276 0 9.16445)
(8.67887 0 10.3012)
(9.32661 0 11.5557)
(9.81788 0 12.643)
(9.99688 0 0.147842)
(9.98651 0 0.293904)
(9.96819 0 0.440402)
(9.94282 0 0.58935)
(9.9112 0 0.742445)
(9.87376 0 0.901236)
(9.83084 0 1.06722)
(9.78281 0 1.24186)
(9.73011 0 1.42658)
(9.6732 0 1.62282)
(9.61259 0 1.832)
(9.54884 0 2.05563)
(9.48256 0 2.29525)
(9.41446 0 2.55252)
(9.34534 0 2.82924)
(9.2761 0 3.12742)
(9.20786 0 3.44931)
(9.14194 0 3.79757)
(9.08005 0 4.17529)
(9.02439 0 4.58626)
(8.97799 0 5.03505)
(8.94512 0 5.52736)
(8.93208 0 6.07015)
(8.9484 0 6.67181)
(9.00856 0 7.34178)
(9.13473 0 8.08868)
(9.35791 0 8.91435)
(9.68759 0 9.8076)
(10.2535 0 10.7169)
(10.9413 0 11.4321)
(9.9974 0 0.151704)
(9.98873 0 0.301566)
(9.97346 0 0.451809)
(9.95238 0 0.604451)
(9.92622 0 0.761177)
(9.89543 0 0.923523)
(9.86039 0 1.09296)
(9.82155 0 1.27092)
(9.77939 0 1.45879)
(9.73448 0 1.65795)
(9.68743 0 1.86977)
(9.63893 0 2.09568)
(9.58976 0 2.33713)
(9.54084 0 2.59566)
(9.4932 0 2.87293)
(9.44807 0 3.17073)
(9.40695 0 3.49106)
(9.37167 0 3.8362)
(9.34451 0 4.20872)
(9.32846 0 4.61158)
(9.32744 0 5.0482)
(9.34675 0 5.52241)
(9.39365 0 6.03832)
(9.47804 0 6.59991)
(9.61312 0 7.20993)
(9.81573 0 7.86802)
(10.1086 0 8.56708)
(10.5004 0 9.2924)
(11.058 0 10.0338)
(11.8511 0 10.6782)
(9.99792 0 0.154944)
(9.99101 0 0.307986)
(9.97884 0 0.461338)
(9.96211 0 0.617003)
(9.94149 0 0.776649)
(9.91744 0 0.94178)
(9.89037 0 1.11383)
(9.86078 0 1.29419)
(9.82924 0 1.48418)
(9.79636 0 1.68513)
(9.76286 0 1.89831)
(9.72956 0 2.12505)
(9.69738 0 2.36667)
(9.66738 0 2.62455)
(9.64083 0 2.90014)
(9.61922 0 3.19498)
(9.60431 0 3.51071)
(9.59829 0 3.84912)
(9.60385 0 4.21212)
(9.62438 0 4.60175)
(9.66419 0 5.02011)
(9.72882 0 5.46922)
(9.82534 0 5.95069)
(9.9627 0 6.4652)
(10.152 0 7.01167)
(10.4062 0 7.58621)
(10.7427 0 8.18068)
(11.173 0 8.78039)
(11.7203 0 9.37375)
(12.4732 0 9.88587)
(9.99845 0 0.157518)
(9.9933 0 0.313077)
(9.98427 0 0.468861)
(9.97193 0 0.626842)
(9.95688 0 0.788656)
(9.93959 0 0.955768)
(9.92052 0 1.12956)
(9.90018 0 1.31136)
(9.8792 0 1.50243)
(9.85826 0 1.704)
(9.83818 0 1.91724)
(9.81983 0 2.14335)
(9.80427 0 2.38349)
(9.7927 0 2.63886)
(9.78652 0 2.91064)
(9.78739 0 3.20007)
(9.79728 0 3.50838)
(9.81854 0 3.83683)
(9.85404 0 4.18663)
(9.90729 0 4.55891)
(9.98254 0 4.95456)
(10.085 0 5.37405)
(10.2211 0 5.81712)
(10.3983 0 6.28231)
(10.6254 0 6.76635)
(10.9121 0 7.26347)
(11.2697 0 7.76443)
(11.7061 0 8.25368)
(12.222 0 8.71451)
(12.8976 0 9.10543)
(9.99898 0 0.159388)
(9.9956 0 0.316764)
(9.9897 0 0.474264)
(9.98175 0 0.63382)
(9.97227 0 0.797019)
(9.96171 0 0.965276)
(9.95056 0 1.13991)
(9.93938 0 1.32218)
(9.92881 0 1.51326)
(9.91961 0 1.71427)
(9.91262 0 1.92628)
(9.90882 0 2.15032)
(9.90932 0 2.38739)
(9.9154 0 2.63845)
(9.92856 0 2.90444)
(9.95054 0 3.18623)
(9.98338 0 3.48466)
(10.0295 0 3.80044)
(10.0917 0 4.13412)
(10.1733 0 4.48601)
(10.2783 0 4.85601)
(10.4113 0 5.24341)
(10.5776 0 5.64663)
(10.7832 0 6.06286)
(11.0343 0 6.48761)
(11.3375 0 6.91419)
(11.6989 0 7.33324)
(12.1224 0 7.73135)
(12.6022 0 8.09395)
(13.2074 0 8.40053)
(9.99951 0 0.16052)
(9.99788 0 0.318979)
(9.9951 0 0.477452)
(9.99149 0 0.637811)
(9.98751 0 0.801587)
(9.98359 0 0.970132)
(9.98023 0 1.1447)
(9.97802 0 1.32645)
(9.97762 0 1.51647)
(9.97981 0 1.71577)
(9.98547 0 1.92527)
(9.99562 0 2.14586)
(10.0114 0 2.37834)
(10.0341 0 2.62345)
(10.0653 0 2.88183)
(10.1068 0 3.15405)
(10.1604 0 3.44052)
(10.2286 0 3.74148)
(10.3139 0 4.0569)
(10.4195 0 4.38641)
(10.5487 0 4.72914)
(10.7054 0 5.08357)
(10.8936 0 5.44732)
(11.1177 0 5.81686)
(11.3821 0 6.18728)
(11.6904 0 6.55203)
(12.0455 0 6.90283)
(12.449 0 7.22936)
(12.8931 0 7.52049)
(13.4359 0 7.7649)
(10 0 0.160885)
(10.0001 0 0.319668)
(10.0004 0 0.478344)
(10.0011 0 0.638714)
(10.0025 0 0.802242)
(10.005 0 0.970207)
(10.0093 0 1.14378)
(10.0157 0 1.32403)
(10.0252 0 1.51195)
(10.0383 0 1.7084)
(10.056 0 1.91419)
(10.0794 0 2.13003)
(10.1095 0 2.35652)
(10.1477 0 2.59418)
(10.1954 0 2.8434)
(10.2544 0 3.10442)
(10.3265 0 3.3773)
(10.4139 0 3.66185)
(10.5188 0 3.95758)
(10.644 0 4.26362)
(10.7921 0 4.57858)
(10.9662 0 4.90043)
(11.1694 0 5.22639)
(11.4045 0 5.55275)
(11.6741 0 5.87475)
(11.9802 0 6.18654)
(12.3235 0 6.48125)
(12.7037 0 6.75107)
(13.1133 0 6.98763)
(13.6008 0 7.18411)
(10.0005 0 0.160463)
(10.0023 0 0.318789)
(10.0056 0 0.47688)
(10.0104 0 0.636455)
(10.017 0 0.798901)
(10.0259 0 0.965416)
(10.0374 0 1.13708)
(10.0522 0 1.31487)
(10.071 0 1.49966)
(10.0945 0 1.69219)
(10.1236 0 1.89313)
(10.1592 0 2.10301)
(10.2026 0 2.32227)
(10.2549 0 2.55119)
(10.3176 0 2.78994)
(10.3922 0 3.03847)
(10.4803 0 3.29653)
(10.5839 0 3.56363)
(10.705 0 3.83891)
(10.8456 0 4.12116)
(11.008 0 4.40868)
(11.1943 0 4.69922)
(11.4067 0 4.9899)
(11.6469 0 5.27713)
(11.9162 0 5.55663)
(12.2152 0 5.82342)
(12.5434 0 6.07196)
(12.8996 0 6.29637)
(13.2767 0 6.49061)
(13.7164 0 6.65052)
(10.001 0 0.159238)
(10.0044 0 0.316312)
(10.0106 0 0.473021)
(10.0194 0 0.630989)
(10.0311 0 0.791518)
(10.0459 0 0.95572)
(10.0644 0 1.12458)
(10.0871 0 1.29898)
(10.1147 0 1.47966)
(10.1479 0 1.66726)
(10.1876 0 1.86229)
(10.2346 0 2.06514)
(10.29 0 2.27607)
(10.355 0 2.49517)
(10.4309 0 2.7224)
(10.519 0 2.95748)
(10.6207 0 3.19992)
(10.7377 0 3.44899)
(10.8716 0 3.70361)
(11.0241 0 3.96235)
(11.1966 0 4.22339)
(11.3908 0 4.48444)
(11.6078 0 4.74272)
(11.8487 0 4.99499)
(12.1138 0 5.23752)
(12.4027 0 5.46622)
(12.7145 0 5.67676)
(13.0472 0 5.86479)
(13.3946 0 6.02608)
(13.7932 0 6.15811)
(10.0015 0 0.157203)
(10.0065 0 0.312224)
(10.0154 0 0.466749)
(10.028 0 0.622298)
(10.0444 0 0.780084)
(10.065 0 0.941128)
(10.0901 0 1.10632)
(10.1202 0 1.27643)
(10.156 0 1.45209)
(10.1982 0 1.63382)
(10.2475 0 1.82201)
(10.3048 0 2.01688)
(10.371 0 2.21856)
(10.4472 0 2.42697)
(10.5345 0 2.64188)
(10.6341 0 2.86285)
(10.7471 0 3.08923)
(10.8749 0 3.32011)
(11.0187 0 3.55428)
(11.1796 0 3.79024)
(11.3589 0 4.02616)
(11.5573 0 4.25984)
(11.7756 0 4.48876)
(12.0139 0 4.71006)
(12.2721 0 4.92062)
(12.5494 0 5.11718)
(12.8443 0 5.29641)
(13.1548 0 5.45516)
(13.4756 0 5.59051)
(13.8389 0 5.70096)
(10.0019 0 0.154356)
(10.0084 0 0.306523)
(10.0199 0 0.458065)
(10.0361 0 0.610396)
(10.0571 0 0.76463)
(10.083 0 0.921695)
(10.1142 0 1.08238)
(10.1512 0 1.24736)
(10.1946 0 1.41716)
(10.2449 0 1.59218)
(10.303 0 1.77268)
(10.3694 0 1.95878)
(10.4452 0 2.15045)
(10.5311 0 2.3475)
(10.6281 0 2.54955)
(10.7372 0 2.75605)
(10.8593 0 2.96622)
(10.9954 0 3.17906)
(11.1464 0 3.39334)
(11.3131 0 3.60756)
(11.4962 0 3.81996)
(11.696 0 4.02853)
(11.9129 0 4.23104)
(12.1465 0 4.42507)
(12.3963 0 4.60809)
(12.6611 0 4.7775)
(12.9395 0 4.93083)
(13.2294 0 5.06582)
(13.5263 0 5.18046)
(13.8592 0 5.27392)
(10.0024 0 0.150703)
(10.0102 0 0.299223)
(10.0241 0 0.446995)
(10.0438 0 0.595321)
(10.0689 0 0.745218)
(10.0997 0 0.897519)
(10.1366 0 1.05292)
(10.1799 0 1.21199)
(10.2302 0 1.37515)
(10.2879 0 1.54271)
(10.3537 0 1.71481)
(10.4282 0 1.89147)
(10.5122 0 2.07256)
(10.6063 0 2.25776)
(10.7114 0 2.44663)
(10.8281 0 2.63851)
(10.9573 0 2.83258)
(11.0995 0 3.02781)
(11.2555 0 3.22299)
(11.4256 0 3.41668)
(11.6102 0 3.60727)
(11.8093 0 3.79298)
(12.0228 0 3.97189)
(12.2502 0 4.142)
(12.4906 0 4.30126)
(12.7429 0 4.4477)
(13.0054 0 4.57947)
(13.2764 0 4.69497)
(13.552 0 4.79287)
(13.8586 0 4.87274)
(10.0027 0 0.146257)
(10.0119 0 0.290349)
(10.0281 0 0.433582)
(10.0508 0 0.577142)
(10.0798 0 0.721947)
(10.1152 0 0.868737)
(10.1572 0 1.01812)
(10.2062 0 1.17056)
(10.2626 0 1.32639)
(10.3269 0 1.48584)
(10.3995 0 1.64894)
(10.4809 0 1.81564)
(10.5719 0 1.9857)
(10.6728 0 2.15876)
(10.7844 0 2.3343)
(10.9072 0 2.51164)
(11.0416 0 2.68992)
(11.1881 0 2.86815)
(11.347 0 3.04516)
(11.5186 0 3.21964)
(11.7028 0 3.39015)
(11.8996 0 3.55516)
(12.1083 0 3.71304)
(12.3285 0 3.86216)
(12.5592 0 4.00093)
(12.7991 0 4.12783)
(13.0468 0 4.24152)
(13.3005 0 4.34088)
(13.5572 0 4.42505)
(13.8408 0 4.49386)
(10.0031 0 0.141037)
(10.0134 0 0.27994)
(10.0317 0 0.417887)
(10.0573 0 0.555947)
(10.0898 0 0.694942)
(10.1293 0 0.835521)
(10.1759 0 0.978199)
(10.23 0 1.12336)
(10.2918 0 1.27127)
(10.3618 0 1.42204)
(10.4402 0 1.57566)
(10.5276 0 1.73199)
(10.6243 0 1.89074)
(10.7308 0 2.05152)
(10.8475 0 2.21375)
(10.9747 0 2.37676)
(11.1128 0 2.53971)
(11.2619 0 2.70166)
(11.4223 0 2.86153)
(11.5937 0 3.01815)
(11.7762 0 3.17027)
(11.9693 0 3.31658)
(12.1725 0 3.45575)
(12.385 0 3.58646)
(12.6058 0 3.70748)
(12.8338 0 3.81768)
(13.0676 0 3.91609)
(13.3056 0 4.00194)
(13.5454 0 4.07469)
(13.8089 0 4.13434)
(10.0034 0 0.135066)