/*--------------------------------*- C++ -*----------------------------------*\
  =========                 |
  \\      /  F ield         | OpenFOAM: The Open Source CFD Toolbox
   \\    /   O peration     | Website:  https://openfoam.org
    \\  /    A nd           | Version:  dev
     \\/     M anipulation  |
\*---------------------------------------------------------------------------*/
FoamFile
{
    version     2.0;
    format      ascii;
    class       surfaceVectorField;
    location    "9.8";
    object      Uf;
}
// * * * * * * * * * * * * * * * * * * * * * * * * * * * * * * * * * * * * * //

dimensions      [0 1 -1 0 0 0 0];

internalField   nonuniform List<vector> 
5457
(
(9.92088 0 0.0251102)
(9.97124 0 0.0387467)
(9.82401 0 0.0328279)
(9.92858 0 0.0485869)
(9.7096 0 0.0393136)
(9.85547 0 0.0587708)
(9.57542 0 0.0460137)
(9.75679 0 0.070597)
(9.42135 0 0.0529516)
(9.63751 0 0.0830181)
(9.24751 0 0.0601696)
(9.49858 0 0.0959424)
(9.05357 0 0.067815)
(9.33926 0 0.10962)
(8.83886 0 0.0760393)
(9.15869 0 0.124297)
(8.60244 0 0.0849758)
(8.95602 0 0.140177)
(8.34317 0 0.0947513)
(8.73029 0 0.157445)
(8.05973 0 0.105495)
(8.4803 0 0.176283)
(7.75066 0 0.117336)
(8.20464 0 0.196872)
(7.4144 0 0.130405)
(7.9018 0 0.219378)
(7.04931 0 0.144821)
(7.57013 0 0.243941)
(6.65382 0 0.160683)
(7.20799 0 0.270652)
(6.22648 0 0.178056)
(6.81377 0 0.29952)
(5.76617 0 0.19694)
(6.38608 0 0.330434)
(5.27229 0 0.217245)
(5.9239 0 0.363103)
(4.74508 0 0.238746)
(5.42681 0 0.396993)
(4.18589 0 0.261041)
(4.89535 0 0.431251)
(3.59765 0 0.283495)
(4.33132 0 0.464629)
(2.98524 0 0.305205)
(3.73828 0 0.495429)
(2.35581 0 0.325068)
(3.12195 0 0.521509)
(1.71881 0 0.342543)
(2.49076 0 0.540546)
(1.08407 0 0.361876)
(1.85557 0 0.551655)
(0.451582 0 0.348614)
(1.24523 0 0.563004)
(-0.145993 0 0.102368)
(0.608627 0 0.544789)
(-0.423674 0 -0.2071)
(0.0945799 0 0.259276)
(-0.402172 0 -0.361224)
(-0.133812 0 -0.020562)
(-0.119681 0 -0.393903)
(9.99641 0 0.0516744)
(9.99705 0 0.0405064)
(9.95878 0 0.0708649)
(9.9785 0 0.067458)
(9.89823 0 0.0879916)
(9.93377 0 0.0898753)
(9.81657 0 0.105991)
(9.86452 0 0.113562)
(9.71356 0 0.124929)
(9.77436 0 0.138524)
(9.58905 0 0.144863)
(9.66432 0 0.164658)
(9.44269 0 0.166102)
(9.53393 0 0.192346)
(9.27384 0 0.188981)
(9.38244 0 0.222048)
(9.08158 0 0.213799)
(9.20912 0 0.254168)
(8.8648 0 0.240834)
(9.01307 0 0.289087)
(8.62218 0 0.270357)
(8.79321 0 0.327179)
(8.35225 0 0.30263)
(8.54823 0 0.368816)
(8.05339 0 0.337883)
(8.27668 0 0.414349)
(7.72393 0 0.37629)
(7.977 0 0.464082)
(7.36215 0 0.417931)
(7.64752 0 0.518227)
(6.96648 0 0.462737)
(7.2866 0 0.576846)
(6.53557 0 0.510415)
(6.8927 0 0.639766)
(6.06854 0 0.56036)
(6.46454 0 0.706466)
(5.56528 0 0.611544)
(6.0013 0 0.775944)
(5.02678 0 0.662402)
(5.50295 0 0.846553)
(4.45555 0 0.710718)
(4.97056 0 0.915826)
(3.85616 0 0.753539)
(4.40685 0 0.980314)
(3.23587 0 0.787184)
(3.81671 0 1.03545)
(2.60551 0 0.807476)
(3.20814 0 1.07546)
(1.98251 0 0.81043)
(2.59309 0 1.09311)
(1.40505 0 0.776834)
(1.99594 0 1.07702)
(0.929538 0 0.646309)
(1.41926 0 0.978302)
(0.439655 0 0.384215)
(0.93741 0 0.716688)
(0.0590743 0 -0.118718)
(0.443608 0 0.34339)
(0.174884 0 -0.336043)
(9.98903 0 0.0594342)
(9.99481 0 0.0458801)
(9.95433 0 0.089482)
(9.97368 0 0.0848594)
(9.89728 0 0.11804)
(9.92983 0 0.119182)
(9.82045 0 0.147909)
(9.86356 0 0.153987)
(9.72414 0 0.179435)
(9.77734 0 0.190422)
(9.60818 0 0.212791)
(9.67224 0 0.228654)
(9.4723 0 0.248412)
(9.54806 0 0.26915)
(9.31601 0 0.286797)
(9.40426 0 0.312521)
(9.13861 0 0.328423)
(9.24028 0 0.359354)
(8.93915 0 0.373752)
(9.05541 0 0.410207)
(8.71653 0 0.423239)
(8.84879 0 0.465636)
(8.46946 0 0.477333)
(8.61939 0 0.526194)
(8.19652 0 0.536439)
(8.36601 0 0.592418)
(7.89614 0 0.600884)
(8.08735 0 0.664787)
(7.56671 0 0.670854)
(7.78201 0 0.74367)
(7.2066 0 0.746301)
(7.44852 0 0.829243)
(6.81431 0 0.826825)
(7.08544 0 0.921372)
(6.3886 0 0.911523)
(6.69144 0 1.01946)
(5.92874 0 0.998792)
(6.26544 0 1.12222)
(5.43483 0 1.08612)
(5.80682 0 1.22746)
(4.90823 0 1.16984)
(5.31576 0 1.33177)
(4.35211 0 1.24489)
(4.79365 0 1.4302)
(3.77227 0 1.30453)
(4.24365 0 1.51587)
(3.17843 0 1.3398)
(3.6715 0 1.57939)
(2.58636 0 1.33805)
(3.08603 0 1.60768)
(2.01963 0 1.27288)
(2.50267 0 1.58148)
(1.48675 0 1.09528)
(1.92852 0 1.46411)
(0.958157 0 0.769026)
(1.38508 0 1.21024)
(0.479793 0 0.202272)
(0.829432 0 0.800852)
(0.433677 0 0.133885)
(9.98515 0 0.0716184)
(9.99367 0 0.0531513)
(9.95038 0 0.113638)
(9.97087 0 0.102298)
(9.89436 0 0.154144)
(9.9269 0 0.147964)
(9.81881 0 0.195587)
(9.86184 0 0.193735)
(9.72439 0 0.238829)
(9.77744 0 0.241296)
(9.61109 0 0.284346)
(9.67464 0 0.291186)
(9.4787 0 0.332747)
(9.55339 0 0.343983)
(9.32689 0 0.384705)
(9.4133 0 0.400404)
(9.15515 0 0.440882)
(9.25394 0 0.461177)
(8.96282 0 0.501924)
(9.07476 0 0.527004)
(8.74905 0 0.568473)
(8.8751 0 0.598585)
(8.51291 0 0.641162)
(8.65418 0 0.676616)
(8.25331 0 0.720585)
(8.41109 0 0.76178)
(7.96908 0 0.807248)
(8.14483 0 0.854701)
(7.65898 0 0.901498)
(7.85436 0 0.955887)
(7.3217 0 1.00341)
(7.53854 0 1.06564)
(6.95596 0 1.11263)
(7.19623 0 1.18392)
(6.56058 0 1.22819)
(6.82627 0 1.31015)
(6.1346 0 1.34822)
(6.42761 0 1.44298)
(5.67754 0 1.46963)
(5.99937 0 1.57995)
(5.18968 0 1.58779)
(5.54103 0 1.71711)
(4.67254 0 1.69602)
(5.05273 0 1.84855)
(4.12948 0 1.78512)
(4.53564 0 1.96582)
(3.56635 0 1.84246)
(3.99242 0 2.05725)
(2.99178 0 1.85063)
(3.4273 0 2.10705)
(2.41561 0 1.78235)
(2.84737 0 2.09435)
(1.84035 0 1.60028)
(2.25601 0 1.98856)
(1.25925 0 1.27823)
(1.66014 0 1.75282)
(0.666708 0 0.789319)
(1.02386 0 1.36751)
(0.522995 0 0.786884)
(9.98337 0 0.0844131)
(9.99316 0 0.0612956)
(9.9482 0 0.136847)
(9.96958 0 0.119935)
(9.89314 0 0.188045)
(9.92574 0 0.176253)
(9.81905 0 0.240187)
(9.86198 0 0.232715)
(9.7266 0 0.29449)
(9.77962 0 0.291109)
(9.61586 0 0.351686)
(9.67937 0 0.352301)
(9.48667 0 0.412503)
(9.56124 0 0.41701)
(9.33873 0 0.477714)
(9.42492 0 0.486047)
(9.17163 0 0.548094)
(9.27003 0 0.560249)
(8.98484 0 0.624404)
(9.09612 0 0.640438)
(8.77768 0 0.707399)
(8.90265 0 0.727426)
(8.54941 0 0.797826)
(8.68895 0 0.822021)
(8.2992 0 0.896393)
(8.4543 0 0.925013)
(8.02617 0 1.00372)
(8.19791 0 1.03713)
(7.72938 0 1.12028)
(7.91893 0 1.159)
(7.40783 0 1.24624)
(7.61648 0 1.29101)
(7.06052 0 1.38135)
(7.28962 0 1.43323)
(6.68642 0 1.52466)
(6.93737 0 1.58519)
(6.28456 0 1.67425)
(6.5587 0 1.74558)
(5.85407 0 1.82684)
(6.15257 0 1.91195)
(5.39438 0 1.97728)
(5.7179 0 2.08021)
(4.90542 0 2.11805)
(5.25374 0 2.24411)
(4.38792 0 2.23857)
(4.7594 0 2.39459)
(3.84363 0 2.32446)
(4.23461 0 2.51913)
(3.27515 0 2.35683)
(3.67957 0 2.60113)
(2.68514 0 2.31042)
(3.09543 0 2.61954)
(2.07249 0 2.15478)
(2.48145 0 2.54709)
(1.42923 0 1.86713)
(1.83973 0 2.35344)
(0.742537 0 1.41927)
(1.13125 0 2.0242)
(0.543254 0 1.51415)
(9.98264 0 0.0975044)
(9.99299 0 0.0697976)
(9.94743 0 0.159786)
(9.96924 0 0.137593)
(9.89353 0 0.221364)
(9.92596 0 0.203941)
(9.82132 0 0.284113)
(9.8638 0 0.270708)
(9.73132 0 0.349374)
(9.78384 0 0.339608)
(9.62364 0 0.418051)
(9.68662 0 0.411729)
(9.49815 0 0.490976)
(9.57214 0 0.487941)
(9.3546 0 0.569019)
(9.44017 0 0.569149)
(9.19262 0 0.653056)
(9.29037 0 0.656286)
(9.01175 0 0.743957)
(9.12235 0 0.750274)
(8.81141 0 0.842584)
(8.93562 0 0.852026)
(8.59096 0 0.949784)
(8.72961 0 0.962444)
(8.3497 0 1.06637)
(8.50368 0 1.08241)
(8.08689 0 1.19305)
(8.25712 0 1.21274)
(7.80172 0 1.3304)
(7.98919 0 1.35415)
(7.49337 0 1.47869)
(7.69909 0 1.50713)
(7.16094 0 1.63778)
(7.38593 0 1.67187)
(6.80345 0 1.80684)
(7.04876 0 1.84802)
(6.41981 0 1.98405)
(6.68646 0 2.03446)
(6.00881 0 2.1662)
(6.2977 0 2.22892)
(5.56907 0 2.34814)
(5.88086 0 2.42754)
(5.09911 0 2.52221)
(5.43398 0 2.62429)
(4.5974 0 2.67753)
(4.95475 0 2.81028)
(4.06236 0 2.7994)
(4.44048 0 2.97316)
(3.49238 0 2.86896)
(3.88816 0 3.0965)
(2.88555 0 2.8627)
(3.2949 0 3.1597)
(2.23779 0 2.75365)
(2.65662 0 3.13764)
(1.54228 0 2.52069)
(1.97462 0 3.00285)
(0.793563 0 2.13096)
(1.2071 0 2.7402)
(0.556674 0 2.2914)
(9.9825 0 0.110634)
(9.99301 0 0.0783669)
(9.9477 0 0.182337)
(9.96954 0 0.155048)
(9.89522 0 0.253835)
(9.92721 0 0.230902)
(9.82523 0 0.326791)
(9.86696 0 0.307531)
(9.73811 0 0.402585)
(9.78976 0 0.386551)
(9.634 0 0.482271)
(9.69603 0 0.469184)
(9.51281 0 0.566802)
(9.58576 0 0.55644)
(9.37433 0 0.657145)
(9.45875 0 0.649322)
(9.21821 0 0.754274)
(9.31475 0 0.748847)
(9.04406 0 0.859154)
(9.15339 0 0.856032)
(8.85135 0 0.972741)
(8.97425 0 0.97188)
(8.6395 0 1.09597)
(8.7768 0 1.09739)
(8.40788 0 1.22974)
(8.56045 0 1.23352)
(8.15578 0 1.37486)
(8.32454 0 1.38119)
(7.88245 0 1.53198)
(8.06835 0 1.5412)
(7.58705 0 1.7015)
(7.79105 0 1.71417)
(7.26865 0 1.88341)
(7.49172 0 1.90043)
(6.92615 0 2.07709)
(7.16928 0 2.09983)
(6.5582 0 2.28096)
(6.82236 0 2.31151)
(6.16314 0 2.49214)
(6.44926 0 2.5336)
(5.73877 0 2.70589)
(6.04774 0 2.76273)
(5.28236 0 2.91501)
(5.61486 0 2.99351)
(4.79045 0 3.10912)
(5.14685 0 3.21785)
(4.25892 0 3.2741)
(4.63898 0 3.42421)
(3.68303 0 3.39168)
(4.08566 0 3.59701)
(3.05772 0 3.43943)
(3.48094 0 3.71631)
(2.37747 0 3.39146)
(2.81803 0 3.7578)
(1.63772 0 3.22576)
(2.09889 0 3.69357)
(0.839029 0 2.90039)
(1.27875 0 3.50399)
(0.573284 0 3.11318)
(9.98273 0 0.12359)
(9.99316 0 0.0868235)
(9.94872 0 0.204324)
(9.97026 0 0.172105)
(9.89793 0 0.285273)
(9.92926 0 0.256993)
(9.83049 0 0.367992)
(9.87123 0 0.343013)
(9.74669 0 0.453886)
(9.79714 0 0.43171)
(9.64665 0 0.544119)
(9.70733 0 0.524391)
(9.53034 0 0.639757)
(9.60177 0 0.622183)
(9.39757 0 0.741859)
(9.48034 0 0.726183)
(9.24807 0 0.851483)
(9.34281 0 0.837492)
(9.08145 0 0.969686)
(9.18887 0 0.95721)
(8.89727 0 1.09751)
(9.01816 0 1.08643)
(8.69498 0 1.23598)
(8.83019 0 1.22624)
(8.47399 0 1.38609)
(8.62442 0 1.37769)
(8.2336 0 1.54875)
(8.40022 0 1.54181)
(7.97303 0 1.72473)
(8.15684 0 1.71951)
(7.69139 0 1.91458)
(7.89343 0 1.91157)
(7.3876 0 2.11849)
(7.60897 0 2.11851)
(7.06034 0 2.3361)
(7.30215 0 2.34044)
(6.70789 0 2.56625)
(6.97135 0 2.57691)
(6.32802 0 2.80659)
(6.61438 0 2.82656)
(5.91772 0 3.05312)
(6.22834 0 3.08681)
(5.47305 0 3.29956)
(5.80934 0 3.35324)
(4.98889 0 3.53663)
(5.35222 0 3.619)
(4.45891 0 3.75131)
(4.85042 0 3.87394)
(3.87581 0 3.92627)
(4.29596 0 4.10379)
(3.23195 0 4.03956)
(3.68011 0 4.28943)
(2.52051 0 4.06459)
(2.99311 0 4.4064)
(1.73814 0 3.97563)
(2.23705 0 4.42408)
(0.889345 0 3.71819)
(1.36314 0 4.31569)
(0.598654 0 3.98423)
(9.98321 0 0.136213)
(9.99339 0 0.095047)
(9.95032 0 0.225588)
(9.97131 0 0.188602)
(9.9015 0 0.315519)
(9.93193 0 0.282069)
(9.83693 0 0.407533)
(9.87642 0 0.376987)
(9.75682 0 0.50305)
(9.80578 0 0.474875)
(9.66132 0 0.603323)
(9.72028 0 0.577093)
(9.55043 0 0.709514)
(9.61993 0 0.684867)
(9.42399 0 0.822767)
(9.50461 0 0.799379)
(9.28178 0 0.944222)
(9.37417 0 0.921808)
(9.12349 0 1.07502)
(9.22837 0 1.05334)
(8.9487 0 1.21629)
(9.06688 0 1.19514)
(8.75694 0 1.36916)
(8.88928 0 1.34839)
(8.54763 0 1.53471)
(8.69509 0 1.51425)
(8.32009 0 1.71398)
(8.48368 0 1.69385)
(8.07352 0 1.90789)
(8.25434 0 1.88826)
(7.80692 0 2.11718)
(8.00616 0 2.09843)
(7.51908 0 2.34232)
(7.73803 0 2.32514)
(7.2084 0 2.58331)
(7.44846 0 2.56886)
(6.87278 0 2.83954)
(7.13555 0 2.82962)
(6.50942 0 3.1094)
(6.79666 0 3.1068)
(6.11448 0 3.3899)
(6.42829 0 3.39875)
(5.68288 0 3.67608)
(6.02561 0 3.7024)
(5.20791 0 3.9602)
(5.58221 0 4.01253)
(4.68117 0 4.23089)
(5.0897 0 4.32093)
(4.09269 0 4.4721)
(4.53763 0 4.61524)
(3.43195 0 4.6622)
(3.91405 0 4.87758)
(2.68964 0 4.77267)
(3.20507 0 5.08314)
(1.86147 0 4.77177)
(2.41076 0 5.19735)
(0.953976 0 4.58899)
(1.47593 0 5.18354)
(0.639031 0 4.91859)
(9.98386 0 0.148379)
(9.99368 0 0.102951)
(9.95235 0 0.245988)
(9.9726 0 0.204409)
(9.90578 0 0.344424)
(9.9351 0 0.305991)
(9.84436 0 0.445231)
(9.8824 0 0.4093)
(9.76831 0 0.549852)
(9.81551 0 0.515855)
(9.67778 0 0.65961)
(9.73469 0 0.627058)
(9.57278 0 0.775748)
(9.63996 0 0.744215)
(9.45323 0 0.89949)
(9.53126 0 0.868585)
(9.31896 0 1.03205)
(9.40849 0 1.00142)
(9.16971 0 1.17465)
(9.27146 0 1.14397)
(9.00514 0 1.32851)
(9.11992 0 1.29749)
(8.82482 0 1.49484)
(8.95352 0 1.46325)
(8.62822 0 1.67484)
(8.77183 0 1.6425)
(8.4147 0 1.8697)
(8.5743 0 1.83652)
(8.18343 0 2.0805)
(8.36022 0 2.04652)
(7.93339 0 2.30823)
(8.1287 0 2.27368)
(7.66323 0 2.55369)
(7.87858 0 2.51907)
(7.37115 0 2.81737)
(7.60828 0 2.7836)
(7.05472 0 3.0993)
(7.31567 0 3.06789)
(6.71063 0 3.39882)
(6.99783 0 3.37216)
(6.33436 0 3.71421)
(6.65076 0 3.69596)
(5.91975 0 4.04218)
(6.26891 0 4.0378)
(5.45861 0 4.37708)
(5.84474 0 4.3946)
(4.94035 0 4.7098)
(5.36815 0 4.76072)
(4.35197 0 5.02631)
(4.82599 0 5.12661)
(3.67884 0 5.30579)
(4.20233 0 5.47676)
(2.90682 0 5.51759)
(3.47707 0 5.78696)
(2.02712 0 5.62222)
(2.64429 0 6.01875)
(1.0448 0 5.5285)
(1.63719 0 6.12294)
(0.704224 0 5.94191)
(9.98465 0 0.159993)
(9.99402 0 0.11047)
(9.95473 0 0.265401)
(9.97409 0 0.219416)
(9.91064 0 0.371848)
(9.93867 0 0.328636)
(9.85266 0 0.48092)
(9.88904 0 0.439808)
(9.78099 0 0.59409)
(9.82617 0 0.554475)
(9.69579 0 0.712736)
(9.75037 0 0.674076)
(9.59713 0 0.838174)
(9.66164 0 0.799979)
(9.48498 0 0.971694)
(9.56 0 0.933509)
(9.35923 0 1.11458)
(9.44539 0 1.07598)
(9.21967 0 1.26813)
(9.31771 0 1.22871)
(9.06605 0 1.43364)
(9.17678 0 1.39303)
(8.89801 0 1.61242)
(9.02233 0 1.57029)
(8.7151 0 1.80579)
(8.854 0 1.76184)
(8.51671 0 2.01506)
(8.67133 0 1.96907)
(8.30209 0 2.24155)
(8.4737 0 2.1934)
(8.07019 0 2.48651)
(8.26026 0 2.43622)
(7.81964 0 2.75111)
(8.0299 0 2.69893)
(7.54854 0 3.03641)
(7.78103 0 2.98291)
(7.25429 0 3.3432)
(7.51151 0 3.28946)
(6.93327 0 3.67192)
(7.2183 0 3.61974)
(6.58046 0 4.02236)
(6.89718 0 3.97463)
(6.18891 0 4.39329)
(6.5422 0 4.35456)
(5.74914 0 4.7817)
(6.14508 0 4.75897)
(5.2484 0 5.18171)
(5.69434 0 5.18564)
(4.67014 0 5.58263)
(5.17423 0 5.62918)
(3.99406 0 5.96616)
(4.56415 0 6.07856)
(3.19759 0 6.30105)
(3.83534 0 6.51307)
(2.26108 0 6.53972)
(2.96988 0 6.89319)
(1.18019 0 6.56387)
(1.8784 0 7.15659)
(0.812438 0 7.09784)
(9.98553 0 0.170975)
(9.9944 0 0.117555)
(9.95738 0 0.283719)
(9.97572 0 0.233536)
(9.916 0 0.397664)
(9.94258 0 0.349894)
(9.86168 0 0.514449)
(9.89623 0 0.468385)
(9.79467 0 0.635582)
(9.83764 0 0.590583)
(9.71515 0 0.762487)
(9.76712 0 0.717963)
(9.62322 0 0.896538)
(9.68474 0 0.851941)
(9.51891 0 1.03908)
(9.59053 0 0.993897)
(9.40217 0 1.19147)
(9.48453 0 1.1452)
(9.27288 0 1.35506)
(9.36669 0 1.30722)
(9.13087 0 1.53122)
(9.23693 0 1.48136)
(8.97587 0 1.72134)
(9.09507 0 1.66902)
(8.80753 0 1.92687)
(8.94087 0 1.87167)
(8.62533 0 2.14927)
(8.77397 0 2.09081)
(8.42861 0 2.39004)
(8.59387 0 2.32802)
(8.21642 0 2.65075)
(8.39985 0 2.58494)
(7.98745 0 2.93296)
(8.19093 0 2.86329)
(7.73989 0 3.23831)
(7.96569 0 3.16493)
(7.47114 0 3.56843)
(7.72212 0 3.49183)
(7.17757 0 3.92496)
(7.45737 0 3.84614)
(6.85405 0 4.30939)
(7.16737 0 4.23017)
(6.4933 0 4.72286)
(6.84631 0 4.64639)
(6.08505 0 5.16567)
(6.48583 0 5.09723)
(5.61486 0 5.63634)
(6.07391 0 5.58463)
(5.06267 0 6.12968)
(5.59309 0 6.10909)
(4.40119 0 6.63337)
(5.0185 0 6.66737)
(3.59506 0 7.12045)
(4.31131 0 7.24799)
(2.60335 0 7.53941)
(3.43439 0 7.81917)
(1.39368 0 7.73878)
(2.25537 0 8.31342)
(1.00202 0 8.46286)
(9.9865 0 0.181265)
(9.9948 0 0.124164)
(9.96026 0 0.300853)
(9.97747 0 0.246697)
(9.92176 0 0.421763)
(9.94676 0 0.369672)
(9.87133 0 0.545689)
(9.90387 0 0.49492)
(9.80922 0 0.674172)
(9.84976 0 0.624048)
(9.73566 0 0.808674)
(9.78477 0 0.758562)
(9.65079 0 0.950617)
(9.70901 0 0.899914)
(9.55469 0 1.1014)
(9.62256 0 1.04953)
(9.44739 0 1.26241)
(9.52553 0 1.20882)
(9.32886 0 1.43507)
(9.41795 0 1.3792)
(9.19903 0 1.62081)
(9.29984 0 1.56211)
(9.05772 0 1.8211)
(9.17113 0 1.75903)
(8.90471 0 2.03748)
(9.03169 0 1.97149)
(8.73963 0 2.27155)
(8.88132 0 2.20111)
(8.56196 0 2.52502)
(8.71968 0 2.44961)
(8.37092 0 2.7997)
(8.54627 0 2.71883)
(8.16542 0 3.09758)
(8.36031 0 3.01081)
(7.94387 0 3.42084)
(8.1607 0 3.32782)
(7.70397 0 3.77195)
(7.94579 0 3.67247)
(7.44243 0 4.15373)
(7.71323 0 4.04784)
(7.15451 0 4.56944)
(7.45955 0 4.45759)
(6.83332 0 5.02279)
(7.17973 0 4.90622)
(6.46881 0 5.51789)
(6.86639 0 5.39924)
(6.0461 0 6.05887)
(6.50845 0 5.94333)
(5.54296 0 6.64872)
(6.08896 0 6.54637)
(4.92578 0 7.28668)
(5.58178 0 7.21674)
(4.14356 0 7.96064)
(4.94089 0 7.96112)
(3.12034 0 8.63211)
(4.10747 0 8.77458)
(1.75522 0 9.12557)
(2.87669 0 9.61888)
(1.36365 0 10.182)
(9.98754 0 0.190811)
(9.99523 0 0.130269)
(9.96332 0 0.316728)
(9.97932 0 0.258841)
(9.92785 0 0.444052)
(9.95115 0 0.387894)
(9.88147 0 0.574529)
(9.91187 0 0.51932)
(9.82448 0 0.70973)
(9.86243 0 0.65476)
(9.75711 0 0.851149)
(9.80316 0 0.795741)
(9.67956 0 1.00024)
(9.73424 0 0.943745)
(9.59199 0 1.15844)
(9.65581 0 1.10023)
(9.49448 0 1.32718)
(9.56803 0 1.26663)
(9.38712 0 1.50791)
(9.47105 0 1.4444)
(9.26991 0 1.70211)
(9.36495 0 1.635)
(9.14283 0 1.91131)
(9.24982 0 1.83997)
(9.00579 0 2.13714)
(9.12565 0 2.0609)
(8.8586 0 2.38131)
(8.99242 0 2.29946)
(8.70095 0 2.64568)
(8.85 0 2.5575)
(8.53231 0 2.93231)
(8.69814 0 2.83703)
(8.35191 0 3.2435)
(8.5364 0 3.14031)
(8.15859 0 3.58195)
(8.36409 0 3.46996)
(7.95059 0 3.95083)
(8.18015 0 3.8291)
(7.72537 0 4.35404)
(7.98299 0 4.22153)
(7.47917 0 4.79642)
(7.77022 0 4.65206)
(7.20642 0 5.28414)
(7.53837 0 5.12687)
(6.89874 0 5.82519)
(7.28217 0 5.65417)
(6.54315 0 6.42989)
(6.99363 0 6.24508)
(6.11891 0 7.11163)
(6.66002 0 6.91509)
(5.59127 0 7.88748)
(6.26074 0 7.68641)
(4.89879 0 8.7772)
(5.75534 0 8.59243)
(3.92459 0 9.79986)
(5.08456 0 9.68421)
(2.4313 0 10.8535)
(3.97637 0 11.0469)
(2.14399 0 12.5633)
(9.98861 0 0.199576)
(9.99567 0 0.135844)
(9.96652 0 0.331283)
(9.98124 0 0.269923)
(9.9342 0 0.46445)
(9.9557 0 0.404498)
(9.89202 0 0.600862)
(9.92016 0 0.541512)
(9.8403 0 0.742119)
(9.87552 0 0.682629)
(9.77931 0 0.889735)
(9.82215 0 0.829397)
(9.70931 0 1.04519)
(9.76027 0 0.983315)
(9.63049 0 1.20994)
(9.69009 0 1.14586)
(9.54305 0 1.38545)
(9.61184 0 1.31848)
(9.44714 0 1.57319)
(9.52575 0 1.50264)
(9.34291 0 1.77466)
(9.43203 0 1.69983)
(9.23046 0 1.99145)
(9.33088 0 1.9116)
(9.10988 0 2.22522)
(9.22248 0 2.13957)
(8.98116 0 2.47778)
(9.10697 0 2.38547)
(8.84426 0 2.75108)
(8.98447 0 2.65119)
(8.69898 0 3.04735)
(8.85504 0 2.93885)
(8.54496 0 3.36916)
(8.71863 0 3.25086)
(8.38161 0 3.71952)
(8.57509 0 3.59006)
(8.20796 0 4.10216)
(8.42408 0 3.95985)
(8.02256 0 4.52172)
(8.26501 0 4.36452)
(7.82319 0 4.98425)
(8.09697 0 4.80953)
(7.60658 0 5.49779)
(7.9186 0 5.30211)
(7.36766 0 6.07337)
(7.72789 0 5.85212)
(7.09851 0 6.72664)
(7.52196 0 6.47348)
(6.78594 0 7.48075)
(7.29653 0 7.18675)
(6.40637 0 8.37236)
(7.04609 0 8.02428)
(5.91275 0 9.46577)
(6.76034 0 9.04245)
(5.19252 0 10.9069)
(6.4581 0 10.3567)
(3.88052 0 13.1739)
(6.1837 0 12.3016)
(5.24973 0 16.364)
(0.193601 0 -0.115304)
(0.114057 0 -0.18962)
(0.377911 0 -0.0978549)
(0.276747 0 -0.176257)
(0.52927 0 -0.0743601)
(0.438957 0 -0.141327)
(0.646448 0 -0.0529637)
(0.575057 0 -0.106827)
(0.733101 0 -0.0349882)
(0.680247 0 -0.0771331)
(0.79319 0 -0.0201093)
(0.758178 0 -0.0522237)
(0.830079 0 -0.00777285)
(0.813346 0 -0.0313031)
(0.846638 0 0.00236609)
(0.849187 0 -0.0137199)
(0.846269 0 0.00996408)
(0.868215 0 0.000298173)
(0.830194 0 0.0151448)
(0.87231 0 0.0126974)
(0.802385 0 0.0187058)
(0.862393 0 0.0214468)
(0.765325 0 0.0209272)
(0.841208 0 0.0279061)
(0.721693 0 0.0218914)
(0.811483 0 0.0320785)
(0.674243 0 0.0216833)
(0.775947 0 0.034062)
(0.625665 0 0.0204394)
(0.737347 0 0.0340482)
(0.578428 0 0.0183601)
(0.698329 0 0.032326)
(0.534607 0 0.0157207)
(0.66125 0 0.0292799)
(0.495725 0 0.0128568)
(0.627976 0 0.0253668)
(0.462619 0 0.0101085)
(0.599713 0 0.0210879)
(0.435378 0 0.00774813)
(0.576899 0 0.0169425)
(0.413412 0 0.00591839)
(0.559213 0 0.0133388)
(0.395719 0 0.00461177)
(0.545773 0 0.0104902)
(0.381247 0 0.00370787)
(0.535485 0 0.00837829)
(0.369184 0 0.00305403)
(0.527418 0 0.00681821)
(0.359031 0 0.00254127)
(0.520978 0 0.0056033)
(0.350473 0 0.00212515)
(0.515849 0 0.00461134)
(0.343245 0 0.00180163)
(0.511821 0 0.00380328)
(0.33705 0 0.00156543)
(0.508658 0 0.00318198)
(0.331602 0 0.0013117)
(0.50604 0 0.00273253)
(0.503277 0 0.00216496)
(0.179895 0 -0.275643)
(0.0958368 0 -0.365816)
(0.352497 0 -0.240996)
(0.247415 0 -0.341317)
(0.497517 0 -0.190141)
(0.390306 0 -0.276735)
(0.614332 0 -0.143036)
(0.511627 0 -0.213323)
(0.706601 0 -0.103114)
(0.607956 0 -0.159265)
(0.778004 0 -0.0697481)
(0.68295 0 -0.114281)
(0.831579 0 -0.0417096)
(0.740354 0 -0.0767659)
(0.869622 0 -0.0179596)
(0.782927 0 -0.0452402)
(0.892719 0 0.00193448)
(0.812544 0 -0.0183873)
(0.902932 0 0.0179722)
(0.830902 0 0.00463048)
(0.899707 0 0.0302966)
(0.837777 0 0.0239341)
(0.886057 0 0.0391015)
(0.834226 0 0.0381844)
(0.864653 0 0.0445185)
(0.82263 0 0.0478153)
(0.838243 0 0.0467591)
(0.805412 0 0.0530205)
(0.80954 0 0.0461724)
(0.785019 0 0.0541654)
(0.781037 0 0.0432512)
(0.763786 0 0.0518322)
(0.754831 0 0.0386151)
(0.743762 0 0.0467903)
(0.732423 0 0.0329785)
(0.726543 0 0.0399856)
(0.714605 0 0.0270925)
(0.71312 0 0.0324375)
(0.701404 0 0.0216334)
(0.703776 0 0.025153)
(0.692198 0 0.0170608)
(0.6981 0 0.0189293)
(0.686027 0 0.0135229)
(0.695197 0 0.0141489)
(0.681964 0 0.0108833)
(0.694061 0 0.0107305)
(0.679364 0 0.00887258)
(0.693917 0 0.00828746)
(0.677874 0 0.00726469)
(0.69436 0 0.00642601)
(0.677268 0 0.00594932)
(0.695227 0 0.00493743)
(0.677332 0 0.00490246)
(0.696401 0 0.0037701)
(0.677792 0 0.00412318)
(0.697702 0 0.00294548)
(0.678301 0 0.00353701)
(0.698831 0 0.00247696)
(0.699373 0 0.00237705)
(0.153435 0 -0.437859)
(0.0757393 0 -0.516096)
(0.296262 0 -0.383886)
(0.204675 0 -0.477903)
(0.414474 0 -0.306261)
(0.314943 0 -0.387112)
(0.509608 0 -0.234974)
(0.408955 0 -0.300054)
(0.585472 0 -0.174868)
(0.48318 0 -0.226794)
(0.645122 0 -0.124825)
(0.541756 0 -0.166124)
(0.690973 0 -0.0830151)
(0.587418 0 -0.115674)
(0.724959 0 -0.0477838)
(0.622081 0 -0.073399)
(0.748865 0 -0.0175205)
(0.64718 0 -0.0377269)
(0.764029 0 0.00833863)
(0.664327 0 -0.00734674)
(0.770573 0 0.029159)
(0.675036 0 0.0188871)
(0.769272 0 0.0445128)
(0.677755 0 0.0391638)
(0.762103 0 0.0543836)
(0.674698 0 0.0530865)
(0.751213 0 0.0590583)
(0.667912 0 0.060838)
(0.738652 0 0.0591058)
(0.659303 0 0.0629689)
(0.726266 0 0.055331)
(0.650549 0 0.0603089)
(0.715547 0 0.0487336)
(0.643016 0 0.0539522)
(0.707553 0 0.0404699)
(0.637675 0 0.0452008)
(0.702763 0 0.0317757)
(0.635022 0 0.0354887)
(0.701011 0 0.0237806)
(0.634985 0 0.0262429)
(0.701592 0 0.0172508)
(0.636924 0 0.0185765)
(0.703577 0 0.0124118)
(0.639826 0 0.0129721)
(0.706169 0 0.00899902)
(0.642687 0 0.00922977)
(0.70893 0 0.00654016)
(0.644865 0 0.00672683)
(0.711692 0 0.00466938)
(0.6462 0 0.00490148)
(0.71436 0 0.0032306)
(0.646777 0 0.00350005)
(0.716815 0 0.00220685)
(0.646677 0 0.00247857)
(0.718857 0 0.00163637)
(0.645903 0 0.00189653)
(0.720156 0 0.00161857)
(0.644395 0 0.0018251)
(0.641504 0 0.00247886)
(0.124428 0 -0.565659)
(0.0556018 0 -0.637965)
(0.232182 0 -0.49106)
(0.15647 0 -0.58095)
(0.317723 0 -0.390629)
(0.228052 0 -0.466983)
(0.38598 0 -0.300739)
(0.291335 0 -0.362282)
(0.44073 0 -0.225767)
(0.339414 0 -0.275529)
(0.484194 0 -0.163511)
(0.377897 0 -0.203899)
(0.518007 0 -0.111482)
(0.408204 0 -0.144367)
(0.543394 0 -0.0676585)
(0.431407 0 -0.0944336)
(0.561381 0 -0.0304869)
(0.448392 0 -0.052278)
(0.573262 0 0.000990152)
(0.459606 0 -0.0167308)
(0.579923 0 0.0266893)
(0.467896 0 0.0137498)
(0.581139 0 0.0458748)
(0.46996 0 0.0382485)
(0.578749 0 0.058197)
(0.468245 0 0.0548437)
(0.574634 0 0.0639886)
(0.465017 0 0.0637917)
(0.570282 0 0.0640227)
(0.461816 0 0.0660195)
(0.566833 0 0.0593475)
(0.459561 0 0.0626688)
(0.565072 0 0.0512603)
(0.458746 0 0.0551293)
(0.565403 0 0.0412824)
(0.459491 0 0.0449848)
(0.567771 0 0.0310421)
(0.461552 0 0.0339799)
(0.571578 0 0.0219941)
(0.464303 0 0.0238751)
(0.575799 0 0.0150315)
(0.466737 0 0.0160134)
(0.579351 0 0.0102831)
(0.46772 0 0.0108659)
(0.581493 0 0.00724035)
(0.46635 0 0.00798981)
(0.582062 0 0.00520397)
(0.462372 0 0.0064055)
(0.581208 0 0.00371756)
(0.45624 0 0.00537253)
(0.579091 0 0.00264092)
(0.448616 0 0.00464106)
(0.575842 0 0.00200575)
(0.439971 0 0.0041877)
(0.571582 0 0.0018635)
(0.430563 0 0.00408518)
(0.566477 0 0.00234477)
(0.420649 0 0.00438529)
(0.408948 0 0.00501779)
(0.0908324 0 -0.661039)
(0.034525 0 -0.72693)
(0.159602 0 -0.565082)
(0.102171 0 -0.646714)
(0.209047 0 -0.446721)
(0.130341 0 -0.51315)
(0.247497 0 -0.344515)
(0.161049 0 -0.397335)
(0.278162 0 -0.260284)
(0.179894 0 -0.302825)
(0.302473 0 -0.19052)
(0.195305 0 -0.225028)
(0.321406 0 -0.132208)
(0.207018 0 -0.160433)
(0.335591 0 -0.0830049)
(0.215709 0 -0.106186)
(0.345434 0 -0.0413286)
(0.221869 0 -0.0602408)
(0.351926 0 -0.0059122)
(0.225551 0 -0.0218583)
(0.354996 0 0.0234307)
(0.22716 0 0.011382)
(0.354029 0 0.0453646)
(0.225523 0 0.0389767)
(0.351923 0 0.0591089)
(0.222358 0 0.0563921)
(0.350228 0 0.0651847)
(0.220013 0 0.0650085)
(0.349745 0 0.0646864)
(0.218994 0 0.0663576)
(0.350726 0 0.0590003)
(0.218915 0 0.0619975)
(0.352986 0 0.0497308)
(0.218943 0 0.0536196)
(0.355994 0 0.0386504)
(0.217921 0 0.0430222)
(0.358949 0 0.0276313)
(0.214662 0 0.0320975)
(0.360654 0 0.0183891)
(0.208552 0 0.0228147)
(0.359796 0 0.0119772)
(0.199565 0 0.0165344)
(0.355441 0 0.00847533)
(0.188122 0 0.013448)
(0.347353 0 0.00705188)
(0.174645 0 0.0126722)
(0.336389 0 0.00662535)
(0.160126 0 0.0126026)
(0.323518 0 0.00651924)
(0.14484 0 0.0124761)
(0.309553 0 0.00649128)
(0.129361 0 0.0121659)
(0.294931 0 0.00658173)
(0.114054 0 0.0118807)
(0.279877 0 0.00695529)
(0.0989395 0 0.0118185)
(0.264967 0 0.00742576)
(0.0838302 0 0.0118636)
(0.0681116 0 0.0108487)
(0.0526191 0 -0.719512)
(0.0115854 0 -0.778467)
(0.0781773 0 -0.602032)
(0.040845 0 -0.671156)
(0.0894007 0 -0.47059)
(0.0228737 0 -0.52363)
(0.0957881 0 -0.361666)
(0.0186228 0 -0.403158)
(0.0992768 0 -0.272814)
(0.00542394 0 -0.30593)
(0.101017 0 -0.199593)
(-0.00582638 0 -0.226541)
(0.101549 0 -0.138602)
(-0.0166699 0 -0.160884)
(0.101252 0 -0.0872987)
(-0.026429 0 -0.105941)
(0.100442 0 -0.0441251)
(-0.034914 0 -0.0595853)
(0.0982686 0 -0.00703923)
(-0.0430121 0 -0.0201416)
(0.0938796 0 0.0251328)
(-0.0547612 0 0.0147669)
(0.0896136 0 0.0489642)
(-0.0590295 0 0.042189)
(0.0869416 0 0.0621617)
(-0.064074 0 0.0583567)
(0.0860663 0 0.0666086)
(-0.0676547 0 0.0656369)
(0.0862107 0 0.0644156)
(-0.0709744 0 0.0662564)
(0.085968 0 0.0575683)
(-0.0754001 0 0.0621636)
(0.0836149 0 0.0479951)
(-0.082216 0 0.0551919)
(0.0773062 0 0.0376752)
(-0.0924419 0 0.047138)
(0.0657898 0 0.028561)
(-0.10665 0 0.0394334)
(0.049353 0 0.0221467)
(-0.124468 0 0.0330375)
(0.0294729 0 0.0189498)
(-0.144655 0 0.0286066)
(0.00814891 0 0.018248)
(-0.165628 0 0.0260912)
(-0.0124309 0 0.0184659)
(-0.186233 0 0.024586)
(-0.0317831 0 0.0184155)
(-0.205173 0 0.0235412)
(-0.0496523 0 0.0178929)
(-0.222527 0 0.0223379)
(-0.0661414 0 0.0172289)
(-0.238173 0 0.021051)
(-0.0816063 0 0.0168563)
(-0.252208 0 0.0200171)
(-0.0964647 0 0.0166306)
(-0.265074 0 0.0194512)
(-0.110305 0 0.0152477)
(-0.277448 0 0.0188055)
(-0.28837 0 0.0165203)
(0.00646899 0 -0.735648)
(-0.0153014 0 -0.784803)
(-0.0126004 0 -0.597647)
(-0.0295431 0 -0.65292)
(-0.0409568 0 -0.458395)
(-0.0931127 0 -0.497153)
(-0.069272 0 -0.348225)
(-0.136852 0 -0.377344)
(-0.0967394 0 -0.259542)
(-0.18442 0 -0.281481)
(-0.121836 0 -0.187517)
(-0.22608 0 -0.204729)
(-0.144053 0 -0.128238)
(-0.263069 0 -0.142031)
(-0.163271 0 -0.0784729)
(-0.295068 0 -0.0900181)
(-0.180548 0 -0.035202)
(-0.322296 0 -0.0456084)
(-0.198257 0 0.00268074)
(-0.346649 0 -0.00615384)
(-0.21137 0 0.0325617)
(-0.366595 0 0.0248799)
(-0.217881 0 0.0523166)
(-0.375109 0 0.0470914)
(-0.222553 0 0.0630852)
(-0.383214 0 0.0617918)
(-0.227621 0 0.0668369)
(-0.390437 0 0.0692751)
(-0.234634 0 0.0655772)
(-0.398687 0 0.0711717)
(-0.244719 0 0.0610912)
(-0.409183 0 0.069065)
(-0.258405 0 0.0549504)
(-0.422505 0 0.0643369)
(-0.275452 0 0.0484979)
(-0.438561 0 0.0582594)
(-0.295109 0 0.0426854)
(-0.456832 0 0.0519544)
(-0.316398 0 0.0379988)
(-0.476568 0 0.046278)
(-0.338138 0 0.0345512)
(-0.496827 0 0.041808)
(-0.359167 0 0.0320949)
(-0.516699 0 0.0385598)
(-0.378776 0 0.030137)
(-0.535492 0 0.0359376)
(-0.396215 0 0.0282241)
(-0.552487 0 0.0333986)
(-0.411337 0 0.0262415)
(-0.567301 0 0.0306833)
(-0.424281 0 0.0244403)
(-0.579748 0 0.0280258)
(-0.435426 0 0.0230452)
(-0.590085 0 0.0258808)
(-0.445049 0 0.0217697)
(-0.598955 0 0.0243945)
(-0.453235 0 0.0200129)
(-0.606931 0 0.0229113)
(-0.61261 0 0.0209241)
(-0.0419982 0 -0.703077)
(-0.0482009 0 -0.743668)
(-0.110453 0 -0.550455)
(-0.109062 0 -0.587456)
(-0.18066 0 -0.411468)
(-0.219082 0 -0.431599)
(-0.248614 0 -0.304689)
(-0.306394 0 -0.315393)
(-0.31062 0 -0.220914)
(-0.390067 0 -0.226287)
(-0.36563 0 -0.154024)
(-0.462989 0 -0.15692)
(-0.413588 0 -0.099265)
(-0.525565 0 -0.101334)
(-0.454901 0 -0.053243)
(-0.578404 0 -0.0557888)
(-0.490218 0 -0.0140602)
(-0.62278 0 -0.017038)
(-0.516112 0 0.0175781)
(-0.656754 0 0.0142991)
(-0.533034 0 0.0411696)
(-0.678022 0 0.0379307)
(-0.544817 0 0.0579219)
(-0.6931 0 0.055964)
(-0.554244 0 0.0684288)
(-0.704911 0 0.0687228)
(-0.563698 0 0.0733352)
(-0.715198 0 0.0760614)
(-0.574608 0 0.0739204)
(-0.725725 0 0.0788183)
(-0.587583 0 0.0713477)
(-0.73753 0 0.0779445)
(-0.602602 0 0.0666819)
(-0.750954 0 0.0743722)
(-0.619247 0 0.0609852)
(-0.76582 0 0.0691185)
(-0.637012 0 0.0552555)
(-0.781769 0 0.0632702)
(-0.655477 0 0.0502428)
(-0.798479 0 0.0577623)
(-0.674114 0 0.0462167)
(-0.815598 0 0.0531257)
(-0.692184 0 0.0428847)
(-0.832635 0 0.0492737)
(-0.708931 0 0.0397042)
(-0.848923 0 0.0456326)
(-0.723599 0 0.0363298)
(-0.86363 0 0.0416894)
(-0.735786 0 0.0328621)
(-0.876063 0 0.037409)
(-0.745576 0 0.0297505)
(-0.885949 0 0.0333013)
(-0.753405 0 0.0273236)
(-0.893628 0 0.0299994)
(-0.759755 0 0.0253864)
(-0.899915 0 0.0276568)
(-0.765438 0 0.0236172)
(-0.905342 0 0.0257616)
(-0.908656 0 0.0242533)
(-0.0974673 0 -0.621254)
(-0.0892766 0 -0.648205)
(-0.216805 0 -0.459097)
(-0.20019 0 -0.473333)
(-0.334598 0 -0.325256)
(-0.36182 0 -0.321613)
(-0.443604 0 -0.22752)
(-0.493101 0 -0.216016)
(-0.539653 0 -0.15453)