/*--------------------------------*- C++ -*----------------------------------*\
  =========                 |
  \\      /  F ield         | OpenFOAM: The Open Source CFD Toolbox
   \\    /   O peration     | Website:  https://openfoam.org
    \\  /    A nd           | Version:  dev
     \\/     M anipulation  |
\*---------------------------------------------------------------------------*/
FoamFile
{
    version     2.0;
    format      ascii;
    class       surfaceScalarField;
    location    "0.2";
    object      phi;
}
// * * * * * * * * * * * * * * * * * * * * * * * * * * * * * * * * * * * * * //

dimensions      [0 3 -1 0 0 0 0];

internalField   nonuniform List<scalar> 
5457
(
0.198447
0.00155262
0.196569
0.00187865
0.194368
0.00220028
0.191802
0.00256691
0.188866
0.00293541
0.185565
0.00330073
0.181896
0.00366976
0.177848
0.0040477
0.173411
0.00443671
0.168574
0.0048372
0.163325
0.0052487
0.157655
0.00567025
0.151555
0.00610057
0.145016
0.00653815
0.138035
0.00698121
0.130608
0.00742737
0.122734
0.00787333
0.11442
0.0083142
0.105677
0.00874298
0.0965274
0.00914989
0.0870055
0.00952194
0.0771627
0.00984274
0.0670699
0.0100928
0.0568196
0.0102503
0.0465265
0.0102931
0.036326
0.0102005
0.0263694
0.00995667
0.0168214
0.00954797
0.00783287
0.00898851
0.00783287
0.199958
0.0015948
0.199264
0.00257228
0.19814
0.00332425
0.196621
0.00408635
0.194699
0.00485711
0.192369
0.00563036
0.189623
0.00641668
0.186444
0.00722642
0.182816
0.00806495
0.178719
0.00893394
0.174135
0.00983291
0.169045
0.0107599
0.163433
0.011712
0.157286
0.0126856
0.150591
0.0136762
0.14334
0.0146782
0.135529
0.0156843
0.127159
0.0166841
0.118239
0.0176635
0.108786
0.0186032
0.0988297
0.0194778
0.0884167
0.0202558
0.0776101
0.0208994
0.0664935
0.0213669
0.0551713
0.0216152
0.0437666
0.0216052
0.0324144
0.0213088
0.021248
0.0207144
0.0103584
0.0198782
0.0181912
0.199809
0.00178542
0.199173
0.00320901
0.198116
0.00438123
0.196688
0.00551411
0.194893
0.00665246
0.192722
0.00780066
0.190167
0.00897215
0.187212
0.0101816
0.183838
0.0114384
0.180025
0.0127467
0.175751
0.0141072
0.170993
0.0155178
0.16573
0.0169751
0.159942
0.0184739
0.15361
0.020008
0.146719
0.0215696
0.139254
0.0231484
0.131208
0.0247302
0.122576
0.0262955
0.113362
0.0278176
0.103578
0.0292615
0.0932511
0.0305829
0.0824224
0.0317281
0.0711525
0.0326367
0.0595229
0.0332449
0.0476351
0.033493
0.0356072
0.0333367
0.0235655
0.0327561
0.0116136
0.0318301
0.0298048
0.199732
0.00205384
0.199093
0.00384802
0.198055
0.00541912
0.196651
0.00691821
0.19489
0.00841286
0.192768
0.00992252
0.190276
0.0114648
0.187399
0.0130579
0.184123
0.0147147
0.180428
0.016442
0.176293
0.0182419
0.171698
0.0201132
0.16662
0.0220522
0.161041
0.0240536
0.154938
0.0261105
0.148294
0.0282142
0.141089
0.0303532
0.133308
0.0325115
0.124936
0.0346668
0.115966
0.0367884
0.106392
0.0388348
0.0962229
0.0407523
0.0854765
0.0424746
0.0741888
0.0439244
0.0624165
0.0450172
0.0502397
0.0456699
0.0377624
0.0458139
0.0251127
0.0454058
0.0124221
0.0445207
0.0422269
0.199696
0.00235834
0.199048
0.00449587
0.198028
0.00643912
0.196651
0.00829494
0.194927
0.0101364
0.192853
0.0119964
0.19042
0.0138981
0.187615
0.0158629
0.184423
0.0179067
0.180827
0.0200387
0.176806
0.0222625
0.172342
0.0245775
0.167414
0.0269804
0.162001
0.0294661
0.156084
0.0320279
0.149641
0.0346575
0.14265
0.0373436
0.135091
0.0400706
0.126942
0.0428161
0.118182
0.045548
0.108795
0.048222
0.0987684
0.0507788
0.0881001
0.0531429
0.0768025
0.055222
0.0649085
0.0569112
0.0524789
0.0580995
0.0396077
0.0586851
0.0264291
0.0585845
0.0131062
0.0578436
0.0553331
0.19968
0.00267792
0.199031
0.00514549
0.198033
0.00743723
0.196691
0.00963618
0.195014
0.0118139
0.192998
0.0140123
0.190635
0.0162612
0.187913
0.0185851
0.184817
0.0210026
0.18133
0.023525
0.177435
0.0261573
0.173113
0.0288999
0.168344
0.03175
0.163107
0.0347031
0.157381
0.0377536
0.151144
0.0408945
0.144371
0.0441164
0.137036
0.0474059
0.129109
0.0507428
0.12056
0.054097
0.111357
0.0574248
0.10147
0.0606654
0.0908759
0.0637374
0.079561
0.0665369
0.0675338
0.0689384
0.0548341
0.0707991
0.0415454
0.0719738
0.0278089
0.072321
0.0138211
0.0718314
0.0691542
0.199677
0.00300079
0.199035
0.00578812
0.198063
0.00840864
0.196764
0.0109351
0.195142
0.0134362
0.193194
0.0159601
0.190913
0.0185422
0.188288
0.0212106
0.185304
0.0239864
0.181946
0.0268829
0.178197
0.0299066
0.174038
0.0330587
0.16945
0.0363376
0.164413
0.0397399
0.158905
0.0432616
0.152902
0.046898
0.146375
0.0506433
0.139293
0.054488
0.131619
0.0584169
0.123311
0.0624052
0.114322
0.0664137
0.104602
0.0703848
0.0941033
0.0742363
0.0827834
0.0778569
0.0706192
0.0811025
0.0576219
0.0837965
0.0438563
0.0857394
0.029466
0.0867113
0.0146836
0.0866138
0.0838378
0.199681
0.00331964
0.199053
0.00641602
0.198114
0.00934789
0.196864
0.0121853
0.195305
0.0149952
0.193435
0.0178296
0.191248
0.0207292
0.188734
0.0237255
0.185878
0.026842
0.182667
0.030094
0.179084
0.0334894
0.175112
0.0370305
0.170733
0.0407169
0.165926
0.0445468
0.160669
0.0485187
0.154936
0.0526314
0.148695
0.0568835
0.141911
0.0612721
0.134539
0.0657892
0.126525
0.070419
0.117807
0.0751318
0.108313
0.0798788
0.0979652
0.0845843
0.0866853
0.0891367
0.0744076
0.0933802
0.0610984
0.0971057
0.0467858
0.100052
0.0316006
0.101897
0.0158092
0.102405
0.099647
0.19969
0.00362958
0.199083
0.00702284
0.198182
0.0102494
0.196987
0.0133805
0.195499
0.0164828
0.193717
0.0196113
0.191635
0.022811
0.189244
0.0261167
0.186532
0.0295544
0.183485
0.0331409
0.180089
0.0368855
0.176327
0.040792
0.172183
0.0448612
0.167636
0.0490935
0.162665
0.0534901
0.157242
0.0580543
0.151335
0.0627907
0.144903
0.0677043
0.137894
0.0727976
0.130246
0.0780672
0.121879
0.0834984
0.112699
0.0890588
0.102595
0.0946886
0.0914431
0.100289
0.0791192
0.105704
0.0655197
0.110705
0.050602
0.11497
0.0344484
0.11805
0.0173413
0.119512
0.116988
0.199702
0.00392712
0.199122
0.00760335
0.198264
0.0111078
0.197129
0.0145148
0.19572
0.0178918
0.194035
0.0212966
0.192068
0.0247775
0.189813
0.0283724
0.187258
0.0321094
0.184391
0.0360072
0.181201
0.0400762
0.177671
0.0443214
0.173787
0.0487453
0.169531
0.0533502
0.16488
0.0581409
0.159809
0.0631255
0.154284
0.0683157
0.148262
0.073726
0.141688
0.0793714
0.13449
0.0852648
0.126577
0.0914122
0.11783
0.0978059
0.108103
0.104415
0.0972218
0.11117
0.0849841
0.117942
0.0711827
0.124506
0.0556482
0.130504
0.0383412
0.135357
0.0194986
0.138355
0.136487
0.199717
0.00420964
0.199168
0.00815331
0.198357
0.0119183
0.197289
0.0155828
0.195965
0.0192159
0.194384
0.0228777
0.192542
0.0266194
0.190433
0.0304817
0.188047
0.0344947
0.185376
0.0386783
0.182408
0.0430443
0.179131
0.0475987
0.175531
0.0523454
0.171592
0.057289
0.167295
0.0624377
0.162616
0.0678048
0.157522
0.0734093
0.151972
0.0792761
0.145909
0.0854345
0.139257
0.0919167
0.131916
0.0987539
0.12375
0.105972
0.114582
0.113583
0.104181
0.121571
0.0922555
0.129867
0.0784549
0.138307
0.0624016
0.146557
0.0437963
0.153963
0.0226612
0.15949
0.159148
0.199735
0.00447508
0.199219
0.00866925
0.19846
0.0126768
0.197463
0.0165797
0.19623
0.0204493
0.19476
0.0243476
0.193051
0.0283285
0.191097
0.0324351
0.188893
0.0366989
0.18643
0.0411413
0.1837
0.0457747
0.180692
0.050606
0.177397
0.0556405
0.173802
0.0608847
0.169889
0.0663499
0.16564
0.0720543
0.161025
0.0780241
0.156007
0.0842946
0.150531
0.0909098
0.144526
0.0979221
0.137888
0.105391
0.130477
0.113383
0.122094
0.121966
0.112463
0.131201
0.101203
0.141128
0.0877905
0.15172
0.0715433
0.162805
0.0516701
0.173836
0.0275625
0.183598
0.186711
0.199753
0.00472188
0.199274
0.00914834
0.198571
0.0133796
0.19765
0.0175013
0.196512
0.021587
0.195159
0.0257006
0.193589
0.0298982
0.1918
0.0342246
0.189786
0.0387129
0.187542
0.0433852
0.185062
0.0482545
0.18234
0.0533283
0.179368
0.0586126
0.176137
0.0641154
0.172636
0.0698506
0.16885
0.0758405
0.164757
0.0821175
0.160325
0.088726
0.155512
0.0957235
0.150252
0.103182
0.144455
0.111188
0.137988
0.119851
0.130655
0.129299
0.122164
0.139692
0.112076
0.151216
0.0997131
0.164083
0.0840268
0.178491
0.0634269
0.194436
0.0357652
0.211259
0.222476
0.199773
0.00494878
0.199333
0.00958834
0.198689
0.0140238
0.197846
0.0183442
0.196808
0.0226249
0.195577
0.0269318
0.194152
0.0313227
0.192533
0.0358437
0.190717
0.0405291
0.188701
0.0454012
0.186482
0.0504735
0.184057
0.0557534
0.181422
0.0612471
0.178574
0.0669636
0.175507
0.0729181
0.172211
0.0791358
0.168675
0.0856536
0.164878
0.0925229
0.160791
0.0998111
0.156367
0.107605
0.151538
0.116017
0.146202
0.125187
0.140198
0.135304
0.133273
0.146616
0.125015
0.159474
0.114712
0.174386
0.101072
0.192131
0.081578
0.213929
0.0510122
0.241825
0.273488
0.199794
0.00515487
0.199395
0.00998749
0.198811
0.0146072
0.19805
0.0191055
0.197115
0.0235599
0.196009
0.0280376
0.194734
0.0325977
0.193291
0.0372875
0.191678
0.0421417
0.189896
0.0471829
0.187946
0.0524241
0.185826
0.0578725
0.18354
0.0635337
0.181087
0.0694166
0.178468
0.0755367
0.175684
0.0819203
0.172731
0.0886064
0.169604
0.09565
0.166291
0.103124
0.162773
0.111124
0.159016
0.119774
0.154967
0.129236
0.150542
0.139729
0.145598
0.15156
0.139888
0.165184
0.132949
0.181325
0.123815
0.201264
0.110078
0.227666
0.083637
0.268266
0.357125
-0.0133249
0.0133249
-0.0282912
0.0149664
-0.0443723
0.0160811
-0.0613635
0.0169911
-0.0788934
0.0175299
-0.0964566
0.0175632
-0.113433
0.0169765
-0.129112
0.0156786
-0.142722
0.0136101
-0.153479
0.0107568
-0.160642
0.0071638
-0.163574
0.00293137
-0.161839
-0.00173441
-0.155203
-0.00663607
-0.143842
-0.0113613
-0.128293
-0.0155488
-0.109357
-0.0189361
-0.0879858
-0.0213714
-0.0651701
-0.0228158
-0.0417986
-0.0233714
-0.0186654
-0.0231332
0.00352634
-0.0221918
0.0244001
-0.0208738
0.0436569
-0.0192567
0.0612651
-0.0176082
0.0772341
-0.015969
0.0916187
-0.0143846
0.104529
-0.0129101
0.116134
-0.0116054
-0.0109017
-0.014927
0.0282519
-0.0308926
0.0309319
-0.0477564
0.032945
-0.0653663
0.0346011
-0.0833749
0.0355384
-0.101285
0.0354733
-0.118475
0.0341663
-0.134226
0.0314296
-0.147755
0.0271398
-0.158265
0.0212663
-0.164998
0.0138973
-0.16734
0.00527268
-0.164838
-0.00423615
-0.157382
-0.0140915
-0.145227
-0.0235169
-0.128956
-0.0318191
-0.109391
-0.0385012
-0.0874674
-0.0432954
-0.0641289
-0.0461543
-0.0402741
-0.0472262
-0.0166648
-0.0467425
0.00595547
-0.0448121
0.0271747
-0.0420931
0.0468663
-0.0389483
0.0649668
-0.0357087
0.0814734
-0.0324757
0.0964362
-0.0293474
0.109952
-0.0264257
0.12215
-0.0238039
-0.0218609
-0.0155697
0.0438216
-0.0321049
0.0474671
-0.0494508
0.0502909
-0.0674456
0.0525958
-0.0857363
0.0538291
-0.103825
0.0535624
-0.12109
0.0514308
-0.136806
0.0471454
-0.150181
0.0405151
-0.160403
0.0314881
-0.166702
0.0201966
-0.168442
0.00701254
-0.165208
-0.00747055
-0.156943
-0.0223559
-0.144014
-0.0364457
-0.127097
-0.0487363
-0.107064
-0.0585341
-0.0848662
-0.0654935
-0.0614361
-0.0695845
-0.0376624
-0.0709999
-0.0142227
-0.0701822
0.00820925
-0.067244
0.0291748
-0.0630587
0.048642
-0.0584155
0.0665346
-0.0536012
0.0828433
-0.0487844
0.0976174
-0.0441215
0.110949
-0.0397577
0.122959
-0.0358139
-0.0326428
-0.0158834
0.059705
-0.0327292
0.0643129
-0.0503537
0.0679154
-0.0685737
0.0708158
-0.0870261
0.0722815
-0.105206
0.0717426
-0.122482
0.0687062
-0.13811
0.0627742
-0.151271
0.0536757
-0.161112
0.0413288
-0.166827
0.0259119
-0.167762
0.00794775
-0.163547
-0.0116855
-0.15427
-0.0316329
-0.140426
-0.0502899
-0.122788
-0.0663745
-0.102284
-0.0790384
-0.0798772
-0.0878999
-0.0564851
-0.0929766
-0.0329079
-0.0945771
-0.00989764
-0.0931924
0.012038
-0.0891796
0.0325633
-0.083584
0.0516099
-0.077462
0.0691034
-0.0710948
0.0850372
-0.0647181
0.0994612
-0.0585456
0.112465
-0.0527618
0.124164
-0.0475131
-0.0431208
-0.0159207
0.0756257
-0.032773
0.0811652
-0.0503771
0.0855196
-0.0685378
0.0889764
-0.0868852
0.0906289
-0.10491
0.0897672
-0.121967
0.0857632
-0.137291
0.0780986
-0.150026
0.0664105
-0.159276
0.0505789
-0.164203
0.0308389
-0.164136
0.00788122
-0.158788
-0.0170337
-0.148418
-0.042003
-0.133654
-0.0650539
-0.115364
-0.0846643
-0.0945221
-0.0998806
-0.07209
-0.110332
-0.0489572
-0.116109
-0.0258213
-0.117713
-0.00349353
-0.11552
0.0176559
-0.110329
0.0375179
-0.103446
0.0559315
-0.0958756
0.072825
-0.0879882
0.0881994
-0.0800925
0.102108
-0.0724542
0.114639
-0.065293
0.125905
-0.0587789
-0.0531956
-0.0155633
0.091189
-0.0320062
0.0976081
-0.0491605
0.102674
-0.0668376
0.106653
-0.0846773
0.108469
-0.102176
0.107266
-0.118688
0.102274
-0.133427
0.0928382
-0.145501
0.0784842
-0.15396
0.0590383
-0.157912
0.0347901
-0.156729
0.00669838
-0.150189
-0.0235737
-0.138753
-0.0534389
-0.123189
-0.080618
-0.104442
-0.103411
-0.0835092
-0.120813
-0.0613273
-0.132514
-0.0387063
-0.13873
-0.0163877
-0.140032
0.00496848
-0.136876
0.0251425
-0.130503
0.0441019
-0.122405
0.0616599
-0.113434
0.0777467
-0.104075
0.0923724
-0.0947182
0.105596
-0.0856775
0.117505
-0.0772019
0.128208
-0.0694823
-0.0627568
-0.0146682
0.105857
-0.0301509
0.113091
-0.046301
0.118824
-0.0629569
0.123309
-0.0797883
0.1253
-0.0963167
0.123795
-0.111906
0.117863
-0.12576
0.106693
-0.136942
0.0896661
-0.144433
0.0665295
-0.147266
0.0376226
-0.144848
0.00428086
-0.137123
-0.0312986
-0.124763
-0.0657987
-0.108652
-0.0967299
-0.0897679
-0.122295
-0.0690987
-0.141482
-0.0475186
-0.154094
-0.0257695
-0.160479
-0.00466246
-0.161139
0.0154297
-0.156968
0.0344492
-0.149523
0.0522846
-0.140241
0.0687685
-0.129917
0.083846
-0.119153
0.0975389
-0.108411
0.109912
-0.0980509
0.121055
-0.0883445
0.131071
-0.0794987
-0.0717013
-0.0131067
0.118964
-0.0269644
0.126948
-0.0414553
0.133315
-0.0564653
0.138319
-0.0717124
0.140547
-0.0867596
0.138842
-0.100992
0.132096
-0.11361
0.11931
-0.123631
0.0996868
-0.129943
0.072842
-0.131575
0.0392548
-0.127859
0.000563929
-0.119043
-0.0401146
-0.106036
-0.0788053
-0.0897724
-0.112993
-0.0711959
-0.140871
-0.0512466
-0.161432
-0.0307198
-0.174621
-0.0103182
-0.180881
0.0092511
-0.180708
0.02783
-0.175547
0.0454854
-0.167178
0.0619745
-0.15673
0.07717
-0.145113
0.0910436
-0.133026
0.103631
-0.120998
0.115003
-0.109423
0.125248
-0.0985894
0.134464
-0.088715
-0.0799353
-0.0107879
0.129752
-0.0222819
0.138442
-0.0343934
0.145426
-0.0470721
0.150998
-0.0600976
0.153573
-0.0730899
0.151834
-0.0854715
0.144477
-0.0964484
0.130287
-0.105007
0.108245
-0.109989
0.0778238
-0.110214
0.0394803
-0.105199
-0.00445086
-0.0955104
-0.0498036
-0.0822945
-0.0920211
-0.0664335
-0.128855
-0.0487097
-0.158595
-0.030025
-0.180116
-0.0110193
-0.193626
0.007434
-0.199334
0.0251079
-0.198382
0.0420959
-0.192535
0.0581287
-0.183211
0.0730332
-0.171634
0.0867297
-0.158809
0.0992159
-0.145512
0.11054
-0.132322
0.120776
-0.119659
0.13001
-0.107823
0.138329
-0.0970348
-0.0873802
-0.00767642
0.137428
-0.0160464
0.146812
-0.025035
0.154415
-0.034666
0.160629
-0.0447843
0.163691
-0.0550805
0.162131
-0.0650327
0.15443
-0.0738812
0.139136
-0.0806314
0.114995
-0.0841288
0.0813212
-0.0827595
0.038111
-0.076509
-0.0107014
-0.0663278
-0.0599847
-0.0535045
-0.104844
-0.0387398
-0.143619
-0.0224584
-0.174877
-0.00563443
-0.19694
0.0110363
-0.210297
0.027252
-0.21555
0.0430246
-0.214155
0.0580766
-0.207587
0.0722006
-0.197335
0.0852797
-0.184714
0.0972746
-0.170804
0.108205
-0.156443
0.118127
-0.142244
0.127115
-0.128647
0.135244
-0.115953
0.142591
-0.104382
-0.0939748
-0.00380459
0.141233
-0.00832897
0.151337
-0.0134867
0.159573
-0.0193758
0.166518
-0.0258918
0.170207
-0.0328024
0.169041
-0.0396544
0.161282
-0.0457441
0.145226
-0.0501431
0.119394
-0.0514998
0.082678
-0.0488869
0.0354981
-0.0416884
-0.0178998
-0.0316935
-0.0699797
-0.0199691
-0.116569
-0.00675323
-0.156835
0.00702954
-0.188659
0.0211519
-0.211063
0.0353111
-0.224456
0.0492801
-0.229519
0.0627579
-0.227632
0.0755329
-0.220362
0.0874655
-0.209267
0.0984894
-0.195738
0.108598
-0.180913
0.117827
-0.165671
0.126233
-0.150651
0.133883
-0.136297
0.14084
-0.122909
0.14716
-0.110702
-0.0996777
0.000674484
0.140558
0.000703823
0.151307
-8.74891e-05
0.160364
-0.00164391
0.168075
-0.0039525
0.172515
-0.006854
0.171943
-0.0100025
0.16443
-0.012766
0.147989
-0.0139905
0.120619
-0.0122513
0.0809388
-0.00718746
0.0304342
-0.00030005
-0.0247872
0.00759
-0.0778697
0.0171755
-0.126154
0.027685
-0.167345
0.0388148
-0.199789
0.0503537
-0.222601
0.061886
-0.235989
0.0731608
-0.240794
0.0839601
-0.238432
0.0941412
-0.230543
0.103627
-0.218753
0.112396
-0.204506
0.120466
-0.188983
0.127878
-0.173084
0.134686
-0.157458
0.140938
-0.14255
0.14668
-0.128651
0.151943
-0.115965
-0.104467
0.00591899
0.134639
0.0108595
0.146367
0.0147551
0.156468
0.0178393
0.16499
0.0201162
0.170239
0.0216816
0.170377
0.0228522
0.163259
0.0242985
0.146543
0.0270512
0.117866
0.0316141
0.0763759
0.0371729
0.0248754
0.0429834
-0.0305977
0.0494795
-0.0843659
0.0567453
-0.13342
0.0646886
-0.175288
0.0730725
-0.208173
0.0816564
-0.231185
0.0901502
-0.244482
0.0983622
-0.249006
0.106165
-0.246235
0.113494
-0.237872
0.120332
-0.225592
0.126696
-0.21087
0.132621
-0.194907
0.138145
-0.178608
0.143307
-0.16262
0.148135
-0.147378
0.152646
-0.133162
0.156846
-0.120165
-0.108343
0.0122257
0.122414
0.0222711
0.136322
0.030782
0.147958
0.0385598
0.157213
0.0455073
0.163291
0.0516974
0.164187
0.0575007
0.157456
0.0635247
0.140519
0.0701909
0.1112
0.0769576
0.0696092
0.0828133
0.0190198
0.0878948
-0.0356792
0.0928004
-0.0892715
0.0979033
-0.138523
0.103259
-0.180644
0.108726
-0.21364
0.114132
-0.236591
0.119321
-0.249672
0.124218
-0.253903
0.128807
-0.250824
0.133113
-0.242178
0.137181
-0.22966
0.14106
-0.21475
0.144793
-0.19864
0.14841
-0.182225
0.151924
-0.166134
0.155335
-0.150789
0.15863
-0.136457
0.161782
-0.123318
-0.11132
0.0209814
0.101432
0.0348071
0.122496
0.0476513
0.135113
0.0600583
0.144806
0.071477
0.151872
0.082073
0.153591
0.0922448
0.147284
0.102292
0.130472
0.111947
0.101544
0.120382
0.0611747
0.126996
0.0124053
0.131745
-0.0404276
0.135589
-0.0931155
0.138963
-0.141897
0.14197
-0.183651
0.144572
-0.216243
0.146743
-0.238762
0.148513
-0.251443
0.149976
-0.255365
0.151255
-0.252103
0.152477
-0.2434
0.15375
-0.230932
0.155149
-0.216149
0.156716
-0.200207
0.158462
-0.183971
0.160372
-0.168044
0.162411
-0.152828
0.164532
-0.138578
0.166676
-0.125462
-0.113432
0.207468
0.00534605
0.207099
0.0103573
0.206559
0.0151465
0.205858
0.0198073
0.204999
0.0244188
0.203987
0.0290492
0.202826
0.0337588
0.201518
0.0385955
0.200065
0.0435942
0.198471
0.0487771
0.196739
0.0541564
0.194873
0.0597383
0.19288
0.0655271
0.190766
0.0715303
0.18854
0.0777627
0.186211
0.0842491
0.183789
0.0910282
0.181285
0.098154
0.17871
0.105699
0.176075
0.113759
0.173393
0.122455
0.17068
0.131949
0.167956
0.142452
0.165259
0.154258
0.162661
0.167783
0.160339
0.183647
0.158819
0.202784
0.160205
0.226281
0.177043
0.251428
0.265741
0.268427
0.212512
0.00551731
0.212181
0.0106882
0.211699
0.0156278
0.211075
0.0204315
0.210314
0.0251795
0.209423
0.0299409
0.208405
0.0347763
0.207267
0.0397339
0.206013
0.0448484
0.204649
0.050141
0.203183
0.0556228
0.201623
0.0612979
0.199981
0.0671689
0.198271
0.0732407
0.196508
0.0795251
0.194713
0.0860442
0.192909
0.0928324
0.191124
0.0999389
0.189394
0.107429
0.187765
0.115388
0.186297
0.123923
0.185081
0.133165
0.184251
0.143282
0.184031
0.154478
0.184825
0.166989
0.18743
0.181042
0.193539
0.196675
0.206257
0.213562
0.226909
0.230777
0.247112
0.245538
0.217678
0.00566662
0.21739
0.0109762
0.216973
0.0160455
0.216433
0.020971
0.215779
0.0258333
0.215018
0.030702
0.214156
0.035638
0.213201
0.0406891
0.212161
0.045889
0.211044
0.0512578
0.209862
0.0568045
0.208629
0.0625309
0.207362
0.0684366
0.206079
0.0745228
0.204807
0.0807972
0.203575
0.0872764
0.202419
0.0939881
0.201386
0.100972
0.200533
0.108283
0.199936
0.115985
0.199699
0.124159
0.199967
0.132897
0.200952
0.142298
0.202972
0.152458
0.206515
0.163445
0.212297
0.17526
0.221204
0.187768
0.233974
0.200793
0.250286
0.214465
0.226139
0.271259
0.222971
0.0057921
0.22273
0.0112178
0.222381
0.0163944
0.221933
0.0214189
0.221394
0.026372
0.220773
0.0313233
0.220078
0.0363331
0.219318
0.0414486
0.218505
0.0467024
0.21765
0.0521125
0.216769
0.0576856
0.21588
0.0634203
0.215004
0.0693124
0.214168
0.0753587
0.213404
0.081561
0.212751
0.087929
0.212258
0.0944812
0.211985
0.101246
0.212007
0.10826
0.212423
0.115569
0.213362
0.12322
0.214997
0.131262
0.217561
0.139734
0.221365
0.148654
0.226811
0.157999
0.234381
0.16769
0.24458
0.177569
0.258038
0.187335
0.275821
0.196682
0.203315
0.298644
0.228393
0.00589206
0.228202
0.0114096
0.227926
0.0166699
0.227576
0.0217692
0.227159
0.0267884
0.226687
0.0317961
0.226168
0.036852
0.225614
0.0420022
0.225039
0.0472772
0.224458
0.0526932
0.22389
0.0582537
0.223357
0.0639538
0.222885
0.0697847
0.222506
0.0757379
0.222258
0.0818086
0.222189
0.0879982
0.222355
0.0943151
0.222827
0.100774
0.223692
0.107395
0.22506
0.114201
0.22707
0.12121
0.229898
0.128435
0.233763
0.135869
0.238937
0.143479
0.245745
0.151192
0.254563
0.158872
0.265826
0.166305
0.280045
0.173116
0.297791
0.178936
0.182732
0.318375
0.233948
0.00596499
0.233808
0.0115489
0.233611
0.0168676
0.233363
0.0220168
0.233075
0.0270762
0.232758
0.0321134
0.232423
0.037187
0.232084
0.0423413
0.231756
0.0476049
0.231458
0.0529912
0.231211
0.0585005
0.231041
0.064124
0.230978
0.069848
0.231057
0.075658
0.231324
0.0815424
0.231828
0.0874937
0.232634
0.0935096
0.233816
0.099592
0.235467
0.105744
0.237698
0.111969
0.240646
0.118262
0.244475
0.124606
0.249379
0.130965
0.255585
0.137274
0.263349
0.143427
0.272954
0.149267
0.284684
0.154576
0.298754
0.159046
0.315303
0.162386
0.164131
0.333904
0.239637
0.00600959
0.239553
0.011633
0.239436
0.0169843
0.239295
0.0221573
0.239141
0.0272303
0.238985
0.0322696
0.23884
0.0373321
0.238721
0.04246
0.238646
0.0476797
0.238636
0.0530016
0.238714
0.0584225
0.238909
0.0639295
0.239253
0.0695038
0.239786
0.0751253
0.240553
0.0807749
0.24161
0.086437
0.24302
0.0920992
0.244861
0.0977512
0.247223
0.103383
0.250212
0.10898
0.253953
0.114521
0.258589
0.11997
0.264282
0.125272
0.27121
0.130346
0.279557
0.13508
0.289503
0.139322
0.301193
0.142886
0.314699
0.145539
0.33004
0.147045
0.147154
0.347017
0.245464
0.00602482
0.245437
0.0116601
0.245404
0.0170171
0.245374
0.0221872
0.245357
0.027247
0.245366
0.0322608
0.245415
0.0372835
0.24552
0.042355
0.2457
0.0474991
0.245979
0.0527232
0.246381
0.0580205
0.246936
0.0633741
0.247679
0.0687604
0.248651
0.0741536
0.249898
0.0795281
0.251474
0.0848605
0.253444
0.0901297
0.255879
0.0953156
0.258865
0.100397
0.262497
0.105348
0.266883
0.110135
0.27214
0.114713
0.278394
0.119017
0.285773
0.122967
0.294398
0.126455
0.304368
0.129352
0.315749
0.131505
0.328545
0.132743
0.342704
0.132886
0.131805
0.358054
0.251432
0.00600994
0.251463
0.0116288
0.251516
0.016964
0.251599
0.0221044
0.251722
0.027124
0.251898
0.0320849
0.252142
0.0370396
0.252471
0.0420256
0.252907
0.0470639
0.253471
0.0521588
0.254191
0.0573003
0.255098
0.0624675
0.256226
0.0676325
0.257615
0.0727642
0.259312
0.0778316
0.261367
0.0828049
0.263841
0.0876558
0.2668
0.0923568
0.270318
0.0968789
0.274477
0.101189
0.279364
0.105248
0.28507
0.109006
0.291687
0.112401
0.299298
0.115356
0.307973
0.11778
0.317758
0.119567
0.328662
0.120601
0.340644
0.120761
0.353605
0.119925
0.118033
0.367377
0.257544
0.00596445
0.257635
0.0115381
0.257775
0.0168241
0.257972
0.0219078
0.258235
0.0268604
0.258578
0.0317416
0.259017
0.0366011
0.259569
0.0414738
0.260255
0.046378
0.261098
0.0513151
0.262127
0.056272
0.26337
0.0612241
0.264863
0.06614
0.266642
0.0709845
0.268752
0.0757218
0.27124
0.0803173
0.274158
0.0847376
0.277565
0.0889501
0.281522
0.0929216
0.286095
0.0966159
0.291352
0.0999917
0.297357
0.103001
0.304171
0.105587
0.311841
0.107685
0.3204
0.109221
0.329852
0.110114
0.340171
0.110282
0.351286
0.109645
0.363083
0.108129
0.105711
0.375404
0.263804
0.0058882
0.263954
0.0113878
0.264181
0.0165971
0.264492
0.0215974
0.264895
0.026457
0.265404
0.0312324
0.266034
0.0359708
0.266804
0.0407044
0.267733
0.0454486
0.268846
0.0502022
0.270169
0.0549494
0.27173
0.0596629
0.273562
0.0643081
0.2757
0.0688466
0.278182
0.0732394
0.281051
0.0774485
0.284351
0.0814375
0.28813
0.0851713
0.292437
0.0886147
0.297321
0.0917316
0.30283
0.0944827
0.309006
0.0968249
0.315883
0.0987104
0.323482
0.100087
0.331804
0.100899
0.340828
0.10109
0.350504
0.100606
0.360751
0.0993981
0.371452
0.0974283
0.0946988
0.382464
0.270214
0.00578132
0.270423
0.0111783
0.270737
0.0162837
0.27116
0.0211746
0.271701
0.0259158
0.272372
0.0305609
0.273189
0.0351539
0.274169
0.0397245
0.275332
0.0442856
0.276701
0.0488335
0.2783
0.0533503
0.280157
0.0578064
0.2823
0.062165
0.28476
0.0663858
0.287572
0.0704278
0.290769
0.0742512
0.294389
0.0778182
0.298467
0.0810932
0.30304
0.0840417
0.308142
0.0866296
0.313802
0.088822
0.320044
0.0905828
0.32688
0.0918743
0.33431
0.0926578
0.342314
0.0928947
0.350856
0.0925486
0.359873
0.0915882
0.369282
0.0899899
0.37897
0.0877398
0.0848565
0.388812
0.276778
0.00564425
0.277046
0.0109104
0.277444
0.0158854
0.277977
0.0206417
0.278652
0.0252405
0.279481
0.0297319
0.280478
0.0341574
0.281659
0.0385436
0.283043
0.0429013
0.284651
0.0472249
0.286507
0.0514947
0.288634
0.0556796
0.291057
0.0597418
0.293803
0.0636398
0.296899
0.0673317
0.300373
0.0707776
0.304251
0.0739399
0.30856
0.0767841
0.313324
0.0792778
0.318563
0.0813908
0.324291
0.0830939
0.330515
0.0843588
0.337231
0.0851578
0.344424
0.085465
0.352062
0.0852565
0.360098
0.0845127
0.368467
0.0832199
0.377084
0.0813723
0.385851
0.0789731
0.0760505
0.394657
0.283499
0.00547771
0.283824
0.0105857
0.284305
0.0154047
0.284944
0.0200023
0.285749
0.0244358
0.286728
0.0287523
0.287896
0.03299
0.289266
0.0371731
0.290857
0.0413103
0.292688
0.0453945
0.294778
0.0494048
0.297148
0.0533096
0.299819
0.0570706
0.302812
0.0606462
0.306149
0.0639951
0.309849
0.067078
0.31393
0.0698589
0.318408
0.0723055
0.323297
0.074389
0.328604
0.0760836
0.334332
0.0773664
0.340474
0.0782169
0.347015
0.078617
0.353928
0.0785515
0.361175
0.0780092
0.368705
0.0769834
0.376451
0.0754735
0.384337
0.0734862
0.392274
0.0710359
0.0681556
0.400169
0.290381
0.00528266
0.290761
0.0102061
0.291321
0.0148445
0.292063
0.0192607
0.292991
0.0235079
0.294113
0.0276298
0.295441
0.0316617
0.296989
0.0356256
0.298771
0.0395283
0.300804
0.0433616
0.303104
0.0471041
0.30569
0.0507241
0.308577
0.0541838
0.311781
0.0574425
0.315315
0.0604602
0.319194
0.0631993
0.323427
0.0656262
0.328021
0.0677117
0.332979
0.0694311
0.338299
0.0707636
0.343973
0.0716923
0.349986
0.072204
0.356314
0.072289
0.362924
0.0719413
0.369774
0.0711593
0.376811
0.0699461
0.383974
0.0683105
0.391193
0.0662675
0.398391
0.0638381
0.0610573
0.405489
0.297428
0.00506032
0.29786
0.00977393
0.298496
0.0142086
0.299335
0.018422
0.300379
0.0224635
0.301636
0.0263733
0.303113
0.030184
0.304824
0.0339151
0.30678
0.0375723
0.308995
0.0411465
0.311483
0.0446163
0.314256
0.0479507
0.317327
0.0511129
0.320706
0.0540641
0.3244
0.056766
0.328415
0.0591838
0.332755
0.0612866
0.337418
0.063049
0.342398
0.0644502
0.347687
0.0654746
0.353269
0.0661109
0.359121
0.0663522
0.365214
0.0661958
0.371512
0.065643
0.377972
0.0646993
0.384543
0.0633752
0.391168
0.0616855
0.397785
0.0596502
0.404329
0.0572941
0.0546521
0.410734
0.304643
0.00481204
0.305125
0.00929198
0.305833
0.0135011
0.306763
0.0174921
0.307916
0.0213103
0.309297
0.0249925
0.310912
0.0285686
0.312771
0.0320561
0.314884
0.0354594
0.317261
0.0387693
0.319913
0.0419648
0.322847
0.045016
0.326072
0.0478879
0.329593
0.0505438
0.33341
0.0529481
0.337525
0.0550689
0.341933
0.0568786
0.346627
0.0583554
0.351595
0.0594828
0.35682
0.0602496
0.362281
0.0606495
0.367952
0.060681
0.373801
0.0603468
0.37979
0.0596537
0.385877
0.0586125
0.392014
0.0572383
0.39815
0.0555498
0.40423
0.0535697
0.4102
0.0513244
0.0488471
0.416005
0.312031
0.00453934
0.31256
0.0087632
0.313334
0.0127265
0.314349
0.0164771
0.315603
0.0200562
0.317099
0.0234973
0.31884
0.0268277
0.320833
0.0300631
0.323085
0.0332069
0.325604
0.03625
0.328397
0.0391721
0.331468
0.0419451
0.33482
0.0445362
0.338452
0.0469112
0.342363
0.0490376
0.346545
0.0508864
0.35099
0.0524337
0.355684
0.0536612
0.360611
0.0545562
0.365749
0.0551116
0.371073
0.0553252
0.376555
0.0551996
0.38216
0.0547417
0.387851
0.0539621
0.393589
0.0528753
0.399328
0.0514989
0.405024
0.0498539
0.41063
0.0479641
0.416098
0.0458555
0.0435595
0.421386
0.319595
0.00424379
0.320168
0.00819068
0.321005
0.0118896
0.322098
0.0153833
0.323445
0.0187092
0.325045
0.0218978
0.326899
0.0249735
0.329012
0.0279504
0.331388
0.0308312
0.334031
0.033607
0.336944
0.036259
0.340128
0.0387609
0.343582
0.0410822
0.347301
0.043192
0.351278
0.0450606
0.355502
0.0466624
0.359959
0.047977
0.364631
0.0489893
0.369497
0.0496899
0.374533
0.0500752
0.379712
0.0501463
0.385003
0.0499088
0.390372
0.0493725
0.395784
0.0485506
0.401199
0.0474596
0.40658
0.0461186
0.411885
0.0445491
0.417074
0.0427747
0.422109
0.0408206
0.0387154
0.426953
0.32734
0.00392694
0.327953
0.0075775
0.328848
0.0109948
0.330014
0.014217
0.331446
0.0172775
0.33314
0.0202037
0.335096
0.0230175
0.337315
0.0257314
0.339799
0.0283476
0.342548
0.0308577
0.345563
0.0332443
0.34884
0.0354833
0.352376
0.0375472
0.35616
0.0394077
0.360182
0.0410386
0.364427
0.0424176
0.368876
0.0435272
0.37351
0.0443555
0.378304
0.044896
0.383232
0.0451476
0.388264
0.0451139
0.39337
0.0448028
0.398517
0.0442257
0.40367
0.0433973
0.408795
0.042335
0.413856
0.041058
0.418817
0.0395878
0.423645
0.0379469
0.428306
0.0361587
0.0342492
0.432773
0.33527
0.00359031
0.335921
0.0069266
0.33687
0.0100466
0.338102
0.0129841
0.339611
0.0157686
0.341391
0.0184242
0.343438
0.0209705
0.345751
0.0234185
0.348328
0.0257699
0.351169
0.0280171
0.354269
0.0301442
0.357623
0.0321295
0.361222
0.0339483
0.365054
0.0355755
0.369104
0.0369882
0.373355
0.0381668
0.377785
0.039097
0.382371
0.0397694
0.387087
0.04018
0.391905
0.0403295
0.396796
0.0402233
0.401728
0.0398704
0.40667
0.0392834
0.411591
0.0384773
0.416456
0.0374693
0.421236
0.0362785
0.425898
0.0349251
0.430415
0.03343
0.434759
0.0318148
0.0301024
0.438906
0.343391
0.00323522
0.344077
0.0062406
0.345074
0.00904907
0.346368
0.0116901
0.347948
0.0141893
0.349804
0.0165677
0.351932
0.0188423
0.354328
0.0210226
0.356988
0.0231103
0.359907
0.0250982
0.363079
0.0269723
0.366495
0.0287133
0.370144
0.0302994
0.374011