/*--------------------------------*- C++ -*----------------------------------*\
  =========                 |
  \\      /  F ield         | OpenFOAM: The Open Source CFD Toolbox
   \\    /   O peration     | Website:  https://openfoam.org
    \\  /    A nd           | Version:  dev
     \\/     M anipulation  |
\*---------------------------------------------------------------------------*/
FoamFile
{
    version     2.0;
    format      ascii;
    class       volVectorField;
    location    "0.2";
    object      U;
}
// * * * * * * * * * * * * * * * * * * * * * * * * * * * * * * * * * * * * * //

dimensions      [0 1 -1 0 0 0 0];

internalField   nonuniform List<vector> 
2790
(
(9.94458 0 0.0201759)
(9.87831 0 0.0288559)
(9.78139 0 0.0348481)
(9.66074 0 0.0409738)
(9.52196 0 0.047312)
(9.36596 0 0.0537839)
(9.19201 0 0.0604785)
(8.99938 0 0.0675008)
(8.78753 0 0.0749159)
(8.55595 0 0.0827614)
(8.30408 0 0.0910652)
(8.0314 0 0.0998535)
(7.73743 0 0.109155)
(7.42177 0 0.119003)
(7.08411 0 0.129433)
(6.72423 0 0.140476)
(6.34205 0 0.152151)
(5.9377 0 0.16445)
(5.51157 0 0.177318)
(5.0645 0 0.190637)
(4.59784 0 0.204206)
(4.11371 0 0.217724)
(3.6151 0 0.230787)
(3.10604 0 0.2429)
(2.5917 0 0.253514)
(2.07832 0 0.262099)
(1.57315 0 0.268235)
(1.08443 0 0.271513)
(0.609048 0 0.272406)
(0.250399 0 0.253651)
(9.99909 0 0.0396302)
(9.98404 0 0.0601833)
(9.94192 0 0.0757763)
(9.87539 0 0.0920638)
(9.78855 0 0.109326)
(9.68222 0 0.127388)
(9.55566 0 0.146462)
(9.40792 0 0.166821)
(9.23812 0 0.188648)
(9.04538 0 0.21205)
(8.82876 0 0.237088)
(8.58732 0 0.263795)
(8.32021 0 0.292181)
(8.02664 0 0.322238)
(7.70599 0 0.353934)
(7.35774 0 0.387198)
(6.98159 0 0.421899)
(6.57743 0 0.457805)
(6.14549 0 0.494548)
(5.68638 0 0.531568)
(5.20128 0 0.568076)
(4.69202 0 0.603013)
(4.16128 0 0.635051)
(3.61269 0 0.66262)
(3.05092 0 0.684001)
(2.48163 0 0.697503)
(1.91134 0 0.701709)
(1.34767 0 0.695657)
(0.783753 0 0.680673)
(0.327028 0 0.630308)
(9.99617 0 0.0413967)
(9.97807 0 0.0715974)
(9.93779 0 0.0977631)
(9.87575 0 0.124857)
(9.79468 0 0.153614)
(9.69549 0 0.184027)
(9.57764 0 0.216419)
(9.44026 0 0.25121)
(9.28244 0 0.28872)
(9.10319 0 0.329158)
(8.90146 0 0.372655)
(8.67611 0 0.419288)
(8.42606 0 0.469088)
(8.15025 0 0.52205)
(7.84773 0 0.578128)
(7.51763 0 0.637217)
(7.15922 0 0.699112)
(6.77193 0 0.763463)
(6.35543 0 0.829698)
(5.90966 0 0.896951)
(5.435 0 0.96398)
(4.93239 0 1.02911)
(4.40346 0 1.0902)
(3.85072 0 1.14468)
(3.27765 0 1.18967)
(2.68882 0 1.22227)
(2.08968 0 1.23994)
(1.48782 0 1.24099)
(0.87303 0 1.22764)
(0.362 0 1.16614)
(9.99459 0 0.0469905)
(9.97429 0 0.088122)
(9.93379 0 0.125869)
(9.87294 0 0.163884)
(9.79355 0 0.203537)
(9.69645 0 0.245282)
(9.58133 0 0.289662)
(9.44745 0 0.337284)
(9.294 0 0.388659)
(9.1201 0 0.444162)
(8.92476 0 0.504063)
(8.70695 0 0.568546)
(8.46559 0 0.637729)
(8.19964 0 0.711677)
(7.90808 0 0.790394)
(7.58991 0 0.873806)
(7.24421 0 0.961724)
(6.8701 0 1.05377)
(6.46682 0 1.14929)
(6.03378 0 1.24727)
(5.57065 0 1.34619)
(5.07746 0 1.44395)
(4.55478 0 1.53781)
(4.00394 0 1.62439)
(3.42716 0 1.69979)
(2.82782 0 1.75992)
(2.21036 0 1.80105)
(1.58274 0 1.82033)
(0.931392 0 1.81993)
(0.382631 0 1.75734)
(9.99387 0 0.0540124)
(9.97238 0 0.104472)
(9.93175 0 0.15229)
(9.87198 0 0.200228)
(9.79432 0 0.250043)
(9.69939 0 0.302594)
(9.58694 0 0.358612)
(9.4563 0 0.418832)
(9.30672 0 0.483891)
(9.13737 0 0.55428)
(8.94734 0 0.630363)
(8.73564 0 0.712401)
(8.50127 0 0.800582)
(8.24321 0 0.895036)
(7.96045 0 0.995836)
(7.65195 0 1.10298)
(7.31665 0 1.21635)
(6.9535 0 1.33562)
(6.5614 0 1.46019)
(6.1393 0 1.58902)
(5.68625 0 1.7205)
(5.20148 0 1.85231)
(4.68458 0 1.9813)
(4.13573 0 2.10345)
(3.55597 0 2.21394)
(2.94756 0 2.30746)
(2.31399 0 2.3788)
(1.66401 0 2.42341)
(0.980874 0 2.44232)
(0.399496 0 2.38339)
(9.99357 0 0.0616557)
(9.97163 0 0.120838)
(9.93128 0 0.178231)
(9.87286 0 0.235992)
(9.79731 0 0.295931)
(9.70503 0 0.359165)
(9.59577 0 0.426597)
(9.46894 0 0.499082)
(9.32381 0 0.577382)
(9.15961 0 0.66211)
(8.97546 0 0.753735)
(8.77043 0 0.852616)
(8.54355 0 0.959029)
(8.29384 0 1.07319)
(8.02025 0 1.19529)
(7.7217 0 1.32541)
(7.39702 0 1.46359)
(7.04495 0 1.60963)
(6.66408 0 1.76307)
(6.25292 0 1.92299)
(5.8099 0 2.08784)
(5.33345 0 2.25527)
(4.82215 0 2.42193)
(4.27501 0 2.5833)
(3.69181 0 2.73372)
(3.07363 0 2.86655)
(2.4229 0 2.97473)
(1.74923 0 3.05122)
(1.03304 0 3.0947)
(0.417567 0 3.04229)
(9.9935 0 0.0695225)
(9.97162 0 0.137099)
(9.93197 0 0.203571)
(9.87521 0 0.270761)
(9.80212 0 0.340442)
(9.71296 0 0.413924)
(9.60745 0 0.492297)
(9.48507 0 0.576556)
(9.34515 0 0.667586)
(9.18695 0 0.766113)
(9.00963 0 0.872707)
(8.81232 0 0.987818)
(8.59407 0 1.11181)
(8.3539 0 1.24501)
(8.09076 0 1.3877)
(7.80351 0 1.54016)
(7.49084 0 1.70256)
(7.1513 0 1.87495)
(6.78316 0 2.05712)
(6.38446 0 2.24839)
(5.95298 0 2.44749)
(5.48628 0 2.65222)
(4.98186 0 2.85927)
(4.43734 0 3.06385)
(3.85098 0 3.2596)
(3.22231 0 3.43845)
(2.55229 0 3.59111)
(1.85108 0 3.70717)
(1.09637 0 3.78157)
(0.440415 0 3.73907)
(9.99359 0 0.0773799)
(9.97211 0 0.153067)
(9.93355 0 0.228151)
(9.87875 0 0.304327)
(9.80848 0 0.383341)
(9.72288 0 0.466645)
(9.62167 0 0.555497)
(9.50439 0 0.651029)
(9.37043 0 0.754238)
(9.21908 0 0.865956)
(9.04957 0 0.98685)
(8.86108 0 1.11746)
(8.6527 0 1.25825)
(8.42348 0 1.40967)
(8.17235 0 1.57214)
(7.89813 0 1.74612)
(7.59942 0 1.93203)
(7.27454 0 2.13022)
(6.92148 0 2.34082)
(6.53782 0 2.5636)
(6.12066 0 2.79772)
(5.66664 0 3.04143)
(5.17198 0 3.29173)
(4.63269 0 3.54392)
(4.045 0 3.79117)
(3.40627 0 4.02412)
(2.71504 0 4.2309)
(1.98112 0 4.39681)
(1.17908 0 4.51112)
(0.471625 0 4.48384)
(9.99377 0 0.0850789)
(9.97297 0 0.168576)
(9.93581 0 0.251826)
(9.88329 0 0.336527)
(9.81617 0 0.424423)
(9.73455 0 0.517074)
(9.63817 0 0.615885)
(9.52659 0 0.722115)
(9.39927 0 0.836869)
(9.25559 0 0.961077)
(9.09484 0 1.0955)
(8.91625 0 1.24077)
(8.71898 0 1.39747)
(8.50212 0 1.56614)
(8.26464 0 1.7474)
(8.00533 0 1.94192)
(7.72272 0 2.15041)
(7.415 0 2.37358)
(7.07992 0 2.61207)
(6.71462 0 2.86619)
(6.31559 0 3.13581)
(5.8785 0 3.41994)
(5.39819 0 3.7163)
(4.86876 0 4.02077)
(4.28382 0 4.32661)
(3.63754 0 4.62356)
(2.92454 0 4.8972)
(2.15246 0 5.12758)
(1.29118 0 5.29576)
(0.515827 0 5.29274)
(9.99402 0 0.092517)
(9.9741 0 0.183483)
(9.93862 0 0.274457)
(9.88868 0 0.367201)
(9.82503 0 0.463484)
(9.74779 0 0.564958)
(9.65668 0 0.673152)
(9.55136 0 0.789442)
(9.43134 0 0.915035)
(9.29608 0 1.05095)
(9.14495 0 1.19804)
(8.97727 0 1.35703)
(8.79228 0 1.52859)
(8.58916 0 1.71341)
(8.36692 0 1.91228)
(8.12441 0 2.12611)
(7.86015 0 2.35595)
(7.57228 0 2.60296)
(7.25838 0 2.86833)
(6.91533 0 3.15314)
(6.53907 0 3.45817)
(6.12442 0 3.78355)
(5.66485 0 4.12831)
(5.15231 0 4.48961)
(4.57724 0 4.86174)
(3.92933 0 5.23461)
(3.19711 0 5.59195)
(2.38267 0 5.90816)
(1.44735 0 6.15294)
(0.580336 0 6.19069)
(9.99433 0 0.0996192)
(9.97544 0 0.197674)
(9.94188 0 0.295916)
(9.89477 0 0.396198)
(9.8349 0 0.50034)
(9.76237 0 0.610068)
(9.67698 0 0.727022)
(9.5784 0 0.852681)
(9.46626 0 0.988344)
(9.3401 0 1.13512)
(9.19939 0 1.29392)
(9.04354 0 1.46556)
(8.87192 0 1.65082)
(8.68381 0 1.85052)
(8.47834 0 2.06561)
(8.25444 0 2.29727)
(8.01075 0 2.5469)
(7.74545 0 2.81613)
(7.45613 0 3.10682)
(7.13955 0 3.42093)
(6.79138 0 3.7604)
(6.40584 0 4.12687)
(5.97522 0 4.52126)
(5.48942 0 4.94303)
(4.93537 0 5.38897)
(4.29709 0 5.85115)
(3.55412 0 6.31375)
(2.69756 0 6.74692)
(1.67173 0 7.10642)
(0.678406 0 7.21713)
(9.99467 0 0.106328)
(9.97694 0 0.211051)
(9.9455 0 0.316086)
(9.90146 0 0.423385)
(9.84563 0 0.534824)
(9.77813 0 0.652202)
(9.69881 0 0.77725)
(9.60743 0 0.911537)
(9.50368 0 1.05644)
(9.38721 0 1.21314)
(9.2576 0 1.38263)
(9.11441 0 1.56577)
(8.95712 0 1.76343)
(8.78517 0 1.97656)
(8.59784 0 2.20628)
(8.39426 0 2.45401)
(8.17323 0 2.72149)
(7.93314 0 3.01085)
(7.67177 0 3.32464)
(7.38606 0 3.66577)
(7.07172 0 4.03751)
(6.72282 0 4.44335)
(6.33108 0 4.88671)
(5.88491 0 5.37049)
(5.36809 0 5.89593)
(4.75849 0 6.46053)
(4.0239 0 7.05387)
(3.13665 0 7.6479)
(2.007 0 8.18712)
(0.836711 0 8.439)
(9.99505 0 0.1126)
(9.97858 0 0.223537)
(9.94941 0 0.334869)
(9.90864 0 0.448642)
(9.85708 0 0.566792)
(9.79488 0 0.691184)
(9.72195 0 0.823623)
(9.63812 0 0.965756)
(9.5432 0 1.11903)
(9.43693 0 1.28467)
(9.31902 0 1.46372)
(9.18918 0 1.65711)
(9.04704 0 1.86577)
(8.89223 0 2.09074)
(8.72425 0 2.33329)
(8.54246 0 2.59505)
(8.34596 0 2.87808)
(8.1335 0 3.18496)
(7.90327 0 3.51889)
(7.65265 0 3.88373)
(7.37792 0 4.28412)
(7.07364 0 4.72555)
(6.73192 0 5.2144)
(6.34103 0 5.75795)
(5.88327 0 6.36405)
(5.33189 0 7.03991)
(4.64259 0 7.78897)
(3.76113 0 8.60034)
(2.53369 0 9.42922)
(1.11444 0 9.98251)
(9.99545 0 0.1184)
(9.98032 0 0.23507)
(9.95355 0 0.352182)
(9.91622 0 0.471869)
(9.86911 0 0.596126)
(9.81244 0 0.72687)
(9.74615 0 0.865972)
(9.67019 0 1.01514)
(9.58443 0 1.17586)
(9.48877 0 1.34942)
(9.38303 0 1.53687)
(9.26708 0 1.73919)
(9.14076 0 1.95735)
(9.00388 0 2.19245)
(8.85621 0 2.44586)
(8.69743 0 2.71938)
(8.52703 0 3.01531)
(8.34422 0 3.3366)
(8.14784 0 3.68699)
(7.93607 0 4.07116)
(7.70621 0 4.49497)
(7.4542 0 4.96577)
(7.1738 0 5.4929)
(6.85532 0 6.08837)
(6.48309 0 6.7679)
(6.03117 0 7.55234)
(5.45038 0 8.46941)
(4.66309 0 9.55303)
(3.41444 0 10.841)
(1.65723 0 12.1257)
(9.99587 0 0.123702)
(9.98214 0 0.245598)
(9.95788 0 0.367956)
(9.92411 0 0.492977)
(9.88161 0 0.622708)
(9.83063 0 0.759113)
(9.77119 0 0.904109)
(9.70331 0 1.05945)
(9.627 0 1.22666)
(9.54223 0 1.40704)
(9.44902 0 1.60166)
(9.34738 0 1.81151)
(9.23734 0 2.03756)
(9.11896 0 2.28095)
(8.99231 0 2.5431)
(8.85741 0 2.82589)
(8.71422 0 3.13178)
(8.56257 0 3.46394)
(8.40206 0 3.82648)
(8.23199 0 4.22463)
(8.05115 0 4.66511)
(7.85761 0 5.15662)
(7.64822 0 5.71072)
(7.41791 0 6.34324)
(7.15811 0 7.07682)
(6.85406 0 7.94567)
(6.4738 0 9.00587)
(5.96263 0 10.3602)
(5.01424 0 12.2606)
(2.87714 0 15.5961)
(-0.403531 0 0.410704)
(-1.03114 0 0.43607)
(-1.81839 0 0.444246)
(-2.65268 0 0.445512)
(-3.52441 0 0.436351)
(-4.41109 0 0.414963)
(-5.28394 0 0.380534)
(-6.10882 0 0.332996)
(-6.84773 0 0.272939)
(-7.46081 0 0.201688)
(-7.90893 0 0.121199)
(-8.15723 0 0.0337639)
(-8.18013 0 -0.0586556)
(-7.96023 0 -0.153444)
(-7.49828 0 -0.24255)
(-6.81432 0 -0.318727)
(-5.94363 0 -0.376954)
(-4.93173 0 -0.414625)
(-3.82857 0 -0.43166)
(-2.6807 0 -0.43081)
(-1.51258 0 -0.41326)
(-0.354354 0 -0.380754)
(0.702394 0 -0.343108)
(1.70588 0 -0.303838)
(2.63304 0 -0.266825)
(3.47595 0 -0.232469)
(4.23655 0 -0.201175)
(4.91951 0 -0.173455)
(5.53046 0 -0.149793)
(6.20539 0 -0.13628)
(-0.448496 0 1.01568)
(-1.13348 0 1.09007)
(-1.96766 0 1.13545)
(-2.83618 0 1.16742)
(-3.73532 0 1.17468)
(-4.64298 0 1.14949)
(-5.53047 0 1.08633)
(-6.3634 0 0.981918)
(-7.10312 0 0.83534)
(-7.70881 0 0.648631)
(-8.1404 0 0.427057)
(-8.36271 0 0.179141)
(-8.35004 0 -0.084377)
(-8.09073 0 -0.347315)
(-7.58922 0 -0.588197)
(-6.86774 0 -0.79021)
(-5.96292 0 -0.942902)
(-4.92042 0 -1.0423)
(-3.78899 0 -1.09033)
(-2.61103 0 -1.09372)
(-1.42345 0 -1.05908)
(-0.236254 0 -0.990815)
(0.834341 0 -0.907146)
(1.85862 0 -0.817512)
(2.80776 0 -0.730419)
(3.67553 0 -0.647608)
(4.46354 0 -0.570642)
(5.17595 0 -0.501152)
(5.81557 0 -0.440631)
(6.51758 0 -0.398312)
(-0.464212 0 1.75312)
(-1.17674 0 1.86359)
(-2.04057 0 1.93348)
(-2.93007 0 1.97926)
(-3.84586 0 1.98203)
(-4.76522 0 1.92917)
(-5.65947 0 1.81174)
(-6.49409 0 1.62452)
(-7.22999 0 1.36638)
(-7.82546 0 1.04115)
(-8.23912 0 0.658295)
(-8.43468 0 0.233661)
(-8.38706 0 -0.211617)
(-8.08895 0 -0.650447)
(-7.54798 0 -1.04767)
(-6.79106 0 -1.37632)
(-5.85818 0 -1.62049)
(-4.79657 0 -1.7755)
(-3.65501 0 -1.84599)
(-2.47434 0 -1.84245)
(-1.29404 0 -1.78062)
(-0.115983 0 -1.66578)
(0.941861 0 -1.52604)
(1.95541 0 -1.37983)
(2.89283 0 -1.23604)
(3.74977 0 -1.09832)
(4.52772 0 -0.969775)
(5.23069 0 -0.853149)
(5.85961 0 -0.750504)
(6.55308 0 -0.670011)
(-0.470278 0 2.52737)
(-1.19705 0 2.66624)
(-2.07923 0 2.75425)
(-2.98061 0 2.80868)
(-3.90616 0 2.80323)
(-4.83202 0 2.72044)
(-5.7293 0 2.54775)
(-6.56287 0 2.27759)
(-7.29234 0 1.90795)
(-7.87396 0 1.44358)
(-8.26374 0 0.897237)
(-8.42323 0 0.291233)
(-8.3272 0 -0.343395)
(-7.97881 0 -0.961701)
(-7.38949 0 -1.51472)
(-6.59173 0 -1.96678)
(-5.6292 0 -2.29808)
(-4.55056 0 -2.50437)
(-3.40416 0 -2.59346)
(-2.23171 0 -2.5811)
(-1.05622 0 -2.48804)
(0.0821471 0 -2.32468)
(1.12398 0 -2.12746)
(2.11606 0 -1.92449)
(3.03217 0 -1.72427)
(3.86922 0 -1.53232)
(4.62872 0 -1.35321)
(5.31466 0 -1.19057)
(5.92644 0 -1.04689)
(6.60345 0 -0.929338)
(-0.469228 0 3.30929)
(-1.19645 0 3.47469)
(-2.08169 0 3.57918)
(-2.98022 0 3.64018)
(-3.90183 0 3.62411)
(-4.82141 0 3.50856)
(-5.70991 0 3.27693)
(-6.53136 0 2.91878)
(-7.2438 0 2.43075)
(-7.80109 0 1.8186)
(-8.15623 0 1.09946)
(-8.26833 0 0.304427)
(-8.11396 0 -0.52251)
(-7.70978 0 -1.31738)
(-7.07006 0 -2.01904)
(-6.23333 0 -2.58451)
(-5.24656 0 -2.99183)
(-4.15934 0 -3.23867)
(-3.01908 0 -3.33736)
(-1.86659 0 -3.31103)
(-0.70676 0 -3.17807)
(0.373084 0 -2.96513)
(1.39 0 -2.71382)
(2.34912 0 -2.45561)
(3.23364 0 -2.20042)
(4.04129 0 -1.95569)
(4.77365 0 -1.72738)
(5.43482 0 -1.51991)
(6.02308 0 -1.33613)
(6.67637 0 -1.1821)
(-0.45795 0 4.08275)
(-1.16638 0 4.27361)
(-2.03308 0 4.39358)
(-2.90716 0 4.45984)
(-3.80414 0 4.43181)
(-4.69811 0 4.28214)
(-5.56043 0 3.98992)
(-6.35471 0 3.54139)
(-7.03754 0 2.93136)
(-7.5598 0 2.16621)
(-7.87016 0 1.26781)
(-7.92389 0 0.277292)
(-7.70822 0 -0.744633)
(-7.24723 0 -1.71251)
(-6.56114 0 -2.55442)
(-5.6938 0 -3.22213)
(-4.6943 0 -3.69348)
(-3.6123 0 -3.97006)
(-2.49377 0 -4.07003)
(-1.36708 0 -4.02073)
(-0.257749 0 -3.84231)
(0.765602 0 -3.57936)
(1.74274 0 -3.27733)
(2.65746 0 -2.9655)
(3.49982 0 -2.65688)
(4.26823 0 -2.36109)
(4.96451 0 -2.08533)
(5.59293 0 -1.83468)
(6.15105 0 -1.61233)
(6.77283 0 -1.42308)
(-0.432204 0 4.82683)
(-1.09608 0 5.04122)
(-1.91611 0 5.17543)
(-2.73815 0 5.24646)
(-3.58449 0 5.2068)
(-4.42913 0 5.02397)
(-5.24481 0 4.67221)
(-5.99532 0 4.13364)
(-6.63584 0 3.40028)
(-7.1132 0 2.47833)
(-7.36968 0 1.39502)
(-7.35482 0 0.203381)
(-7.07575 0 -1.01222)
(-6.56239 0 -2.14502)
(-5.84057 0 -3.11486)
(-4.95773 0 -3.87104)
(-3.96315 0 -4.39321)
(-2.90488 0 -4.68855)
(-1.82465 0 -4.78081)
(-0.739714 0 -4.69756)
(0.288746 0 -4.47276)
(1.2578 0 -4.16204)
(2.18042 0 -3.8115)
(3.03971 0 -3.44809)
(3.82951 0 -3.08826)
(4.54906 0 -2.74382)
(5.20058 0 -2.42309)
(5.78856 0 -2.13165)
(6.31018 0 -1.87294)
(6.89296 0 -1.65031)
(-0.388177 0 5.5128)
(-0.975947 0 5.74869)
(-1.71587 0 5.89651)
(-2.45358 0 5.97345)
(-3.21927 0 5.92503)
(-3.9874 0 5.7132)
(-4.73305 0 5.30649)
(-5.42072 0 4.68177)
(-6.00411 0 3.82676)
(-6.42486 0 2.74617)
(-6.61757 0 1.47327)
(-6.52591 0 0.0796259)
(-6.18597 0 -1.32386)
(-5.63096 0 -2.60749)
(-4.89145 0 -3.68871)
(-4.01531 0 -4.51797)
(-3.049 0 -5.07741)
(-2.03727 0 -5.38058)
(-1.01453 0 -5.45541)
(-0.00150467 0 -5.32986)
(0.937246 0 -5.0621)
(1.84387 0 -4.7075)
(2.69853 0 -4.30994)
(3.49141 0 -3.89725)
(4.21852 0 -3.48902)
(4.88009 0 -3.09898)
(5.47881 0 -2.73638)
(6.01927 0 -2.40713)
(6.49863 0 -2.11478)
(7.03561 0 -1.86118)
(-0.323403 0 6.10585)
(-0.799366 0 6.36236)
(-1.42234 0 6.52458)
(-2.04036 0 6.61085)
(-2.69239 0 6.55944)
(-3.35378 0 6.32619)
(-4.00292 0 5.87283)
(-4.606 0 5.16949)
(-5.11601 0 4.19768)
(-5.4682 0 2.95886)
(-5.58501 0 1.49499)
(-5.40297 0 -0.0965584)
(-5.0131 0 -1.67414)
(-4.43521 0 -3.08698)
(-3.70448 0 -4.25888)
(-2.86412 0 -5.14524)
(-1.95356 0 -5.72909)
(-1.01436 0 -6.02964)
(-0.0664688 0 -6.07453)
(0.824421 0 -5.91163)
(1.69037 0 -5.6043)
(2.51636 0 -5.20873)
(3.29033 0 -4.76598)
(4.00571 0 -4.30696)
(4.66038 0 -3.85392)
(5.25551 0 -3.4221)
(5.79418 0 -3.02142)
(6.28097 0 -2.65796)
(6.71314 0 -2.33522)
(7.19855 0 -2.0536)
(-0.237435 0 6.56784)
(-0.563852 0 6.84621)
(-1.03216 0 7.02536)
(-1.49377 0 7.1267)
(-1.99737 0 7.08077)
(-2.51893 0 6.83702)
(-3.04138 0 6.34935)
(-3.53419 0 5.57965)
(-3.95174 0 4.5014)
(-4.22199 0 3.11153)
(-4.24644 0 1.46275)
(-3.9595 0 -0.32405)
(-3.54263 0 -2.04881)
(-2.9708 0 -3.56274)
(-2.28309 0 -4.80471)
(-1.51056 0 -5.73304)
(-0.686571 0 -6.32868)
(0.156202 0 -6.61452)
(0.9682 0 -6.62804)
(1.76691 0 -6.43424)
(2.5372 0 -6.09284)
(3.26662 0 -5.65766)
(3.94682 0 -5.17259)
(4.57371 0 -4.67134)
(5.14676 0 -4.17808)
(5.66788 0 -3.70916)
(6.14031 0 -3.27495)
(6.56832 0 -2.88148)
(6.94935 0 -2.53209)
(7.37871 0 -2.22582)
(-0.132337 0 6.86043)
(-0.271717 0 7.16469)
(-0.550035 0 7.36479)
(-0.819915 0 7.48863)
(-1.14086 0 7.45795)
(-1.48822 0 7.2159)
(-1.85066 0 6.70699)
(-2.20262 0 5.88217)
(-2.50146 0 4.70387)
(-2.66025 0 3.16827)
(-2.54627 0 1.34316)
(-2.18582 0 -0.593893)
(-1.78054 0 -2.42506)
(-1.2553 0 -4.00814)
(-0.649318 0 -5.30331)
(0.0300704 0 -6.26389)
(0.721205 0 -6.84673)
(1.42459 0 -7.11572)
(2.12529 0 -7.11122)
(2.80999 0 -6.89133)
(3.46553 0 -6.51736)
(4.0828 0 -6.04565)
(4.65649 0 -5.52287)
(5.18464 0 -4.98482)
(5.66792 0 -4.45709)
(6.10863 0 -3.95673)
(6.50986 0 -3.49428)
(6.87521 0 -3.07559)
(7.20226 0 -2.70374)
(7.57245 0 -2.37658)
(-0.0128927 0 6.94774)
(0.0699223 0 7.2843)
(0.0103909 0 7.51578)
(-0.0377244 0 7.67251)
(-0.147084 0 7.67051)
(-0.289386 0 7.44724)
(-0.461229 0 6.93943)
(-0.644439 0 6.09119)
(-0.799895 0 4.86105)
(-0.798663 0 3.23046)
(-0.494251 0 1.24592)
(-0.106825 0 -0.874371)
(0.236495 0 -2.79182)
(0.667135 0 -4.41242)
(1.15425 0 -5.72095)
(1.68505 0 -6.67342)
(2.2455 0 -7.27129)
(2.81826 0 -7.53637)
(3.38561 0 -7.51517)
(3.93543 0 -7.27072)
(4.45859 0 -6.86756)
(4.94943 0 -6.36453)
(5.4053 0 -5.81042)
(5.826 0 -5.24252)
(6.21294 0 -4.68728)
(6.56842 0 -4.16209)
(6.89495 0 -3.67742)
(7.19517 0 -3.23885)
(7.46657 0 -2.84911)
(7.7759 0 -2.50513)
(0.124169 0 6.8026)
(0.454123 0 7.18036)
(0.637476 0 7.45555)
(0.822166 0 7.64935)
(0.944076 0 7.68481)
(1.02845 0 7.49407)
(1.07501 0 7.00577)
(1.10067 0 6.14977)
(1.159 0 4.85794)
(1.38744 0 3.10646)
(1.79642 0 1.04393)
(2.12603 0 -1.05055)
(2.37916 0 -2.98929)
(2.69702 0 -4.67469)
(3.06592 0 -6.02568)
(3.4662 0 -7.00487)
(3.88436 0 -7.60734)
(4.30672 0 -7.86388)
(4.72076 0 -7.82669)
(5.11834 0 -7.5612)
(5.49465 0 -7.13449)
(5.84756 0 -6.60738)
(6.17693 0 -6.03007)
(6.48388 0 -5.44067)
(6.77013 0 -4.866)
(7.03753 0 -4.32342)
(7.28763 0 -3.82317)
(7.52171 0 -3.37046)
(7.73703 0 -2.96769)
(7.98525 0 -2.61114)
(0.299482 0 6.38147)
(0.894394 0 6.8411)
(1.32706 0 7.17396)
(1.74134 0 7.40709)
(2.09914 0 7.48475)
(2.41682 0 7.33105)
(2.69652 0 6.86491)
(2.95915 0 6.006)
(3.25356 0 4.68947)
(3.63313 0 2.94051)
(4.06628 0 0.904357)
(4.36095 0 -1.21577)
(4.57511 0 -3.18472)
(4.80628 0 -4.88838)
(5.05917 0 -6.25366)
(5.32283 0 -7.23913)
(5.58816 0 -7.83977)
(5.84735 0 -8.08685)
(6.09472 0 -8.03576)
(6.32808 0 -7.75434)
(6.54775 0 -7.31153)
(6.75543 0 -6.7693)
(6.9533 0 -6.17841)
(7.14344 0 -5.57709)
(7.32746 0 -4.99196)
(7.50629 0 -4.44008)
(7.68015 0 -3.93129)
(7.8487 0 -3.47045)
(8.00874 0 -3.05963)
(8.19688 0 -2.69481)
(0.561542 0 5.51769)
(1.41894 0 6.28139)
(2.06932 0 6.69754)
(2.69994 0 6.96334)
(3.28693 0 7.08334)
(3.82827 0 6.96898)
(4.33126 0 6.52697)
(4.81655 0 5.67373)
(5.30458 0 4.36186)
(5.78614 0 2.64098)
(6.25684 0 0.652323)
(6.54272 0 -1.40329)
(6.73576 0 -3.33995)
(6.90407 0 -5.03368)
(7.05672 0 -6.39511)
(7.18971 0 -7.37412)
(7.30116 0 -7.96472)
(7.39222 0 -8.1996)
(7.46662 0 -8.13665)
(7.53013 0 -7.84531)
(7.5892 0 -7.39516)
(7.64954 0 -6.84813)
(7.7155 0 -6.25444)
(7.78969 0 -5.65163)
(7.87316 0 -5.06563)
(7.96553 0 -4.51289)
(8.06541 0 -4.00279)
(8.17064 0 -3.53989)
(8.2774 0 -3.12599)
(8.40763 0 -2.7571)
(9.99631 0 0.128568)
(9.98405 0 0.255259)
(9.96243 0 0.382412)
(9.9324 0 0.512286)
(9.89472 0 0.646968)
(9.8497 0 0.788458)
(9.79744 0 0.938708)
(9.73804 0 1.0995)
(9.67163 0 1.27237)
(9.59832 0 1.45862)
(9.51827 0 1.65932)
(9.43168 0 1.87544)
(9.3388 0 2.10791)
(9.23994 0 2.35787)
(9.13548 0 2.62671)
(9.02586 0 2.91633)
(8.91155 0 3.22919)
(8.79308 0 3.56856)
(8.67098 0 3.93863)
(8.54584 0 4.34483)
(8.41832 0 4.79416)
(8.28919 0 5.29579)
(8.15952 0 5.86204)
(8.03105 0 6.51001)
(7.90712 0 7.26463)
(7.79599 0 8.16436)
(7.71805 0 9.27312)
(7.77937 0 10.7023)
(8.47068 0 12.6279)
(8.95089 0 15.7222)
(9.99678 0 0.133004)
(9.98607 0 0.264052)
(9.9672 0 0.395529)
(9.94107 0 0.529737)
(9.90841 0 0.668791)
(9.86956 0 0.814715)
(9.8247 0 0.969481)
(9.77404 0 1.13488)
(9.71781 0 1.31245)
(9.65627 0 1.50348)
(9.58973 0 1.709)
(9.51857 0 1.92991)
(9.44326 0 2.16712)
(9.3644 0 2.42166)
(9.28268 0 2.69487)
(9.19896 0 2.98851)
(9.11425 0 3.30496)
(9.02976 0 3.64733)
(8.94701 0 4.01964)
(8.8679 0 4.42705)
(8.79494 0 4.87614)
(8.73165 0 5.37539)
(8.68323 0 5.93589)
(8.65799 0 6.57237)
(8.67017 0 7.30474)
(8.74681 0 8.15998)
(8.93596 0 9.17294)
(9.30279 0 10.382)
(10.1566 0 11.7289)
(10.9131 0 12.8543)
(9.99726 0 0.136929)
(9.98815 0 0.271822)
(9.97214 0 0.407095)
(9.95004 0 0.545073)
(9.92255 0 0.687889)
(9.89004 0 0.837573)
(9.85279 0 0.996101)
(9.81108 0 1.16526)
(9.76524 0 1.34656)
(9.71569 0 1.54124)
(9.66287 0 1.75028)
(9.60736 0 1.9745)
(9.54985 0 2.2147)
(9.49117 0 2.47178)
(9.43236 0 2.74692)
(9.37465 0 3.04169)
(9.31957 0 3.35821)
(9.26898 0 3.69925)
(9.22524 0 4.06836)
(9.1914 0 4.47)
(9.17151 0 4.90969)
(9.17113 0 5.39423)
(9.19821 0 5.93186)
(9.26444 0 6.53229)
(9.38723 0 7.20626)
(9.59258 0 7.96338)
(9.91691 0 8.80543)
(10.3719 0 9.71844)
(11.0912 0 10.6479)
(11.9961 0 11.3538)
(9.99775 0 0.140294)
(9.99029 0 0.278471)
(9.97721 0 0.416956)
(9.95923 0 0.558082)
(9.93701 0 0.703983)
(9.91097 0 0.856683)
(9.88144 0 1.01814)
(9.8488 0 1.19012)
(9.81349 0 1.3741)
(9.77602 0 1.57123)
(9.73701 0 1.78243)
(9.69719 0 2.00838)
(9.65744 0 2.24974)
(9.61885 0 2.50724)
(9.58272 0 2.78182)
(9.55063 0 3.07477)
(9.52452 0 3.38783)
(9.5068 0 3.72325)
(9.50047 0 4.08388)
(9.50939 0 4.47319)
(9.53856 0 4.89523)
(9.59458 0 5.35463)
(9.68629 0 5.85628)
(9.82554 0 6.40481)
(10.0278 0 7.00335)
(10.3126 0 7.65141)
(10.7056 0 8.34114)
(11.2184 0 9.05627)
(11.9181 0 9.78988)
(12.9145 0 10.4313)
(9.99825 0 0.143054)
(9.99247 0 0.283912)
(9.98235 0 0.424987)
(9.96855 0 0.568601)
(9.95167 0 0.716873)
(9.93215 0 0.871805)
(9.91039 0 1.03533)
(9.88685 0 1.20916)
(9.86207 0 1.39471)
(9.83666 0 1.59306)
(9.81137 0 1.80499)
(9.78707 0 2.03107)
(9.76482 0 2.27175)
(9.74589 0 2.52754)
(9.73181 0 2.7991)
(9.72442 0 3.08734)
(9.72599 0 3.39355)
(9.73925 0 3.71935)
(9.76764 0 4.06677)
(9.81539 0 4.43812)
(9.88787 0 4.83592)
(9.99185 0 5.26266)
(10.1358 0 5.72035)
(10.3304 0 6.20995)
(10.5886 0 6.73033)
(10.9253 0 7.27726)
(11.3604 0 7.84212)
(11.9085 0 8.40954)
(12.5922 0 8.96887)
(13.5312 0 9.44817)
(9.99876 0 0.145171)
(9.99465 0 0.288069)
(9.98753 0 0.431074)
(9.97792 0 0.57648)
(9.96638 0 0.726375)
(9.95337 0 0.882726)
(9.93936 0 1.04742)
(9.92486 0 1.2221)
(9.91048 0 1.40811)
(9.89696 0 1.60642)
(9.88512 0 1.81767)
(9.87597 0 2.04226)
(9.87069 0 2.28045)
(9.87069 0 2.53248)
(9.87765 0 2.79867)
(9.89359 0 3.07954)
(9.92094 0 3.37584)
(9.96262 0 3.68854)
(10.0222 0 4.01879)
(10.1039 0 4.3678)
(10.2131 0 4.73667)
(10.356 0 5.12609)
(10.5403 0 5.53595)
(10.7749 0 5.96477)
(11.0701 0 6.40905)
(11.4374 0 6.86247)
(11.8894 0 7.31501)
(12.4365 0 7.7501)
(13.0789 0 8.1496)
(13.9199 0 8.47412)
(9.99926 0 0.14661)
(9.99684 0 0.290873)
(9.99268 0 0.435118)
(9.98724 0 0.581592)
(9.981 0 0.732338)
(9.97444 0 0.889269)
(9.96805 0 1.05421)
(9.96242 0 1.22873)
(9.95823 0 1.41407)
(9.95627 0 1.61109)
(9.95746 0 1.82027)
(9.96287 0 2.04183)
(9.97378 0 2.27579)
(9.99168 0 2.52212)
(10.0183 0 2.7808)
(10.0558 0 3.05192)
(10.1066 0 3.33569)
(10.1736 0 3.63244)
(10.2603 0 3.94249)
(10.3707 0 4.26608)
(10.5097 0 4.60313)
(10.6828 0 4.95294)
(10.8963 0 5.31391)
(11.1573 0 5.68301)
(11.4735 0 6.05533)
(11.8525 0 6.42346)
(12.3014 0 6.77702)
(12.8257 0 7.10141)
(13.4195 0 7.38036)
(14.1703 0 7.59433)
(9.99976 0 0.147343)
(9.99899 0 0.292269)
(9.99777 0 0.43704)
(9.99643 0 0.583835)
(9.99539 0 0.734641)
(9.99513 0 0.891302)
(9.99618 0 1.05557)
(9.99917 0 1.22892)
(10.0048 0 1.41248)
(10.0139 0 1.60698)
(10.0276 0 1.81275)
(10.0468 0 2.0298)
(10.0729 0 2.25793)
(10.1074 0 2.49681)
(10.1521 0 2.74609)
(10.209 0 3.00544)
(10.2805 0 3.27457)
(10.3695 0 3.5532)
(10.4789 0 3.84098)
(10.6126 0 4.13731)
(10.7747 0 4.4412)
(10.9697 0 4.75101)
(11.2026 0 5.06415)
(11.4786 0 5.37678)
(11.8028 0 5.68347)
(12.1799 0 5.97689)
(12.6135 0 6.2477)
(13.1058 0 6.4844)
(13.6493 0 6.67421)
(14.3159 0 6.80551)
(10.0002 0 0.147347)
(10.0011 0 0.292215)
(10.0027 0 0.436778)
(10.0054 0 0.583137)
(10.0094 0 0.733203)
(10.0152 0 0.888742)
(10.0235 0 1.05142)
(10.0347 0 1.2226)
(10.0497 0 1.40331)
(10.0694 0 1.59412)
(10.0947 0 1.79521)
(10.1267 0 2.00639)
(10.1668 0 2.22724)
(10.2164 0 2.45714)
(10.2773 0 2.69543)
(10.3514 0 2.94139)
(10.4408 0 3.1943)
(10.5481 0 3.45336)
(10.6761 0 3.71766)
(10.8278 0 3.98598)
(11.0066 0 4.25671)
(11.2162 0 4.5276)
(11.46 0 4.79557)
(11.7418 0 5.05654)
(12.0646 0 5.3052)
(12.4308 0 5.53495)
(12.8417 0 5.73795)
(13.2971 0 5.9052)
(13.7896 0 6.02686)
(14.3774 0 6.09517)
(10.0007 0 0.146608)
(10.0031 0 0.290682)
(10.0075 0 0.434294)
(10.0141 0 0.579452)
(10.0229 0 0.72798)
(10.0346 0 0.881555)
(10.0496 0 1.04174)
(10.0687 0 1.2098)
(10.0925 0 1.38663)
(10.122 0 1.57265)
(10.1581 0 1.7679)
(10.2019 0 1.972)
(10.2546 0 2.18429)
(10.3178 0 2.40393)
(10.3928 0 2.62996)
(10.4816 0 2.86133)
(10.586 0 3.09696)
(10.7081 0 3.33565)
(10.8504 0 3.57605)
(11.0152 0 3.81655)
(11.2053 0 4.05514)
(11.4231 0 4.28927)
(11.6711 0 4.51575)
(11.9516 0 4.73062)
(12.2661 0 4.92905)
(12.6155 0 5.10541)
(12.9993 0 5.25332)
(13.4161 0 5.36587)
(13.8587 0 5.43581)
(14.375 0 5.45809)
(10.0012 0 0.145117)
(10.0051 0 0.287656)
(10.0121 0 0.429572)
(10.0223 0 0.572767)
(10.0358 0 0.718971)
(10.053 0 0.86976)
(10.0744 0 1.02659)
(10.1008 0 1.19062)
(10.1328 0 1.3626)
(10.1713 0 1.54284)
(10.2172 0 1.7312)
(10.2716 0 1.92715)
(10.3356 0 2.12983)
(10.4104 0 2.33819)
(10.4976 0 2.55101)
(10.5986 0 2.767)
(10.715 0 2.98478)
(10.8487 0 3.20287)
(11.0014 0 3.41964)
(11.175 0 3.63322)
(11.3714 0 3.84143)
(11.5924 0 4.04168)
(11.8393 0 4.23087)
(12.1133 0 4.4054)
(12.4149 0 4.56111)
(12.7437 0 4.69336)
(13.0984 0 4.79717)
(13.4769 0 4.8674)
(13.8726 0 4.89897)
(14.3253 0 4.88869)
(10.0016 0 0.142875)
(10.0069 0 0.283137)
(10.0165 0 0.422618)
(10.0301 0 0.563102)
(10.0479 0 0.706214)
(10.0703 0 0.853426)
(10.0977 0 1.00608)
(10.1308 0 1.16522)
(10.1702 0 1.33148)
(10.2169 0 1.50503)
(10.2716 0 1.68561)
(10.3352 0 1.87251)
(10.409 0 2.06473)
(10.4938 0 2.26104)
(10.5911 0 2.46004)
(10.7019 0 2.66023)
(10.8276 0 2.86003)
(10.9697 0 3.05779)
(11.1294 0 3.2517)
(11.308 0 3.43981)
(11.5068 0 3.61991)
(11.7267 0 3.78952)
(11.9685 0 3.94582)
(12.2324 0 4.08567)
(12.518 0 4.20562)
(12.8245 0 4.30201)
(13.1499 0 4.37107)
(13.4918 0 4.40913)
(13.8444 0 4.41274)
(14.241 0 4.38005)
(10.002 0 0.139887)
(10.0087 0 0.277143)
(10.0206 0 0.413461)
(10.0374 0 0.550505)
(10.0592 0 0.689788)
(10.0863 0 0.832671)
(10.1192 0 0.980388)
(10.1583 0 1.13386)
(10.2045 0 1.29361)
(10.2584 0 1.45969)
(10.3208 0 1.63171)
(10.3925 0 1.80885)
(10.4744 0 1.98998)
(10.5676 0 2.17373)
(10.6728 0 2.35857)
(10.7913 0 2.54287)
(10.9238 0 2.72494)
(11.0714 0 2.90301)
(11.2351 0 3.07524)
(11.4155 0 3.23969)
(11.6135 0 3.39424)
(11.8293 0 3.53661)
(12.063 0 3.66436)
(12.3144 0 3.77485)
(12.5826 0 3.86532)
(12.8662 0 3.93297)
(13.1631 0 3.97507)
(13.4709 0 3.9891)
(13.7846 0 3.97282)
(14.1323 0 3.92532)
(10.0024 0 0.13617)
(10.0103 0 0.269702)
(10.0243 0 0.402152)
(10.0441 0 0.535054)
(10.0696 0 0.669806)
(10.101 0 0.807658)
(10.1387 0 0.94973)
(10.1834 0 1.09683)
(10.2355 0 1.24938)
(10.2956 0 1.40732)
(10.3646 0 1.57017)
(10.4431 0 1.73701)
(10.5318 0 1.90661)
(10.6315 0 2.07752)
(10.743 0 2.24813)
(10.8669 0 2.41673)
(11.0039 0 2.58159)
(11.1547 0 2.74093)
(11.3198 0 2.89293)
(11.4996 0 3.03573)
(11.6942 0 3.1674)
(11.9035 0 3.28593)
(12.1274 0 3.38925)
(12.3649 0 3.47522)
(12.615 0 3.54173)
(12.8761 0 3.5867)
(13.1462 0 3.60824)
(13.4227 0 3.6047)
(13.7017 0 3.57475)
(14.007 0 3.51811)
(10.0027 0 0.131742)
(10.0117 0 0.260858)
(10.0277 0 0.38876)
(10.0502 0 0.516852)
(10.079 0 0.646416)
(10.1143 0 0.778588)
(10.1564 0 0.914378)
(10.2058 0 1.05449)
(10.263 0 1.19925)
(10.3285 0 1.34851)
(10.403 0 1.5017)
(10.487 0 1.65785)
(10.5811 0 1.81568)
(10.6858 0 1.97368)
(10.8017 0 2.1302)
(10.9293 0 2.28353)
(11.0689 0 2.43194)
(11.2208 0 2.57369)
(11.3853 0 2.70706)
(11.5623 0 2.83033)
(11.7517 0 2.94177)
(11.953 0 3.03969)
(12.1658 0 3.12237)
(12.3889 0 3.18815)
(12.6211 0 3.23545)
(12.8608 0 3.26282)
(13.1059 0 3.26899)
(13.3543 0 3.25299)
(13.6026 0 3.21413)
(13.8713 0 3.15255)
(10.003 0 0.126632)
(10.013 0 0.250666)
(10.0308 0 0.373375)
(10.0557 0 0.496028)
(10.0874 0 0.619792)
(10.1261 0 0.745694)
(10.1719 0 0.874637)
(10.2254 0 1.00723)
(10.287 0 1.1437)
(10.357 0 1.28385)
(10.436 0 1.42705)
(10.5243 0 1.57228)
(10.6225 0 1.71825)
(10.7308 0 1.86343)
(10.8497 0 2.00619)
(10.9792 0 2.14484)
(11.1197 0 2.27771)
(11.2711 0 2.40315)
(11.4333 0 2.51956)
(11.606 0 2.62539)
(11.789 0 2.71917)
(11.9814 0 2.79946)
(12.1825 0 2.86491)
(12.3912 0 2.91428)
(12.6061 0 2.94642)
(12.8257 0 2.96036)
(13.0482 0 2.95536)
(13.2715 0 2.9309)
(13.4929 0 2.88675)
(13.7302 0 2.82331)
(10.0033 0 0.120869)
(10.0142 0 0.239191)
(10.0335 0 0.356095)
(10.0605 0 0.472725)
(10.0948 0 0.590131)
(10.1364 0 0.709233)
(10.1855 0 0.830835)
(10.2424 0 0.955455)
(10.3076 0 1.08325)
(10.3812 0 1.21397)
(10.4637 0 1.34695)
(10.5553 0 1.48116)
(10.6564 0 1.61532)
(10.7671 0 1.74791)
(10.8875 0 1.87736)
(11.0177 0 2.00205)
(11.1577 0 2.12039)
(11.3072 0 2.23084)
(11.4659 0 2.33196)
(11.6334 0 2.42239)
(11.809 0 2.50088)
(11.992 0 2.56626)
(12.1815 0 2.61751)
(12.3762 0 2.65369)
(12.5748 0 2.67406)
(12.776 0 2.67801)
(12.978 0 2.66516)
(13.1791 0 2.63535)
(13.377 0 2.58864)
(13.5875 0 2.52559)
(10.0035 0 0.114491)
(10.0152 0 0.226503)
(10.0359 0 0.337035)
(10.0647 0 0.447102)
(10.1012 0 0.557644)
(10.1453 0 0.669479)
(10.1971 0 0.783315)
(10.2569 0 0.899593)
(10.3249 0 1.01841)
(10.4013 0 1.13948)
(10.4864 0 1.26212)
(10.5803 0 1.38532)
(10.6833 0 1.50782)
(10.7952 0 1.62818)
(10.9162 0 1.74488)
(11.0459 0 1.85639)
(11.1843 0 1.96124)
(11.3309 0 2.05803)