/*--------------------------------*- C++ -*----------------------------------*\
  =========                 |
  \\      /  F ield         | OpenFOAM: The Open Source CFD Toolbox
   \\    /   O peration     | Website:  https://openfoam.org
    \\  /    A nd           | Version:  dev
     \\/     M anipulation  |
\*---------------------------------------------------------------------------*/
FoamFile
{
    version     2.0;
    format      ascii;
    class       surfaceVectorField;
    location    "4.7";
    object      Uf;
}
// * * * * * * * * * * * * * * * * * * * * * * * * * * * * * * * * * * * * * //

dimensions      [0 1 -1 0 0 0 0];

internalField   nonuniform List<vector> 
5457
(
(9.92088 0 0.0251096)
(9.97125 0 0.0387458)
(9.82401 0 0.0328268)
(9.92859 0 0.0485852)
(9.70961 0 0.039312)
(9.85548 0 0.0587681)
(9.57544 0 0.0460116)
(9.7568 0 0.0705934)
(9.42138 0 0.0529489)
(9.63753 0 0.0830134)
(9.24755 0 0.0601662)
(9.49861 0 0.0959365)
(9.05362 0 0.0678108)
(9.3393 0 0.109613)
(8.83893 0 0.0760344)
(9.15874 0 0.124289)
(8.60252 0 0.08497)
(8.9561 0 0.140167)
(8.34327 0 0.0947446)
(8.73038 0 0.157433)
(8.05985 0 0.105487)
(8.48041 0 0.176269)
(7.75081 0 0.117327)
(8.20478 0 0.196856)
(7.41457 0 0.130395)
(7.90196 0 0.219361)
(7.04951 0 0.14481)
(7.57032 0 0.243923)
(6.65405 0 0.160672)
(7.2082 0 0.270632)
(6.22674 0 0.178044)
(6.81401 0 0.2995)
(5.76645 0 0.196928)
(6.38635 0 0.330414)
(5.2726 0 0.217233)
(5.92419 0 0.363084)
(4.74541 0 0.238736)
(5.42713 0 0.396976)
(4.18624 0 0.261032)
(4.89569 0 0.431237)
(3.59801 0 0.283488)
(4.33168 0 0.46462)
(2.9856 0 0.305203)
(3.73865 0 0.495426)
(2.35617 0 0.32507)
(3.12232 0 0.521514)
(1.71915 0 0.342549)
(2.49112 0 0.540559)
(1.08439 0 0.361882)
(1.85591 0 0.551676)
(0.451881 0 0.348696)
(1.24553 0 0.563022)
(-0.145811 0 0.102482)
(0.608971 0 0.544896)
(-0.423612 0 -0.207097)
(0.0946781 0 0.259388)
(-0.402154 0 -0.361269)
(-0.133641 0 -0.0205201)
(-0.119682 0 -0.393885)
(9.99641 0 0.0516724)
(9.99705 0 0.0405046)
(9.95879 0 0.0708615)
(9.97851 0 0.0674544)
(9.89824 0 0.0879868)
(9.93377 0 0.0898699)
(9.81659 0 0.105985)
(9.86453 0 0.113555)
(9.71359 0 0.124921)
(9.77438 0 0.138515)
(9.58909 0 0.144853)
(9.66435 0 0.164646)
(9.44274 0 0.16609)
(9.53397 0 0.192332)
(9.27391 0 0.188967)
(9.3825 0 0.22203)
(9.08167 0 0.213782)
(9.20919 0 0.254148)
(8.8649 0 0.240815)
(9.01316 0 0.289063)
(8.6223 0 0.270336)
(8.79332 0 0.327152)
(8.35239 0 0.302606)
(8.54836 0 0.368785)
(8.05357 0 0.337857)
(8.27684 0 0.414316)
(7.72413 0 0.376262)
(7.97718 0 0.464046)
(7.36238 0 0.417902)
(7.64773 0 0.518188)
(6.96674 0 0.462707)
(7.28684 0 0.576806)
(6.53585 0 0.510386)
(6.89297 0 0.639725)
(6.06885 0 0.560333)
(6.46483 0 0.706427)
(5.56562 0 0.611521)
(6.00162 0 0.775909)
(5.02714 0 0.662385)
(5.50329 0 0.846523)
(4.45592 0 0.710709)
(4.97093 0 0.915806)
(3.85654 0 0.753541)
(4.40722 0 0.980307)
(3.23624 0 0.787198)
(3.81708 0 1.03546)
(2.60586 0 0.807504)
(3.2085 0 1.07549)
(1.98284 0 0.810471)
(2.59344 0 1.09315)
(1.40532 0 0.776906)
(1.99625 0 1.07709)
(0.92979 0 0.646415)
(1.41954 0 0.978425)
(0.439894 0 0.384361)
(0.937602 0 0.716813)
(0.0591917 0 -0.118594)
(0.443828 0 0.343548)
(0.174927 0 -0.33591)
(9.98903 0 0.0594309)
(9.99481 0 0.0458775)
(9.95434 0 0.0894765)
(9.97368 0 0.0848542)
(9.89729 0 0.118032)
(9.92984 0 0.119174)
(9.82046 0 0.147898)
(9.86357 0 0.153976)
(9.72416 0 0.179422)
(9.77736 0 0.190408)
(9.60821 0 0.212775)
(9.67227 0 0.228636)
(9.47234 0 0.248392)
(9.5481 0 0.269129)
(9.31608 0 0.286773)
(9.40432 0 0.312496)
(9.13869 0 0.328396)
(9.24034 0 0.359324)
(8.93925 0 0.37372)
(9.05549 0 0.410173)
(8.71665 0 0.423204)
(8.84889 0 0.465596)
(8.4696 0 0.477293)
(8.61951 0 0.52615)
(8.19668 0 0.536395)
(8.36616 0 0.592369)
(7.89633 0 0.600837)
(8.08752 0 0.664733)
(7.56693 0 0.670805)
(7.78221 0 0.743612)
(7.20685 0 0.74625)
(7.44875 0 0.829182)
(6.81459 0 0.826776)
(7.0857 0 0.921311)
(6.3889 0 0.911476)
(6.69173 0 1.0194)
(5.92906 0 0.998752)
(6.26575 0 1.12216)
(5.43518 0 1.08609)
(5.80715 0 1.22742)
(4.90859 0 1.16982)
(5.31611 0 1.33174)
(4.35248 0 1.24489)
(4.79402 0 1.43019)
(3.77264 0 1.30455)
(4.24402 0 1.51588)
(3.17878 0 1.33984)
(3.67186 0 1.57943)
(2.58668 0 1.33813)
(3.08637 0 1.60775)
(2.01991 0 1.27299)
(2.50297 0 1.58159)
(1.48699 0 1.09543)
(1.92878 0 1.46427)
(0.958327 0 0.769196)
(1.38529 0 1.21043)
(0.479897 0 0.202487)
(0.829566 0 0.801073)
(0.433743 0 0.134119)
(9.98515 0 0.0716139)
(9.99367 0 0.0531479)
(9.95039 0 0.11363)
(9.97087 0 0.102291)
(9.89436 0 0.154133)
(9.92691 0 0.147953)
(9.81882 0 0.195573)
(9.86185 0 0.193721)
(9.72442 0 0.238811)
(9.77746 0 0.241277)
(9.61112 0 0.284324)
(9.67467 0 0.291163)
(9.47874 0 0.33272)
(9.55343 0 0.343955)
(9.32695 0 0.384673)
(9.41336 0 0.400371)
(9.15523 0 0.440845)
(9.254 0 0.461138)
(8.96291 0 0.501881)
(9.07484 0 0.526959)
(8.74917 0 0.568424)
(8.8752 0 0.598533)
(8.51304 0 0.641108)
(8.6543 0 0.676558)
(8.25347 0 0.720525)
(8.41123 0 0.761715)
(7.96926 0 0.807183)
(8.145 0 0.85463)
(7.65919 0 0.901429)
(7.85455 0 0.955811)
(7.32194 0 1.00334)
(7.53876 0 1.06556)
(6.95623 0 1.11256)
(7.19647 0 1.18384)
(6.56087 0 1.22812)
(6.82655 0 1.31007)
(6.13492 0 1.34816)
(6.42792 0 1.4429)
(5.67788 0 1.46959)
(5.9997 0 1.57989)
(5.19004 0 1.58776)
(5.54138 0 1.71707)
(4.67291 0 1.69602)
(5.0531 0 1.84853)
(4.12985 0 1.78515)
(4.53601 0 1.96583)
(3.5667 0 1.84253)
(3.99278 0 2.0573)
(2.9921 0 1.85073)
(3.42765 0 2.10715)
(2.41589 0 1.7825)
(2.84768 0 2.0945)
(1.84058 0 1.60048)
(2.25627 0 1.98876)
(1.25942 0 1.27846)
(1.66035 0 1.75308)
(0.666789 0 0.789578)
(1.02399 0 1.36781)
(0.523045 0 0.787198)
(9.98337 0 0.0844073)
(9.99316 0 0.0612914)
(9.94821 0 0.136837)
(9.96958 0 0.119927)
(9.89314 0 0.188032)
(9.92575 0 0.17624)
(9.81906 0 0.240168)
(9.86199 0 0.232698)
(9.72663 0 0.294466)
(9.77964 0 0.291086)
(9.6159 0 0.351658)
(9.6794 0 0.352273)
(9.48671 0 0.412468)
(9.56128 0 0.416975)
(9.33879 0 0.477673)
(9.42497 0 0.486006)
(9.17171 0 0.548047)
(9.27009 0 0.560201)
(8.98493 0 0.624349)
(9.0962 0 0.640382)
(8.77779 0 0.707337)
(8.90274 0 0.727362)
(8.54954 0 0.797757)
(8.68907 0 0.821949)
(8.29936 0 0.896317)
(8.45444 0 0.924933)
(8.02635 0 1.00364)
(8.19808 0 1.03704)
(7.72958 0 1.12019)
(7.91912 0 1.1589)
(7.40806 0 1.24615)
(7.6167 0 1.29091)
(7.06078 0 1.38126)
(7.28986 0 1.43313)
(6.68671 0 1.52457)
(6.93764 0 1.58509)
(6.28488 0 1.67417)
(6.55901 0 1.74549)
(5.85441 0 1.82677)
(6.1529 0 1.91187)
(5.39474 0 1.97724)
(5.71825 0 2.08015)
(4.90579 0 2.11804)
(5.25412 0 2.24408)
(4.3883 0 2.2386)
(4.75978 0 2.3946)
(3.84399 0 2.32455)
(4.235 0 2.51919)
(3.27549 0 2.35696)
(3.67994 0 2.60124)
(2.68544 0 2.31061)
(3.09577 0 2.61972)
(2.07273 0 2.15504)
(2.48174 0 2.54735)
(1.42941 0 1.86744)
(1.83995 0 2.35376)
(0.742627 0 1.41962)
(1.13139 0 2.02458)
(0.543317 0 1.51456)
(9.98264 0 0.0974975)
(9.99299 0 0.0697927)
(9.94744 0 0.159774)
(9.96925 0 0.137583)
(9.89354 0 0.221347)
(9.92597 0 0.203926)
(9.82134 0 0.284091)
(9.86381 0 0.270687)
(9.73134 0 0.349346)
(9.78386 0 0.339581)
(9.62367 0 0.418017)
(9.68665 0 0.411695)
(9.49819 0 0.490935)
(9.57218 0 0.4879)
(9.35465 0 0.56897)
(9.44021 0 0.569101)
(9.19269 0 0.652999)
(9.29043 0 0.656229)
(9.01183 0 0.743892)
(9.12242 0 0.750208)
(8.81151 0 0.842509)
(8.93571 0 0.85195)
(8.59109 0 0.9497)
(8.72973 0 0.962358)
(8.34985 0 1.06627)
(8.50382 0 1.08231)
(8.08706 0 1.19295)
(8.25728 0 1.21263)
(7.80193 0 1.33029)
(7.98938 0 1.35403)
(7.49361 0 1.47858)
(7.6993 0 1.50701)
(7.1612 0 1.63767)
(7.38618 0 1.67175)
(6.80374 0 1.80673)
(7.04904 0 1.8479)
(6.42013 0 1.98395)
(6.68677 0 2.03434)
(6.00915 0 2.16612)
(6.29803 0 2.22882)
(5.56944 0 2.34809)
(5.88122 0 2.42747)
(5.0995 0 2.5222)
(5.43438 0 2.62424)
(4.59779 0 2.67756)
(4.95516 0 2.81028)
(4.06275 0 2.7995)
(4.44089 0 2.97322)
(3.49275 0 2.86912)
(3.88857 0 3.09663)
(2.88588 0 2.86294)
(3.29528 0 3.15992)
(2.23806 0 2.75397)
(2.65695 0 3.13794)
(1.54247 0 2.52108)
(1.97488 0 3.00324)
(0.793664 0 2.1314)
(1.20727 0 2.74067)
(0.556748 0 2.2919)
(9.9825 0 0.110626)
(9.99302 0 0.0783613)
(9.9477 0 0.182324)
(9.96954 0 0.155037)
(9.89522 0 0.253816)
(9.92722 0 0.230885)
(9.82524 0 0.326765)
(9.86697 0 0.307508)
(9.73813 0 0.402553)
(9.78978 0 0.386521)
(9.63403 0 0.482231)
(9.69605 0 0.469146)
(9.51285 0 0.566754)
(9.58579 0 0.556394)
(9.37438 0 0.657088)
(9.4588 0 0.649266)
(9.21828 0 0.754207)
(9.3148 0 0.748782)
(9.04414 0 0.859078)
(9.15346 0 0.855956)
(8.85145 0 0.972654)
(8.97434 0 0.971793)
(8.63962 0 1.09587)
(8.77691 0 1.09729)
(8.40803 0 1.22963)
(8.56058 0 1.23341)
(8.15595 0 1.37474)
(8.3247 0 1.38106)
(7.88265 0 1.53185)
(8.06853 0 1.54107)
(7.58728 0 1.70137)
(7.79126 0 1.71403)
(7.26891 0 1.88328)
(7.49197 0 1.90029)
(6.92644 0 2.07696)
(7.16955 0 2.09969)
(6.55853 0 2.28084)
(6.82268 0 2.31137)
(6.1635 0 2.49204)
(6.44961 0 2.53347)
(5.73916 0 2.70582)
(6.04813 0 2.76263)
(5.28277 0 2.91498)
(5.61528 0 2.99345)
(4.79088 0 3.10915)
(5.14729 0 3.21784)
(4.25935 0 3.27421)
(4.63944 0 3.42427)
(3.68345 0 3.39187)
(4.08612 0 3.59716)
(3.0581 0 3.43971)
(3.48138 0 3.71656)
(2.37778 0 3.39184)
(2.81842 0 3.75817)
(1.63794 0 3.22624)
(2.0992 0 3.69404)
(0.83915 0 2.90092)
(1.27895 0 3.50456)
(0.573375 0 3.1138)
(9.98273 0 0.123581)
(9.99316 0 0.0868173)
(9.94873 0 0.204309)
(9.97027 0 0.172092)
(9.89794 0 0.285251)
(9.92926 0 0.256974)
(9.83051 0 0.367964)
(9.87123 0 0.342986)
(9.74671 0 0.453849)
(9.79715 0 0.431676)
(9.64668 0 0.544074)
(9.70735 0 0.524348)
(9.53038 0 0.639703)
(9.6018 0 0.622132)
(9.39762 0 0.741794)
(9.48038 0 0.726121)
(9.24813 0 0.851408)
(9.34286 0 0.837419)
(9.08153 0 0.969599)
(9.18894 0 0.957125)
(8.89736 0 1.09741)
(9.01824 0 1.08633)
(8.6951 0 1.23587)
(8.83029 0 1.22613)
(8.47413 0 1.38597)
(8.62455 0 1.37757)
(8.23377 0 1.54862)
(8.40037 0 1.54167)
(7.97323 0 1.72458)
(8.15702 0 1.71936)
(7.69162 0 1.91443)
(7.89364 0 1.91141)
(7.38787 0 2.11833)
(7.60921 0 2.11834)
(7.06064 0 2.33594)
(7.30243 0 2.34027)
(6.70823 0 2.5661)
(6.97167 0 2.57674)
(6.3284 0 2.80646)
(6.61475 0 2.82641)
(5.91814 0 3.05303)
(6.22875 0 3.08668)
(5.4735 0 3.29951)
(5.80979 0 3.35315)
(4.98937 0 3.53665)
(5.35271 0 3.61897)
(4.4594 0 3.75142)
(4.85094 0 3.87399)
(3.87629 0 3.92648)
(4.2965 0 4.10395)
(3.2324 0 4.03989)
(3.68063 0 4.28971)
(2.52089 0 4.06504)
(2.99358 0 4.40682)
(1.73842 0 3.97621)
(2.23744 0 4.42465)
(0.889497 0 3.71885)
(1.3634 0 4.31639)
(0.598772 0 3.985)
(9.98321 0 0.136203)
(9.99339 0 0.0950402)
(9.95032 0 0.225571)
(9.97131 0 0.188589)
(9.90151 0 0.315495)
(9.93193 0 0.282048)
(9.83694 0 0.407502)
(9.87643 0 0.376959)
(9.75684 0 0.50301)
(9.80579 0 0.474838)
(9.66135 0 0.603273)
(9.7203 0 0.577047)
(9.55046 0 0.709454)
(9.61995 0 0.68481)
(9.42403 0 0.822695)
(9.50465 0 0.799311)
(9.28184 0 0.944138)
(9.37422 0 0.921728)
(9.12356 0 1.07492)
(9.22843 0 1.05324)
(8.94879 0 1.21618)
(9.06695 0 1.19503)
(8.75705 0 1.36903)
(8.88938 0 1.34826)
(8.54776 0 1.53457)
(8.6952 0 1.5141)
(8.32025 0 1.71382)
(8.48382 0 1.69369)
(8.07371 0 1.90772)
(8.25451 0 1.88808)
(7.80715 0 2.117)
(8.00637 0 2.09824)
(7.51934 0 2.34213)
(7.73827 0 2.32494)
(7.2087 0 2.58313)
(7.44875 0 2.56865)
(6.87313 0 2.83936)
(7.13587 0 2.82942)
(6.50981 0 3.10924)
(6.79704 0 3.1066)
(6.11493 0 3.38978)
(6.42872 0 3.39858)
(5.68338 0 3.676)
(6.0261 0 3.70227)
(5.20845 0 3.9602)
(5.58275 0 4.01246)
(4.68173 0 4.23099)
(5.0903 0 4.32095)
(4.09327 0 4.47233)
(4.53825 0 4.61539)
(3.4325 0 4.66258)
(3.91468 0 4.87789)
(2.69012 0 4.7732)
(3.20567 0 5.08362)
(1.86184 0 4.77247)
(2.41127 0 5.19803)
(0.954177 0 4.58981)
(1.47627 0 5.18439)
(0.63919 0 4.91956)
(9.98386 0 0.148369)
(9.99368 0 0.102944)
(9.95235 0 0.24597)
(9.9726 0 0.204394)
(9.90578 0 0.344398)
(9.9351 0 0.305969)
(9.84437 0 0.445197)
(9.88241 0 0.409269)
(9.76833 0 0.549809)
(9.81552 0 0.515815)
(9.6778 0 0.659556)
(9.73471 0 0.627008)
(9.57281 0 0.775683)
(9.63999 0 0.744154)
(9.45327 0 0.899412)
(9.53129 0 0.868511)
(9.31902 0 1.03196)
(9.40853 0 1.00133)
(9.16978 0 1.17454)
(9.27151 0 1.14387)
(9.00522 0 1.32839)
(9.11999 0 1.29737)
(8.82492 0 1.4947)
(8.95361 0 1.46311)
(8.62835 0 1.67469)
(8.77194 0 1.64235)
(8.41485 0 1.86952)
(8.57443 0 1.83634)
(8.18361 0 2.08031)
(8.36038 0 2.04632)
(7.93361 0 2.30802)
(8.1289 0 2.27347)
(7.66349 0 2.55347)
(7.87881 0 2.51885)
(7.37145 0 2.81715)
(7.60855 0 2.78336)
(7.05508 0 3.09908)
(7.316 0 3.06765)
(6.71105 0 3.39861)
(6.99823 0 3.37192)
(6.33484 0 3.71404)
(6.65122 0 3.69574)
(5.9203 0 4.04207)
(6.26944 0 4.03762)
(5.45922 0 4.37704)
(5.84535 0 4.39449)
(4.94101 0 4.70987)
(5.36883 0 4.7607)
(4.35266 0 5.02654)
(4.82674 0 5.12673)
(3.67952 0 5.3062)
(4.20312 0 5.47707)
(2.90745 0 5.51821)
(3.47784 0 5.7875)
(2.02761 0 5.62307)
(2.64498 0 6.01955)
(1.04508 0 5.52953)
(1.63768 0 6.124)
(0.704452 0 5.94315)
(9.98465 0 0.159981)
(9.99402 0 0.110463)
(9.95473 0 0.265381)
(9.97409 0 0.2194)
(9.91065 0 0.37182)
(9.93868 0 0.328612)
(9.85267 0 0.480883)
(9.88905 0 0.439776)
(9.781 0 0.594043)
(9.82618 0 0.554432)
(9.69581 0 0.712678)
(9.75038 0 0.674023)
(9.59716 0 0.838104)
(9.66166 0 0.799914)
(9.48502 0 0.97161)
(9.56003 0 0.933431)
(9.35927 0 1.11448)
(9.44543 0 1.07589)
(9.21973 0 1.26802)
(9.31776 0 1.2286)
(9.06612 0 1.43351)
(9.17684 0 1.3929)
(8.8981 0 1.61227)
(9.0224 0 1.57014)
(8.71521 0 1.80561)
(8.85409 0 1.76167)
(8.51685 0 2.01487)
(8.67145 0 1.96888)
(8.30226 0 2.24134)
(8.47384 0 2.19318)
(8.0704 0 2.48627)
(8.26045 0 2.43598)
(7.81989 0 2.75086)
(8.03012 0 2.69867)
(7.54885 0 3.03615)
(7.78131 0 2.98264)
(7.25466 0 3.34294)
(7.51184 0 3.28917)
(6.93371 0 3.67166)
(7.2187 0 3.61944)
(6.58097 0 4.02213)
(6.89766 0 3.97435)
(6.18951 0 4.39311)
(6.54277 0 4.3543)
(5.74983 0 4.7816)
(6.14576 0 4.75878)
(5.24917 0 5.18173)
(5.69513 0 5.18555)
(4.67099 0 5.58283)
(5.17513 0 5.62924)
(3.99494 0 5.96659)
(4.56513 0 6.07884)
(3.19843 0 6.30177)
(3.83635 0 6.51365)
(2.26177 0 6.54075)
(2.97082 0 6.89413)
(1.1806 0 6.56518)
(1.87912 0 7.15793)
(0.812789 0 7.09947)
(9.98553 0 0.170963)
(9.9944 0 0.117547)
(9.95738 0 0.283699)
(9.97572 0 0.233519)
(9.916 0 0.397635)
(9.94258 0 0.349869)
(9.86169 0 0.514411)
(9.89623 0 0.468351)
(9.79469 0 0.635533)
(9.83765 0 0.590539)
(9.71517 0 0.762426)
(9.76713 0 0.717908)
(9.62324 0 0.896463)
(9.68475 0 0.851872)
(9.51894 0 1.039)
(9.59055 0 0.993814)
(9.40221 0 1.19137)
(9.48456 0 1.1451)
(9.27293 0 1.35494)
(9.36673 0 1.30711)
(9.13093 0 1.53107)
(9.23698 0 1.48122)
(8.97595 0 1.72118)
(9.09514 0 1.66886)
(8.80763 0 1.92668)
(8.94096 0 1.87148)
(8.62546 0 2.14905)
(8.77407 0 2.0906)
(8.42876 0 2.38981)
(8.594 0 2.32779)
(8.21661 0 2.65048)
(8.40002 0 2.58467)
(7.9877 0 2.93267)
(8.19114 0 2.863)
(7.74018 0 3.238)
(7.96595 0 3.16461)
(7.4715 0 3.56812)
(7.72244 0 3.49149)
(7.17802 0 3.92464)
(7.45777 0 3.84578)
(6.85459 0 4.30908)
(7.16786 0 4.22982)
(6.49395 0 4.72259)
(6.84691 0 4.64605)
(6.08582 0 5.16549)
(6.48657 0 5.09693)
(5.61577 0 5.63628)
(6.07481 0 5.58443)
(5.0637 0 6.12981)
(5.59415 0 6.10904)
(4.40232 0 6.63379)
(5.01972 0 6.66757)
(3.5962 0 7.12125)
(4.31265 0 7.24856)
(2.60435 0 7.54068)
(3.43573 0 7.82024)
(1.3943 0 7.7405)
(2.25647 0 8.3151)
(1.00261 0 8.46511)
(9.9865 0 0.181252)
(9.9948 0 0.124156)
(9.96026 0 0.300832)
(9.97747 0 0.24668)
(9.92176 0 0.421733)
(9.94676 0 0.369646)
(9.87133 0 0.545649)
(9.90387 0 0.494885)
(9.80923 0 0.674121)
(9.84977 0 0.624002)
(9.73567 0 0.808611)
(9.78478 0 0.758504)
(9.6508 0 0.950539)
(9.70902 0 0.899843)
(9.55471 0 1.1013)
(9.62258 0 1.04944)
(9.44742 0 1.2623)
(9.52555 0 1.20871)
(9.3289 0 1.43494)
(9.41798 0 1.37907)
(9.19908 0 1.62065)
(9.29988 0 1.56196)
(9.05779 0 1.82092)
(9.17118 0 1.75886)
(8.9048 0 2.03727)
(9.03176 0 1.9713)
(8.73974 0 2.27132)
(8.88141 0 2.20089)
(8.5621 0 2.52475)
(8.7198 0 2.44935)
(8.3711 0 2.7994)
(8.54641 0 2.71854)
(8.16565 0 3.09725)
(8.3605 0 3.01048)
(7.94415 0 3.42048)
(8.16094 0 3.32746)
(7.70432 0 3.77157)
(7.9461 0 3.67208)
(7.44288 0 4.15334)
(7.71362 0 4.04741)
(7.15507 0 4.56904)
(7.46004 0 4.45715)
(6.83402 0 5.02241)
(7.18036 0 4.90577)
(6.46967 0 5.51758)
(6.86718 0 5.39881)
(6.04715 0 6.05867)
(6.50944 0 5.94297)
(5.54421 0 6.64872)
(6.09019 0 6.54615)
(4.92722 0 7.28701)
(5.58329 0 7.21677)
(4.14513 0 7.96146)
(4.94267 0 7.96157)
(3.12184 0 8.63363)
(4.10942 0 8.7757)
(1.75628 0 9.12791)
(2.87851 0 9.621)
(1.36474 0 10.1853)
(9.98754 0 0.190799)
(9.99523 0 0.13026)
(9.96332 0 0.316707)
(9.97932 0 0.258824)
(9.92785 0 0.444021)
(9.95115 0 0.387868)
(9.88148 0 0.574488)
(9.91187 0 0.519284)
(9.82448 0 0.709677)
(9.86243 0 0.654713)
(9.75712 0 0.851083)
(9.80317 0 0.795681)
(9.67958 0 1.00016)
(9.73425 0 0.943672)
(9.592 0 1.15834)
(9.65582 0 1.10014)
(9.49451 0 1.32706)
(9.56805 0 1.26652)
(9.38715 0 1.50777)
(9.47107 0 1.44427)
(9.26995 0 1.70195)
(9.36498 0 1.63485)
(9.14288 0 1.91113)
(9.24985 0 1.8398)
(9.00586 0 2.13692)
(9.1257 0 2.06069)
(8.85869 0 2.38106)
(8.99249 0 2.29922)
(8.70106 0 2.64539)
(8.8501 0 2.55723)
(8.53246 0 2.93198)
(8.69826 0 2.83671)
(8.35212 0 3.24314)
(8.53656 0 3.13995)
(8.15885 0 3.58155)
(8.3643 0 3.46955)
(7.95092 0 3.95039)
(8.18043 0 3.82864)
(7.7258 0 4.35356)
(7.98335 0 4.22103)
(7.47973 0 4.79591)
(7.7707 0 4.65151)
(7.20714 0 5.28363)
(7.53899 0 5.12629)
(6.89966 0 5.82471)
(7.28299 0 5.65357)
(6.54432 0 6.42949)
(6.9947 0 6.24451)
(6.12038 0 7.11141)
(6.6614 0 6.9146)
(5.5931 0 7.8876)
(6.26254 0 7.68612)
(4.90096 0 8.77791)
(5.75765 0 8.59256)
(3.92695 0 9.8016)
(5.08744 0 9.68516)
(2.43326 0 10.8568)
(3.9796 0 11.0494)
(2.14629 0 12.5685)
(9.98862 0 0.199563)
(9.99567 0 0.135836)
(9.96652 0 0.331262)
(9.98124 0 0.269906)
(9.9342 0 0.464418)
(9.9557 0 0.404472)
(9.89202 0 0.600821)
(9.92016 0 0.541476)
(9.8403 0 0.742065)
(9.87552 0 0.682582)
(9.77932 0 0.889668)
(9.82216 0 0.829337)
(9.70931 0 1.04511)
(9.76027 0 0.983241)
(9.6305 0 1.20985)
(9.69009 0 1.14576)
(9.54306 0 1.38533)
(9.61184 0 1.31837)
(9.44716 0 1.57305)
(9.52576 0 1.50251)
(9.34294 0 1.7745)
(9.43205 0 1.69967)
(9.2305 0 1.99126)
(9.3309 0 1.91142)
(9.10993 0 2.225)
(9.22251 0 2.13935)
(8.98123 0 2.47751)
(9.10701 0 2.38521)
(8.84435 0 2.75077)
(8.98453 0 2.6509)
(8.6991 0 3.047)
(8.85513 0 2.93851)
(8.54513 0 3.36875)
(8.71875 0 3.25047)
(8.38184 0 3.71907)
(8.57526 0 3.58961)
(8.20827 0 4.10164)
(8.42431 0 3.95934)
(8.02296 0 4.52115)
(8.26533 0 4.36394)
(7.82373 0 4.98363)
(8.0974 0 4.80888)
(7.60729 0 5.49712)
(7.91918 0 5.30138)
(7.36861 0 6.07268)
(7.72868 0 5.85133)
(7.09978 0 6.72596)
(7.52304 0 6.47264)
(6.78763 0 7.48017)
(7.29801 0 7.1859)
(6.40861 0 8.37205)
(7.04812 0 8.0235)
(5.91571 0 9.46604)
(6.76319 0 9.04193)
(5.1963 0 10.9085)
(6.46223 0 10.3569)
(3.88467 0 13.1791)
(6.19026 0 12.3037)
(5.25966 0 16.3733)
(0.186137 0 -0.11266)
(0.108346 0 -0.18231)
(0.365084 0 -0.0968109)
(0.26481 0 -0.171128)
(0.514008 0 -0.0753586)
(0.42179 0 -0.139054)
(0.632811 0 -0.0564858)
(0.555546 0 -0.108308)
(0.72635 0 -0.0414781)
(0.662499 0 -0.0832629)
(0.799774 0 -0.0299519)
(0.747352 0 -0.0638131)
(0.85753 0 -0.0212605)
(0.815582 0 -0.0490109)
(0.903283 0 -0.0148121)
(0.871459 0 -0.0379082)
(0.939996 0 -0.0101149)
(0.918079 0 -0.0297)
(0.970042 0 -0.00677132)
(0.957778 0 -0.0237328)
(0.995312 0 -0.00446302)
(0.992394 0 -0.0194881)
(1.01729 0 -0.00293136)
(1.02338 0 -0.016553)
(1.03713 0 -0.00195642)
(1.05188 0 -0.0145843)
(1.05563 0 -0.00134068)
(1.07875 0 -0.0132786)
(1.07325 0 -0.00090012)
(1.10455 0 -0.0123527)
(1.09011 0 -0.00046528)
(1.12961 0 -0.0115384)
(1.10597 0 0.000104689)
(1.15395 0 -0.0105957)
(1.1203 0 0.000896451)
(1.17735 0 -0.00934647)
(1.13242 0 0.00191845)
(1.19936 0 -0.00771943)
(1.14171 0 0.00310151)
(1.21946 0 -0.00577812)
(1.14779 0 0.00433372)
(1.23722 0 -0.00369375)
(1.1506 0 0.00549611)
(1.25243 0 -0.00166713)
(1.15039 0 0.00646616)
(1.26508 0 0.000125308)
(1.14692 0 0.00730837)
(1.27517 0 0.00195914)
(1.13999 0 0.00815257)
(1.28246 0 0.00382474)
(1.12924 0 0.00889358)
(1.28655 0 0.00579394)
(1.11487 0 0.00927084)
(1.2868 0 0.0075585)
(1.09811 0 0.00894824)
(1.28344 0 0.00861078)
(1.08161 0 0.00730458)
(1.27826 0 0.00827656)
(1.27344 0 0.00539802)
(0.170338 0 -0.265897)
(0.0892779 0 -0.349146)
(0.335249 0 -0.23502)
(0.232142 0 -0.328833)
(0.474901 0 -0.188913)
(0.36697 0 -0.269449)
(0.589566 0 -0.147782)
(0.482503 0 -0.212844)
(0.683799 0 -0.115011)
(0.576263 0 -0.167143)
(0.762098 0 -0.0898316)
(0.652768 0 -0.131864)
(0.828173 0 -0.0708043)
(0.716525 0 -0.105081)
(0.884925 0 -0.0565988)
(0.770872 0 -0.08493)
(0.934615 0 -0.0461253)
(0.818134 0 -0.0698976)
(0.97901 0 -0.038518)
(0.860033 0 -0.0587986)
(1.01949 0 -0.0330953)
(0.897914 0 -0.0507097)
(1.05715 0 -0.0293117)
(0.932839 0 -0.0449077)
(1.09281 0 -0.0267114)
(0.965639 0 -0.0408061)
(1.12712 0 -0.0248908)
(0.996949 0 -0.0379023)
(1.16049 0 -0.0234763)
(1.02724 0 -0.0357415)
(1.19316 0 -0.0221209)
(1.05683 0 -0.0338971)
(1.22516 0 -0.0205285)
(1.08587 0 -0.0319785)
(1.25632 0 -0.0185046)
(1.11434 0 -0.0296751)
(1.28632 0 -0.0160111)
(1.14205 0 -0.0268318)
(1.31484 0 -0.0131782)
(1.1687 0 -0.0235121)
(1.34165 0 -0.0102329)
(1.19397 0 -0.019974)
(1.36668 0 -0.00736723)
(1.21772 0 -0.0165102)
(1.38972 0 -0.00462793)
(1.24001 0 -0.0132128)
(1.41064 0 -0.00183692)
(1.26089 0 -0.00986625)
(1.42898 0 0.00121571)
(1.28052 0 -0.00629442)
(1.44402 0 0.00436619)
(1.29863 0 -0.0023101)
(1.45512 0 0.00691441)
(1.31477 0 0.00171975)
(1.46312 0 0.00799115)
(1.32828 0 0.00450042)
(1.47009 0 0.00693048)
(1.33881 0 0.00477797)
(1.34833 0 0.00307731)
(0.141995 0 -0.418835)
(0.0686948 0 -0.488221)
(0.274231 0 -0.370481)
(0.185732 0 -0.455291)
(0.38364 0 -0.300126)
(0.284807 0 -0.371607)
(0.472528 0 -0.237961)
(0.36922 0 -0.29388)
(0.545454 0 -0.188669)
(0.436155 0 -0.232057)
(0.606277 0 -0.150817)
(0.490582 0 -0.184725)
(0.658013 0 -0.122119)
(0.535932 0 -0.148983)
(0.702825 0 -0.100509)
(0.574617 0 -0.122059)
(0.742338 0 -0.084358)
(0.608166 0 -0.101863)
(0.77782 0 -0.072399)
(0.637717 0 -0.086824)
(0.810267 0 -0.0636453)
(0.664189 0 -0.0757334)
(0.84047 0 -0.057314)
(0.68831 0 -0.0676505)
(0.869049 0 -0.0527593)
(0.710662 0 -0.061818)
(0.896485 0 -0.0494197)
(0.731703 0 -0.0575973)
(0.923135 0 -0.0467827)
(0.751798 0 -0.0544204)
(0.949233 0 -0.0443716)
(0.771236 0 -0.0517571)
(0.974869 0 -0.0417681)
(0.790225 0 -0.0491077)
(0.999967 0 -0.0386791)
(0.808869 0 -0.0460489)
(1.0243 0 -0.0350231)
(0.827114 0 -0.0423341)
(1.0476 0 -0.030969)
(0.84474 0 -0.0380028)
(1.0697 0 -0.0268422)
(0.861404 0 -0.0333909)
(1.09067 0 -0.0228853)
(0.876862 0 -0.0289429)
(1.11083 0 -0.0190277)
(0.891212 0 -0.0248834)
(1.13059 0 -0.0149714)
(0.904949 0 -0.0210358)
(1.15006 0 -0.0104474)
(0.918607 0 -0.0170421)
(1.16919 0 -0.00558078)
(0.932297 0 -0.0126187)
(1.18744 0 -0.0012631)
(0.946063 0 -0.00788027)
(1.20333 0 0.0011719)
(0.958731 0 -0.00366163)
(1.21546 0 0.00118648)
(0.968191 0 -0.00130858)
(0.972682 0 -0.000601217)
(0.110827 0 -0.534514)
(0.0480369 0 -0.59677)
(0.204782 0 -0.466634)
(0.133443 0 -0.545141)
(0.277862 0 -0.375445)
(0.190764 0 -0.439843)
(0.335341 0 -0.297221)
(0.240422 0 -0.346282)
(0.381587 0 -0.236181)
(0.276076 0 -0.273223)
(0.419573 0 -0.189721)
(0.304102 0 -0.21774)
(0.451569 0 -0.15463)
(0.326394 0 -0.176134)
(0.478874 0 -0.128151)
(0.344563 0 -0.144682)
(0.502448 0 -0.108253)
(0.35933 0 -0.120933)
(0.523053 0 -0.0934057)
(0.371338 0 -0.1031)
(0.541307 0 -0.0824278)
(0.381141 0 -0.089811)
(0.55771 0 -0.0743868)
(0.389175 0 -0.0800021)
(0.572671 0 -0.0685184)
(0.395799 0 -0.0728176)
(0.586532 0 -0.0641685)
(0.401321 0 -0.067547)
(0.599591 0 -0.060748)
(0.406023 0 -0.0635735)
(0.612109 0 -0.0577039)
(0.41019 0 -0.0603238)
(0.624278 0 -0.0545301)
(0.414108 0 -0.0572384)
(0.63616 0 -0.0508374)
(0.418043 0 -0.0538009)
(0.64764 0 -0.0464696)
(0.422117 0 -0.0496464)
(0.658433 0 -0.0415925)
(0.426236 0 -0.0447158)
(0.668248 0 -0.0366378)
(0.429907 0 -0.039351)
(0.677027 0 -0.0320605)
(0.432566 0 -0.0341478)
(0.685053 0 -0.0280315)
(0.433648 0 -0.0295297)
(0.692866 0 -0.0243208)
(0.433358 0 -0.0254521)
(0.70089 0 -0.0204496)
(0.432252 0 -0.0214705)
(0.709066 0 -0.0160485)
(0.430646 0 -0.0170245)
(0.716669 0 -0.011277)
(0.430167 0 -0.0118803)
(0.722296 0 -0.00696941)
(0.429257 0 -0.00655205)
(0.723648 0 -0.00369126)
(0.426783 0 -0.00198674)
(0.419583 0 -0.000845194)
(0.0747095 0 -0.615169)
(0.0261988 0 -0.669943)
(0.126412 0 -0.526391)
(0.0747214 0 -0.594584)
(0.159996 0 -0.418331)
(0.0863097 0 -0.471201)
(0.182926 0 -0.329067)
(0.0993621 0 -0.367186)
(0.199252 0 -0.260575)
(0.100807 0 -0.287756)
(0.210563 0 -0.208953)
(0.0991503 0 -0.22757)
(0.218691 0 -0.170062)
(0.0946503 0 -0.183032)
(0.224062 0 -0.140539)
(0.0883421 0 -0.149132)
(0.227151 0 -0.118175)
(0.0803836 0 -0.123432)
(0.228368 0 -0.101332)
(0.0711915 0 -0.104061)
(0.228047 0 -0.0887445)
(0.0611059 0 -0.0895632)
(0.226465 0 -0.0794154)
(0.0503667 0 -0.0788107)
(0.223866 0 -0.0725352)
(0.0391853 0 -0.0709067)
(0.220486 0 -0.0674238)
(0.0277611 0 -0.0651208)
(0.216583 0 -0.0634769)
(0.0162956 0 -0.0608379)
(0.21245 0 -0.0601163)
(0.00502781 0 -0.0574953)
(0.208391 0 -0.0567741)
(-0.0057485 0 -0.054526)
(0.204638 0 -0.0529454)
(-0.01571 0 -0.0513528)
(0.201228 0 -0.0483177)
(-0.0246314 0 -0.047474)
(0.197878 0 -0.0429188)
(-0.0324957 0 -0.0426327)
(0.193951 0 -0.037133)
(-0.0397147 0 -0.0369664)
(0.18864 0 -0.0314775)
(-0.0469463 0 -0.0309988)
(0.181441 0 -0.0262703)
(-0.0551529 0 -0.0253617)
(0.172388 0 -0.0214485)
(-0.0647026 0 -0.0203354)
(0.162093 0 -0.0166774)
(-0.0754737 0 -0.0157889)
(0.151743 0 -0.0116117)
(-0.0872438 0 -0.0114473)
(0.141688 0 -0.00611692)
(-0.0980896 0 -0.00658994)
(0.131148 0 -0.000734704)
(-0.108764 0 -0.0011379)
(0.121752 0 0.00129357)
(-0.117502 0 0.00272576)
(-0.127843 0 0.00184217)
(0.033196 0 -0.655888)
(0.001888 0 -0.702456)
(0.0393224 0 -0.545583)
(0.00844711 0 -0.600442)
(0.031414 0 -0.42456)
(-0.0268547 0 -0.463816)
(0.0183263 0 -0.328386)
(-0.0524942 0 -0.355255)
(0.00141142 0 -0.255453)
(-0.0867313 0 -0.272699)
(-0.0166938 0 -0.201311)
(-0.120446 0 -0.211834)
(-0.0360947 0 -0.161089)
(-0.15384 0 -0.166568)
(-0.0562104 0 -0.130652)
(-0.18619 0 -0.132466)
(-0.0766694 0 -0.107734)
(-0.217373 0 -0.106881)
(-0.0971895 0 -0.0905885)
(-0.247106 0 -0.0878531)
(-0.117581 0 -0.0778697)
(-0.275243 0 -0.0738367)
(-0.137699 0 -0.0685386)
(-0.30178 0 -0.0636622)
(-0.15741 0 -0.0617638)
(-0.326762 0 -0.0564146)
(-0.176584 0 -0.0568612)
(-0.350254 0 -0.051357)
(-0.19506 0 -0.0532454)
(-0.372313 0 -0.0478882)
(-0.212625 0 -0.0503657)
(-0.392937 0 -0.0454753)
(-0.229025 0 -0.0476574)
(-0.412028 0 -0.0435676)
(-0.244041 0 -0.0445679)
(-0.429441 0 -0.0415564)
(-0.257575 0 -0.0406838)
(-0.445077 0 -0.0388533)
(-0.269721 0 -0.0359047)
(-0.45901 0 -0.0350787)
(-0.280792 0 -0.0305142)
(-0.471564 0 -0.0302431)
(-0.29132 0 -0.0250261)
(-0.483297 0 -0.0247567)
(-0.301934 0 -0.0198803)
(-0.494894 0 -0.0192173)
(-0.313029 0 -0.0151863)
(-0.506874 0 -0.0140641)
(-0.324697 0 -0.0106647)
(-0.519402 0 -0.00934946)
(-0.337129 0 -0.00589205)
(-0.532397 0 -0.00474839)
(-0.349729 0 -0.00103679)
(-0.544636 0 3.90694e-05)
(-0.360062 0 0.00270731)
(-0.555172 0 0.00417018)
(-0.366585 0 0.00371293)
(-0.56316 0 0.00599743)
(-0.570058 0 0.00484715)
(-0.0150165 0 -0.650336)
(-0.0272937 0 -0.687749)
(-0.0554013 0 -0.519898)
(-0.0665058 0 -0.561822)
(-0.10444 0 -0.392007)
(-0.147649 0 -0.418028)
(-0.156139 0 -0.294865)
(-0.213399 0 -0.308122)
(-0.207498 0 -0.223428)
(-0.28263 0 -0.226983)
(-0.25704 0 -0.17121)
(-0.347634 0 -0.168777)
(-0.303993 0 -0.132497)
(-0.407681 0 -0.126725)
(-0.347904 0 -0.10381)
(-0.46219 0 -0.0960829)
(-0.388561 0 -0.0827644)
(-0.511294 0 -0.0739912)
(-0.42592 0 -0.0675307)
(-0.555394 0 -0.0583446)
(-0.460097 0 -0.0566818)
(-0.594936 0 -0.0474786)
(-0.491317 0 -0.0491358)
(-0.630455 0 -0.0401542)
(-0.519854 0 -0.0440521)
(-0.662477 0 -0.0354338)
(-0.54599 0 -0.0407639)
(-0.691495 0 -0.0325953)
(-0.569953 0 -0.038721)
(-0.717933 0 -0.0310928)
(-0.59187 0 -0.037405)
(-0.742085 0 -0.0304761)
(-0.611789 0 -0.0362524)
(-0.76408 0 -0.0302583)
(-0.629751 0 -0.0346603)
(-0.783954 0 -0.0298381)
(-0.645892 0 -0.032109)
(-0.801784 0 -0.0285715)
(-0.660517 0 -0.0283534)
(-0.817824 0 -0.0259833)
(-0.674078 0 -0.0235424)
(-0.832546 0 -0.0220081)
(-0.687101 0 -0.0181431)
(-0.84655 0 -0.0170351)
(-0.700088 0 -0.0127056)
(-0.860382 0 -0.011699)
(-0.713347 0 -0.0075937)
(-0.874386 0 -0.00656959)
(-0.726929 0 -0.00291668)
(-0.888285 0 -0.00185359)
(-0.739888 0 0.00134239)
(-0.901196 0 0.00223425)
(-0.750726 0 0.00490936)
(-0.91255 0 0.00574162)
(-0.759261 0 0.00690579)
(-0.921889 0 0.00855439)
(-0.766266 0 0.00666714)
(-0.930077 0 0.00951104)
(-0.934985 0 0.0082137)
(-0.0664619 0 -0.595967)
(-0.0635666 0 -0.622653)
(-0.156842 0 -0.453339)
(-0.151544 0 -0.475392)
(-0.248252 0 -0.325935)
(-0.280428 0 -0.332676)
(-0.337431 0 -0.231756)
(-0.38587 0 -0.226821)
(-0.421161 0 -0.16484)
(-0.486418 0 -0.152451)
(-0.497585 0 -0.118356)
(-0.577688 0 -0.102356)
(-0.565706 0 -0.0858067)
(-0.658968 0 -0.0689196)
(-0.625755 0 -0.0628239)
(-0.729847 0 -0.0463294)
(-0.67844 0 -0.0468535)
(-0.789783 0 -0.0313706)
(-0.724707 0 -0.0361152)
(-0.840926 0 -0.0217995)
(-0.765525 0 -0.029195)
(-0.884964 0 -0.0159997)
(-0.801757 0 -0.0250361)
(-0.923364 0 -0.0128712)
(-0.834148 0 -0.0228383)
(-0.957297 0 -0.0116195)
(-0.863338 0 -0.0219976)
(-0.987709 0 -0.0116411)
(-0.889838 0 -0.0220614)
(-1.01535 0 -0.0125195)
(-0.91395 0 -0.0226297)
(-1.04073 0 -0.0139755)
(-0.935814 0 -0.023222)
(-1.06409 0 -0.015649)
(-0.955533 0 -0.0232365)
(-1.08536 0 -0.0169735)
(-0.973314 0 -0.0220747)
(-1.10442 0 -0.0172453)
(-0.989577 0 -0.0193848)
(-1.12163 0 -0.0158688)
(-1.00489 0 -0.0152616)
(-1.13759 0 -0.0127066)
(-1.01978 0 -0.01023)
(-1.15301 0 -0.00820638)
(-1.03465 0 -0.00505397)
(-1.16834 0 -0.00309277)
(-1.04923 0 -0.00039614)
(-1.183 0 0.00167086)
(-1.06243 0 0.00352981)
(-1.19658 0 0.00542988)
(-1.0738 0 0.00688567)
(-1.20849 0 0.00836017)
(-1.08378 0 0.00966497)
(-1.21908 0 0.0109967)
(-1.09245 0 0.0111724)
(-1.22872 0 0.0130059)
(-1.10013 0 0.0108614)
(-1.23681 0 0.0133625)
(-1.24109 0 0.0121669)
(-0.126219 0 -0.488818)
(-0.111499 0 -0.49903)
(-0.272078 0 -0.342602)