/*--------------------------------*- C++ -*----------------------------------*\
  =========                 |
  \\      /  F ield         | OpenFOAM: The Open Source CFD Toolbox
   \\    /   O peration     | Website:  https://openfoam.org
    \\  /    A nd           | Version:  dev
     \\/     M anipulation  |
\*---------------------------------------------------------------------------*/
FoamFile
{
    version     2.0;
    format      ascii;
    class       volScalarField;
    location    "3.3";
    object      p;
}
// * * * * * * * * * * * * * * * * * * * * * * * * * * * * * * * * * * * * * //

dimensions      [0 2 -2 0 0 0 0];

internalField   nonuniform List<scalar> 
2790
(
147.338
147.246
147.513
148.084
148.864
149.821
150.954
152.26
153.737
155.378
157.177
159.128
161.222
163.447
165.787
168.223
170.727
173.266
175.798
178.272
180.63
182.808
184.739
186.359
187.619
188.493
188.929
188.985
189.036
189.248
147.135
147.153
147.445
148.014
148.79
149.744
150.872
152.173
153.642
155.274
157.064
159.005
161.088
163.302
165.631
168.057
170.553
173.086
175.616
178.094
180.463
182.658
184.612
186.261
187.545
188.42
188.817
188.871
189.004
189.289
146.937
147.024
147.336
147.894
148.657
149.598
150.711
151.994
153.441
155.049
156.812
158.721
160.769
162.944
165.233
167.615
170.067
172.557
175.049
177.497
179.846
182.039
184.012
185.701
187.052
188.028
188.621
188.977
189.292
189.591
146.712
146.83
147.154
147.703
148.452
149.377
150.47
151.729
153.148
154.722
156.446
158.311
160.31
162.43
164.659
166.976
169.361
171.784
174.211
176.602
178.909
181.08
183.062
184.802
186.256
187.408
188.276
188.947
189.5
190.019
146.451
146.583
146.916
147.458
148.19
149.094
150.161
151.388
152.77
154.302
155.976
157.785
159.721
161.771
163.923
166.159
168.457
170.792
173.133
175.446
177.691
179.826
181.809
183.599
185.17
186.512
187.643
188.605
189.416
190.163
146.15
146.288
146.623
147.155
147.867
148.745
149.781
150.97
152.307
153.787
155.402
157.145
159.006
160.974
163.035
165.173
167.368
169.597
171.834
174.049
176.211
178.289
180.251
182.072
183.735
185.236
186.583
187.788
188.808
189.727
145.808
145.947
146.278
146.797
147.486
148.334
149.333
150.479
151.765
153.185
154.732
156.397
158.172
160.045
162.002
164.028
166.104
168.21
170.322
172.418
174.473
176.464
178.372
180.182
181.888
183.489
184.983
186.362
187.526
188.573
145.423
145.56
145.884
146.387
147.05
147.864
148.822
149.917
151.145
152.498
153.968
155.548
157.226
158.992
160.833
162.732
164.673
166.637
168.604
170.556
172.473
174.341
176.148
177.89
179.568
181.187
182.742
184.214
185.464
186.615
144.997
145.13
145.444
145.927
146.561
147.337
148.248
149.289
150.453
151.732
153.118
154.602
156.174
157.823
159.534
161.292
163.081
164.885
166.684
168.463
170.206
171.904
173.552
175.152
176.713
178.248
179.757
181.227
182.498
183.737
144.53
144.658
144.959
145.419
146.022
146.757
147.618
148.599
149.692
150.891
152.186
153.567
155.024
156.544
158.114
159.718
161.339
162.962
164.568
166.141
167.669
169.143
170.561
171.929
173.261
174.58
175.9
177.238
178.438
179.742
144.025
144.146
144.432
144.867
145.435
146.126
146.933
147.85
148.869
149.982
151.179
152.45
153.784
155.167
156.584
158.02
159.458
160.879
162.265
163.6
164.867
166.057
167.164
168.192
169.155
170.084
171.013
172.012
172.974
174.292
143.483
143.597
143.865
144.274
144.805
145.448
146.198
147.047
147.988
149.01
150.104
151.259
152.462
153.699
154.954
156.211
157.45
158.65
159.792
160.854
161.816
162.658
163.366
163.931
164.357
164.666
164.908
165.215
165.596
166.77
142.906
143.012
143.262
143.642
144.134
144.728
145.418
146.196
147.054
147.982
148.968
150.002
151.068
152.153
153.238
154.305
155.332
156.296
157.171
157.93
158.543
158.977
159.199
159.173
158.869
158.271
157.395
156.401
155.451
155.955
142.296
142.395
142.625
142.974
143.425
143.968
144.596
145.301
146.074
146.904
147.779
148.688
149.613
150.54
151.449
152.318
153.123
153.837
154.429
154.861
155.091
155.068
154.729
153.996
152.773
150.942
148.377
145.073
141.121
139.081
141.657
141.747
141.957
142.275
142.683
143.174
143.738
144.367
145.053
145.783
146.545
147.325
148.107
148.872
149.6
150.267
150.845
151.301
151.598
151.688
151.515
151.005
150.06
148.544
146.265
142.932
138.086
131.065
120.594
108.357
1.92731
1.90038
1.80921
1.68216
1.5463
1.4141
1.28948
1.17317
1.0648
0.963437
0.867936
0.777347
0.691165
0.609383
0.532319
0.460321
0.393706
0.333249
0.280896
0.239467
0.210898
0.193801
0.182208
0.171445
0.159377
0.144192
0.124285
0.0989721
0.0673335
0.0296784
1.85918
1.82823
1.74308
1.62652
1.50125
1.37807
1.26083
1.1505
1.04687
0.949138
0.856322
0.767631
0.682752
0.601901
0.525572
0.454107
0.387576
0.326543
0.273367
0.23214
0.2057
0.191416
0.182391
0.173253
0.161951
0.147335
0.127857
0.102301
0.0695044
0.0290492
1.78885
1.75205
1.67053
1.56332
1.44879
1.33526
1.22616
1.1226
1.02445
0.931013
0.841408
0.755
0.671676
0.591933
0.516557
0.445969
0.379924
0.318636
0.264865
0.224005
0.199331
0.186707
0.178126
0.170555
0.161546
0.148447
0.129709
0.104768
0.0722728
0.02845
1.72689
1.68427
1.60485
1.50491
1.39952
1.29447
1.19276
1.09545
1.00247
0.91316
0.826727
0.742626
0.660886
0.582246
0.507822
0.438269
0.373071
0.311485
0.255485
0.21276
0.192145
0.186284
0.182659
0.176208
0.166388
0.151771
0.131501
0.105494
0.0719907
0.0276639
1.69301
1.6447
1.56734
1.47193
1.37231
1.27242
1.17517
1.08161
0.991692
0.90484
0.820324
0.737664
0.656946
0.578973
0.504962
0.435836
0.371535
0.312242
0.260075
0.218698
0.192998
0.182121
0.178926
0.174981
0.166888
0.152476
0.131907
0.105566
0.071279
0.0264277
1.70281
1.6471
1.57083
1.4752
1.37579
1.27582
1.17843
1.08472
0.994737
0.907944
0.823647
0.741369
0.661153
0.583651
0.509837
0.440484
0.375965
0.317024
0.266507
0.227917
0.202194
0.189026
0.182097
0.175758
0.166139
0.150501
0.128487
0.100815
0.065812
0.0224926
1.76416
1.69945
1.61674
1.51479
1.40825
1.30216
1.19958
1.10161
1.00824
0.918898
0.832892
0.74974
0.669379
0.592203
0.518854
0.449908
0.385842
0.327474
0.276717
0.236773
0.209366
0.193164
0.182985
0.173993
0.162427
0.14565
0.122828
0.0940339
0.0585885
0.0191254
1.87474
1.79463
1.69496
1.57777
1.45731
1.33957
1.2276
1.12242
1.02377
0.930763
0.84244
0.758106
0.67747
0.600609
0.527809
0.459439
0.396008
0.33837
0.288105
0.247268
0.217505
0.197402
0.183125
0.17059
0.15638
0.137984
0.11401
0.0840454
0.0492382
0.0155987
2.01199
1.90638
1.78004
1.64056
1.50276
1.37207
1.25036
1.13772
1.03389
0.937652
0.847631
0.762792
0.682548
0.606617
0.534866
0.467341
0.404467
0.347296
0.297421
0.256301
0.224567
0.200933
0.182532
0.166168
0.149036
0.128829
0.103628
0.0724539
0.0390156
0.0119745
2.1366
1.99795
1.8477
1.6866
1.53061
1.3868
1.25702
1.14024
1.03428
0.937118
0.846965
0.762648
0.683535
0.609161
0.539031
0.472855
0.410952
0.35444
0.304865
0.263358
0.229945
0.203244
0.180958
0.160733
0.140539
0.118376
0.0918895
0.0600272
0.0285341
0.00833472
2.22672
2.05507
1.87694
1.69805
1.53095
1.38018
1.24627
1.12782
1.02225
0.926595
0.838308
0.75601
0.679247
0.607525
0.539896
0.475561
0.414741
0.358836
0.309605
0.267981
0.233431
0.204252
0.178432
0.15441
0.131072
0.106883
0.0792369
0.047129
0.017998
0.00470645
2.25142
2.0474
1.8438
1.65065
1.48049
1.33308
1.20484
1.09239
0.993023
0.903294
0.819864
0.741442
0.668456
0.60083
0.536982
0.475198
0.415513
0.359985
0.311113
0.269854
0.234957
0.204011
0.175019
0.147218
0.120619
0.0943986
0.0658587
0.0339613
0.00765214
0.00116445
2.13384
1.88552
1.68645
1.51321
1.36528
1.23958
1.12999
1.03231
0.94576
0.867268
0.792034
0.719002
0.650878
0.588934
0.530519
0.472103
0.413334
0.357585
0.308963
0.268784
0.234658
0.20281
0.17093
0.139174
0.109033
0.0807812
0.0518083
0.0207764
-0.00241568
-0.00226342
1.75381
1.47354
1.35527
1.26748
1.17756
1.09816
1.02403
0.949811
0.882003
0.82061
0.756943
0.689565
0.626348
0.571864
0.52132
0.467351
0.408758
0.351447
0.30266
0.264589
0.23287
0.2012
0.166542
0.130286
0.0960083
0.0656567
0.0369305
0.00775013
-0.0118795
-0.00547057
0.940344
0.638993
0.778235
0.918581
0.924947
0.919499
0.900131
0.85145
0.802294
0.765352
0.718337
0.655108
0.594887
0.549881
0.511129
0.463071
0.402794
0.341156
0.291192
0.25681
0.23006
0.200008
0.16238
0.120525
0.0810626
0.048431
0.0209462
-0.00491153
-0.0203517
-0.0083079
140.978
141.059
141.247
141.532
141.897
142.332
142.83
143.382
143.977
144.604
145.249
145.897
146.531
147.131
147.674
148.133
148.477
148.669
148.663
148.403
147.817
146.808
145.244
142.931
139.568
134.661
127.288
115.53
93.3507
33.4727
140.251
140.322
140.488
140.738
141.057
141.435
141.864
142.335
142.837
143.357
143.882
144.394
144.876
145.306
145.66
145.907
146.013
145.937
145.627
145.018
144.025
142.536
140.391
137.358
133.082
126.975
118.007
104.442
84.9193
56.4855
139.481
139.542
139.685
139.899
140.171
140.49
140.848
141.237
141.643
142.055
142.456
142.831
143.16
143.419
143.582
143.617
143.488
143.149
142.544
141.602
140.232
138.314
135.682
132.108
127.265
120.699
111.822
99.9977
85.7836
69.2119
138.67
138.722
138.84
139.018
139.24
139.5
139.786
140.09
140.4
140.702
140.98
141.217
141.392
141.482
141.457
141.286
140.929
140.339
139.458
138.213
136.513
134.241
131.245
127.329
122.245
115.703
107.407
97.0273
84.5036
69.4007
137.821
137.861
137.956
138.095
138.269
138.468
138.682
138.901
139.114
139.306
139.462
139.562
139.587
139.51
139.304
138.935
138.363
137.54
136.41
134.901
132.927
130.384
127.141
123.044
117.911
111.544
103.743
94.2681
82.9514
70.0012
136.934
136.964
137.034
137.136
137.26
137.397
137.539
137.674
137.791
137.875
137.91
137.877
137.755
137.519
137.14
136.585
135.815
134.783
133.435
131.706
129.518
126.782
123.392
119.229
114.163
108.06
100.799
92.2801
82.4955
71.8582
136.013
136.032
136.078
136.142
136.217
136.293
136.363
136.415
136.437
136.415
136.333
136.171
135.909
135.522
134.982
134.257
133.308
132.094
130.563
128.657
126.312
123.453
119.997
115.859
110.951
105.194
98.5347
90.9625
82.5211
73.5461
135.06
135.07
135.09
135.117
135.143
135.16
135.159
135.13
135.06
134.936
134.741
134.457
134.063
133.536
132.848
131.969
130.864
129.494
127.815
125.777
123.326
120.403
116.948
112.902
108.211
102.836
96.7632
90.0131
82.6357
74.9026
134.08
134.08
134.076
134.067
134.045
134.003
133.934
133.826
133.668
133.445
133.143
132.744
132.228
131.572
130.751
129.738
128.5
127.003
125.209
123.077
120.564
117.627
114.222
110.313
105.869
100.877
95.3432
89.3008
82.804
76.0797
133.077
133.066
133.04
132.994
132.926
132.828
132.693
132.509
132.267
131.952
131.55
131.044
130.416
129.645
128.707
127.577
126.228
124.631
122.753
120.562
118.026
115.112
111.793
108.047
103.862
99.2384
94.1938
88.7678
83.0132
77.1147
132.055
132.035
131.985
131.905
131.793
131.641
131.442
131.188
130.866
130.465
129.97
129.367
128.638
127.765
126.726
125.499
124.061
122.388
120.453
118.233
115.703
112.841
109.632
106.064
102.136
97.8584
93.2542
88.3627
83.2319
78.0098
131.019
130.989
130.918
130.806
130.65
130.447
130.19
129.868
129.472
128.992
128.413
127.723
126.904
125.942
124.817
123.512
122.005
120.278
118.311
116.085
113.584
110.795
107.709
104.324
100.645
96.687
92.475
88.0453
83.4398
78.7773
129.974
129.936
129.844
129.701
129.505
129.254
128.941
128.558
128.094
127.541
126.887
126.119
125.223
124.185
122.99
121.622
120.065
118.304
116.324
114.112
111.658
108.954
105.999
102.795
99.3506
95.684
91.8191
87.7883
83.6275
79.4325
128.927
128.88
128.769
128.597
128.364
128.069
127.704
127.264
126.739
126.121
125.4
124.564
123.602
122.502
121.25
119.835
118.244
116.465
114.488
112.305
109.909
107.299
104.476
101.446
98.221
94.8177
91.259
87.5732
83.7906
79.9889
127.883
127.828
127.699
127.5
127.233
126.897
126.486
125.994
125.414
124.739
123.959
123.065
122.048
120.896
119.601
118.153
116.541
114.758
112.797
110.653
108.325
105.812
103.119
100.254
97.2301
94.0632
90.774
87.3869
83.9274
80.4586
126.848
126.786
126.641
126.417
126.119
125.745
125.293
124.755
124.127
123.401
122.571
121.628
120.565
119.374
118.047
116.577
114.956
113.18
111.244
109.148
106.89
104.475
101.907
99.1972
96.3566
93.4009
90.3486
87.2205
84.0378
80.8523
125.83
125.762
125.602
125.355
125.029
124.622
124.132
123.554
122.883
122.114
121.242
120.259
119.16
117.939
116.59
115.107
113.487
111.726
109.823
107.778
105.593
103.273
100.825
98.2577
95.5832
92.8157
89.9713
87.0679
84.1233
81.18
124.835
124.761
124.588
124.321
123.969
123.533
123.01
122.397
121.69
120.885
119.977
118.962
117.836
116.593
115.23
113.743
112.131
110.392
108.526
106.536
104.423
102.195
99.8577
97.4211
94.8961
92.2956
89.6336
86.9254
84.186
81.4504
123.87
123.791
123.606
123.322
122.948
122.486
121.935
121.291
120.554
119.718
118.782
117.742
116.595
115.338
113.968
112.485
110.886
109.173
107.347
105.411
103.369
101.227
98.9931
96.6754
94.2844
91.8316
89.3293
86.7906
84.2283
81.6713
122.943
122.86
122.664
122.365
121.971
121.487
120.912
120.243
119.48
118.62
117.661
116.602
115.441
114.176
112.805
111.329
109.749
108.065
106.28
104.397
102.422
100.361
98.2215
96.011
93.7393
91.4168
89.0541
86.6626
84.2531
81.8497
122.062
121.975
121.77
121.457
121.047
120.544
119.948
119.258
118.474
117.595
116.619
115.546
114.376
113.107
111.741
110.276
108.716
107.062
105.318
103.487
101.576
99.589
97.5346
95.4201
93.2542
91.046
88.8051
86.541
84.2633
81.9921
121.234
121.143
120.931
120.606
120.182
119.663
119.05
118.343
117.542
116.648
115.66
114.578
113.403
112.134
110.775
109.324
107.786
106.163
104.458
102.676
100.823
98.9038
96.9261
94.8969
92.8241
90.7159
88.5805
86.4266
84.2623
82.1043
120.467
120.373
120.154
119.819
119.383
118.851
118.224
117.503
116.69
115.784
114.787
113.699
112.523
111.258
109.907
108.472
106.956
105.363
103.695
101.959
100.158
98.3003
96.3908
94.4367
92.4451
90.4235
88.3793
86.3199
84.2526
82.1914
119.77
119.673
119.448
119.105
118.658
118.115
117.477
116.746
115.922
115.008
114.005
112.915
111.739
110.48
109.14
107.721
106.226
104.661
103.028
101.332
99.5796
97.7754
95.9257
94.0369
92.1156
90.1684
88.202
86.2232
84.2383
82.2592
119.15
119.051
118.82
118.47
118.015
117.462
116.815
116.075
115.244
114.325
113.318
112.228
111.055
109.802
108.472
107.068
105.595
104.055
102.453
100.794
99.0827
97.3253
95.5271
93.6942
91.8326
89.9484
88.0477
86.1365
84.2206
82.3098
118.618
118.517
118.28
117.922
117.46
116.9
116.246
115.5
114.664
113.741
112.733
111.643
110.473
109.227
107.908
106.519
105.064
103.547
101.972
100.344
98.669
96.9512
95.1965
93.4105
91.5987
89.7669
87.9206
86.0654
84.2066
82.3525
118.183
118.078
117.834
117.468
116.999
116.434
115.774
115.023
114.183
113.257
112.249
111.161
109.995
108.756
107.446
106.07
104.631
103.133
101.581
99.9796
98.3336
96.6483
94.9288
93.1805
91.4087
89.6187
87.8157
86.0048
84.1908
82.3807
117.857
117.746
117.493
117.121
116.647
116.077
115.413
114.658
113.816
112.889
111.881
110.794
109.632
108.399
107.097
105.732
104.305
102.823
101.29
99.7088
98.086
96.4261
94.7342
93.0153
91.2746
89.5171
87.7477
85.9713
84.1925
82.4175
117.655
117.52
117.25
116.872
116.396
115.823
115.157
114.4
113.557
112.63
111.622
110.538
109.38
108.151
106.855
105.497
104.081
102.609
101.088
99.5216
97.9145
96.2718
94.5983
92.8989
91.1787
89.4425
87.6949
85.9407
84.1841
82.4303
117.637
117.438
117.14
116.755
116.276
115.7
115.031
114.273
113.428
112.501
111.495
110.412
109.256
108.031
106.74
105.388
103.977
102.514
101.001
99.4441
97.8474
96.2158
94.554
92.8671
91.1597
89.4367
87.7026
85.9619
84.219
82.4781
-50.6517
-30.4747
-11.0347
36.2021
28.9362
17.2625
51.8141
39.8218
28.7377
53.1796
42.7978
34.8038
57.4881
49.2325
42.5091
61.8566
54.9727
49.1041
65.1074
59.2433
54.209
67.6818
62.669
58.3698
69.8514
65.5276
61.8254
71.6822
67.9093
64.6866
73.2208
69.8945
67.0603
74.5167
71.5567
69.0399
75.61
72.9536
70.6983
76.5328
74.1303
72.0926
77.3115
75.1231
73.2683
77.9678
75.9614
74.2613
78.5199
76.6691
75.1008
78.9828
77.2657
75.8101
79.3694
77.7675
76.4086
79.6907
78.1882
76.9124
79.9562
78.5395
77.3351
80.1745
78.8317
77.6884
80.3523
79.0727
77.9817
80.4974
79.2718
78.2248
80.6125
79.4321
78.4223
80.7093
79.5663
78.5865
80.7791
79.6659
78.7108
80.8505
79.76
78.8222
80.8836
79.8094
78.8856
80.9523
79.8923
78.9749
-2.00524
-1.84179
-0.428984
0.610282
0.681266
0.718806
0.762709
0.733308
0.700791
0.710475
0.691316
0.622526
0.554909
0.519574
0.500279
0.461393
0.396208
0.325539
0.272711
0.244777
0.22733
0.200931
0.159455
0.109826
0.0632892
0.0278979
0.00306401
-0.0172131
-0.0275037
-0.0106588
3.58441
0.445653
1.49979
1.19624
0.145351
0.165629
0.627616
0.699159
0.634641
0.681134
0.677012
0.572086
0.480093
0.468125
0.496896
0.476042
0.397135
0.306331
0.244941
0.226171
0.225381
0.2059
0.158483
0.0972596
0.0406536
0.00176987
-0.0181652
-0.029146
-0.0328269
-0.0123779
14.535
6.08162
3.18294
1.04671
0.517092
1.23047
1.46727
0.655142
0.156785
0.36447
0.678794
0.585821
0.443173
0.455453
0.5363
0.508211
0.390102
0.260416
0.185345
0.188971
0.227261
0.222657
0.164023
0.0845787
0.0133794
-0.0303984
-0.0428218
-0.0393288
-0.034606
-0.0132688
24.1111
14.269
8.44182
4.7136
2.79872
1.98092
1.0831
0.431768
0.387617
1.25882
1.42427
0.561064
0.113584
0.124067
0.402033
0.558833
0.422805
0.238062
0.144498
0.18218
0.268042
0.25567
0.170436
0.0624618
-0.0288689
-0.0788715
-0.0795356
-0.0517243
-0.0329133
-0.0135066
33.2083
23.4774
16.1718
10.862
7.17852
4.67379
2.879
1.79337
1.31016
1.31111
0.903625
0.415487
0.143083
0.414294
1.0468
0.982925
0.426893
0.084679
-0.067835
-0.00387204
0.198775
0.294652
0.194967
0.0484779
-0.0680418
-0.124032
-0.106941
-0.0416966
-0.00403002
-0.00918933
41.1308
32.2234
24.3433
17.9103
12.9741
9.30515
6.60987
4.68433
3.35358
2.45405
1.69182
1.09625
0.708383
0.682586
0.802276
0.723143
0.417417
0.100262
-0.0438899
0.160247
0.550307
0.512992
0.201754
-0.0228484
-0.169156
-0.229858
-0.195181
-0.0834822
0.00877035
-0.0192693
47.591
39.7979
32.031
25.1444
19.5111
15.0298
11.4867
8.713
6.58532
4.98365
3.74021
2.74975
2.01572
1.57624
1.32039
1.07415
0.719724
0.355361
0.164476
0.222785
0.349949
0.359122
0.193191
-0.014761
-0.171672
-0.232859
-0.174264
-0.00217157
0.171537
0.00510561
52.8538
46.1304
38.8793
32.0514
26.1628
21.2047
17.0512
13.6116
10.8139
8.56927
6.7557
5.27958
4.118
3.26056
2.63085
2.09227
1.55191
1.06749
0.749675
0.623363
0.587303
0.515949
0.320631
0.0778821
-0.107485
-0.188961
-0.153784
-0.0277068
0.120091
-0.080555
57.148
51.3353
44.7544
38.2814
32.4594
27.3393
22.8582
18.9804
15.6753
12.8911
10.5536
8.5991
6.99088
5.69684
4.6535
3.7679
2.97877
2.30354
1.79135
1.44919
1.21297
0.981267
0.692098
0.392058
0.1574
0.0254524
-0.0013015
0.0416475
0.0649318
-0.331618
60.6523
55.5862
49.6847
43.699
38.1414
33.0891
28.5139
24.4117
20.7841
17.6134
14.8631
12.4933
10.47
8.75947
7.31384
6.07345
4.99381
4.0678
3.30894
2.7126
2.23331
1.80241
1.37868
0.981087
0.653598
0.421031
0.27763
0.178516
0.0159357
-0.550674
63.5301
59.0706
53.7899
48.3198
43.1193
38.2714
33.7635
29.6075
25.8243
22.4197
19.3821
16.6911
14.324
12.2556
10.4531
8.87736
7.49507
6.29023
5.25913
4.39047
3.65153
2.99711
2.39623
1.85036
1.38012
0.997537
0.689714
0.407743
0.0528429
-0.631531
65.9134
61.9487
57.209
52.2272
47.4079
42.8295
38.485
34.3917
30.5794
27.0667
23.8576
20.9466
18.323
15.972
13.8732
12.0017
10.3337
8.85297
7.54913
6.40868
5.40733
4.51394
3.70395
2.9703
2.31844
1.74951
1.24602
0.762456
0.221799
-0.560934
67.9012
64.3441
60.0665
55.524
51.0728
46.7831
42.6487
38.6868
34.929
31.4002
28.113
25.0717
22.2749
19.7169
17.387
15.2708
13.3528
11.6197
10.0604
8.66218
7.40651
6.27109
5.23638
4.29176
3.4336
2.65562
1.93886
1.24537
0.520412
-0.364584
69.5682
66.3503
62.4657
58.3092
54.1962
50.1888
46.2793
42.4824
38.8284
35.3438
32.0456
28.9436
26.0428
23.3441
20.8441
18.5359
16.4108
14.4595
12.6728
11.04
9.54728
8.17833
6.91756
5.7534
4.67759
3.68004
2.7426
1.83566
0.922514
-0.081412
70.9719
68.0388
64.4888
60.6681
56.8584
53.1143
49.4264
45.806
42.2807
38.8761
35.6107
32.4973
29.5448
26.7584
24.1397
21.6872
19.3972
17.2644
15.2823
13.443
11.7362
10.1501
8.67206
7.29118
5.99751
4.77966
3.62146
2.50048
1.39263
0.246908
72.1571
69.4647
66.2005
62.671
59.13
55.6257
52.1469
48.7017
45.3142
42.0083
38.8023
35.7103
32.743
29.9083
27.2113
24.6541
22.2365
19.9566
17.8107
15.7935
13.8977
12.1147
10.4345
8.84743
7.34348
5.91148
4.53738
3.20404
1.89508
0.583918
73.1594
70.6713
67.652
64.375
61.0704
57.7814
54.4954
51.2172
47.9675
44.768
41.6362
38.5859
35.6287
32.7741
30.0291
27.3983
24.8841
22.487
20.2058
18.0374
15.9772
14.0187
12.1544
10.3758
8.67381
7.03797
5.45607
3.91429
2.40009
0.90337
74.0072
71.6932
68.8841
65.826
62.7289
59.6316
56.5205
53.3977
50.2806
47.1887
44.1377
41.141
38.2103
35.3556
32.5848
29.9043
27.3182
24.8289
22.4369
20.1412
17.9391
15.826
13.7962
11.8426
9.95706
8.13
6.35049
4.60647
2.88649
1.19046
74.7239
72.5583
69.9301
67.0616
64.1461
61.2184
58.2645
55.284
52.2915
49.3039
46.3355
43.3986
40.5045
37.6629
34.8826
32.1706
29.5321
26.9709
24.4889
22.0866
19.7628
17.5145
15.3373
13.2254
11.1716
9.16703
7.20154
5.2637
3.34155
1.44006
75.3286
73.2897
70.8171
68.113
65.3557
62.5775
59.7636
56.9118
54.0342
51.1453
48.2578
45.3829
42.5309
39.7115
36.9331
34.2032
31.5277
28.9111
26.3566
23.8655
21.4378
19.0719
16.7644
14.5105
12.3037
10.1359
7.99708
5.87591
3.75917
1.65355
75.8374
73.9066
71.5676
69.0055
66.3859
63.7386
61.0485
58.312
55.5387
52.7413
49.9309
47.1174
44.3101
41.518
38.7494
36.0117
33.3112
30.6527
28.04
25.4754
22.9597
20.4921
18.0702
15.6898
13.3452
11.0284
8.72989
6.4377
4.13735
1.83527
76.264
74.4252
72.2007
69.761
67.2605
64.7271
62.1456
59.5112
56.8315
54.1175
51.3788
48.624
45.8615
43.0995
40.3459
37.6077
34.8912
32.2016
29.5429
26.9179
24.328
21.7732
19.2515
16.7594
14.2916
11.8405
9.39641
6.94698
4.47661
1.9904
76.6195
74.8586
72.7318
70.3968
67.9987
65.5637
63.0767
60.5317
57.9349
55.2957
52.6222
49.9222
47.2028
44.4716
41.7358
39.002
36.2764
33.5641
30.8693
28.1952
25.5434
22.9142
20.3063
17.7166
15.14
12.5691
9.99413
7.40236
4.77741
2.12254
76.9149
75.2194
73.1752
70.9292
68.6183
66.2673
63.8615
61.3938
58.8694
56.296
53.6808
51.0304
48.3512
45.6499
42.933
40.2068
37.477
34.7486
32.0259
29.3121
26.609
23.9173
21.2359
18.5619
15.8905
13.2143
10.5235
7.80504
5.0421
2.23561
77.1562
75.5151
73.5399
71.3684
69.1307
66.8506
64.5133
62.1115
59.6488
57.1323
54.5679
51.9614
49.3184
46.6447
43.9464
41.2293
38.4985
35.7591
33.0151
30.2696
27.5247
24.7811
22.0378
19.2922
16.5395
13.7724
10.9811
8.15222
5.26876
2.3293
77.3552
75.7582
73.8398
71.7296
69.5521
67.3304
65.0499
62.7028
60.2918
57.823
55.3017
52.7328
50.1212
47.4721
44.7911
42.0832
39.3537
36.6069
33.8468
31.0766
28.2981
25.5122
22.718
19.913
17.0922
14.2486
11.3721
8.44939
5.46313
2.40885
77.5088
75.9467
74.073
72.0115
69.8818
67.7065
65.4714
63.168
60.7986
58.3684
55.8821
53.3439
50.7582
48.1298
45.4636
42.7643
40.0368
37.2852
34.5133
31.7241
28.9195
26.1002
23.2655
20.4127
17.537
14.6312
11.6853
8.6857
5.6153
2.46724
77.6391
76.1027
74.2631
72.2385
70.145
68.0048
65.804
63.534
61.1962
58.7954
56.3359
53.8214
51.2559
48.6437
45.9892
43.297
40.5716
37.8169
35.0365
32.2333
29.4091
26.5646
23.699
20.8096
17.8917
14.9379
11.9381
8.87848
5.74174
2.51716
77.7192
76.1989
74.3817
72.3821
70.3131
68.1964
66.0185
63.7708
61.4542
59.0732
56.6318
54.1333
51.5814
48.9802
46.3338
43.6466
40.9228
38.1663
35.3804
32.5679
29.7307
26.8694
23.983
21.069
18.1225
15.136
12.099
8.99774
5.81458
2.53721
77.8078
76.2886
74.4837
72.4992
70.4438
68.3397
66.174
63.938
61.6326
59.2617
56.8293
54.3387
51.7933
49.1971
46.5541
43.8686
41.1445
38.3859
35.596
32.7775
29.9322
27.0608
24.1624
21.2343
18.2716
15.2666
12.2087
9.08307
5.86951
2.54401
)
;

boundaryField
{
    inlet
    {
        type            zeroGradient;
    }
    outlet
    {
        type            fixedValue;
        value           uniform 0;
    }
    flap
    {
        type            zeroGradient;
    }
    upperWall
    {
        type            zeroGradient;
    }
    lowerWall
    {
        type            zeroGradient;
    }
    frontAndBack
    {
        type            empty;
    }
}


// ************************************************************************* //
