/*--------------------------------*- C++ -*----------------------------------*\
  =========                 |
  \\      /  F ield         | OpenFOAM: The Open Source CFD Toolbox
   \\    /   O peration     | Website:  https://openfoam.org
    \\  /    A nd           | Version:  dev
     \\/     M anipulation  |
\*---------------------------------------------------------------------------*/
FoamFile
{
    version     2.0;
    format      ascii;
    class       surfaceScalarField;
    location    "3.3";
    object      phi;
}
// * * * * * * * * * * * * * * * * * * * * * * * * * * * * * * * * * * * * * //

dimensions      [0 3 -1 0 0 0 0];

internalField   nonuniform List<scalar> 
5457
(
0.198418
0.00158239
0.19648
0.00193738
0.194192
0.00228809
0.191509
0.00268358
0.188427
0.00308119
0.184951
0.00347674
0.181072
0.00387853
0.176778
0.00429394
0.17205
0.00472813
0.166865
0.00518509
0.161197
0.00566834
0.155016
0.00618083
0.148291
0.00672472
0.14099
0.00730106
0.133081
0.00790918
0.124535
0.0085461
0.115329
0.00920552
0.105452
0.0098768
0.0949087
0.0105437
0.0837255
0.0111832
0.0719612
0.0117643
0.0597131
0.0122481
0.0471245
0.0125886
0.0343843
0.0127402
0.0216891
0.0126952
0.00903883
0.0126503
-0.0029153
0.0119541
-0.00847171
0.00555642
-0.0080428
-0.000428913
-0.0080428
0.199928
0.00165424
0.199176
0.00268983
0.197965
0.00349904
0.196332
0.00431677
0.194272
0.00514123
0.191781
0.00596679
0.188855
0.00680547
0.185478
0.00767075
0.181633
0.00857295
0.177298
0.00952038
0.172446
0.0105203
0.167047
0.011579
0.161071
0.0127012
0.154482
0.0138897
0.147248
0.0151439
0.139335
0.0164589
0.130717
0.0178231
0.121377
0.0192166
0.111313
0.0206082
0.100543
0.0219527
0.0891193
0.0231885
0.0771319
0.0242355
0.064726
0.0249945
0.0521185
0.0253477
0.039658
0.0251557
0.0281075
0.0242007
0.0185967
0.0214649
0.00879861
0.0153545
0.00118418
0.00718552
-0.00685863
0.199781
0.00187368
0.199087
0.00338368
0.197946
0.00463998
0.196409
0.00585339
0.194483
0.00706737
0.192164
0.00828583
0.189447
0.00952288
0.186321
0.0107962
0.182773
0.0121208
0.178785
0.0135092
0.174333
0.0149723
0.169392
0.0165198
0.163933
0.0181596
0.157926
0.0198967
0.151338
0.0217319
0.144137
0.0236603
0.136292
0.0256682
0.127778
0.0277301
0.118582
0.0298047
0.108704
0.0318303
0.0981727
0.0337201
0.0870506
0.0353576
0.075454
0.0365911
0.0635768
0.0372249
0.0517348
0.0369977
0.0403992
0.0355363
0.0297406
0.0321235
0.0191672
0.0259279
0.00959826
0.0167545
0.00273964
0.199703
0.00217062
0.199008
0.00407901
0.197887
0.00576053
0.196376
0.00736432
0.194488
0.00895549
0.192222
0.0105518
0.189574
0.0121706
0.186539
0.0138321
0.183104
0.0155552
0.179258
0.0173555
0.174983
0.0192472
0.17026
0.0212423
0.165069
0.0233511
0.159385
0.0255806
0.153183
0.0279333
0.146439
0.0304052
0.139125
0.0329822
0.131218
0.0356371
0.122699
0.0383235
0.113558
0.0409708
0.103802
0.0434767
0.0934593
0.0457
0.0825982
0.0474522
0.0713354
0.0484877
0.0598433
0.0484898
0.048319
0.0470607
0.0368126
0.0436298
0.025189
0.0375515
0.0133361
0.0286073
0.0160758
0.199667
0.00250322
0.198964
0.00478229
0.197863
0.00686187
0.196381
0.00884602
0.194532
0.0108043
0.192318
0.0127665
0.189734
0.0147544
0.186775
0.0167907
0.183434
0.0188968
0.179698
0.0210912
0.175555
0.02339
0.17099
0.0258073
0.165987
0.0283547
0.160527
0.0310406
0.154591
0.0338686
0.148161
0.0368354
0.141216
0.0399277
0.133734
0.0431182
0.125698
0.04636
0.117089
0.0495798
0.107896
0.0526699
0.098117
0.0554787
0.0877672
0.057802
0.0768813
0.0593736
0.0655112
0.0598599
0.0537102
0.0588617
0.0414558
0.0558843
0.028589
0.0504183
0.014853
0.0423433
0.0309288
0.199653
0.00285044
0.198949
0.00548637
0.197871
0.00793984
0.196427
0.0102902
0.194627
0.0126043
0.192473
0.01492
0.189963
0.017264
0.187093
0.0196615
0.183853
0.0221361
0.180236
0.0247084
0.17623
0.0273964
0.171821
0.0302158
0.166996
0.0331793
0.161741
0.0362963
0.156038
0.0395713
0.149872
0.0430017
0.143224
0.0465756
0.136075
0.0502672
0.128403
0.0540319
0.120184
0.0577991
0.11139
0.0614639
0.101991
0.0648772
0.0919573
0.067836
0.0812566
0.0700743
0.0698567
0.0712597
0.0577192
0.0709992
0.0447626
0.0688409
0.0308505
0.0643303
0.0158739
0.05732
0.0468027
0.19965
0.0032004
0.198954
0.00618238
0.197904
0.0089895
0.196505
0.01169
0.194762
0.0143466
0.19268
0.017002
0.190257
0.0196876
0.187487
0.0224311
0.184365
0.0252581
0.180882
0.0281913
0.177028
0.0312503
0.172792
0.0344523
0.16816
0.0378113
0.163118
0.0413377
0.157652
0.0450373
0.151745
0.048909
0.145378
0.0529428
0.138529
0.0571164
0.131171
0.0613898
0.123271
0.0656995
0.114784
0.0699502
0.105657
0.0740047
0.0958193
0.0776735
0.085189
0.0807047
0.0736711
0.0827776
0.0611641
0.0835061
0.0475575
0.0824475
0.0327603
0.0791275
0.0167838
0.0732965
0.0635864
0.199655
0.00354577
0.198974
0.00686253
0.197959
0.0100053
0.19661
0.0130387
0.194934
0.0160227
0.192933
0.0190026
0.190607
0.0220138
0.187952
0.0250864
0.184962
0.0282481
0.18163
0.0315233
0.177946
0.0349336
0.173901
0.0384976
0.169482
0.0422307
0.164675
0.046145
0.159464
0.0502479
0.153832
0.054541
0.147757
0.0590177
0.141213
0.0636607
0.134165
0.0684376
0.126568
0.0732958
0.118364
0.0781548
0.109472
0.082897
0.0997892
0.0873558
0.0891904
0.0913035
0.0775284
0.0944396
0.0646506
0.0963839
0.0504203
0.0966778
0.0347703
0.0947775
0.017791
0.0902758
0.0813775
0.199664
0.00388161
0.199006
0.00752037
0.19803
0.0109816
0.196739
0.0143302
0.195136
0.0176248
0.193227
0.0209125
0.191009
0.0242317
0.18848
0.027615
0.185636
0.0310921
0.18247
0.034689
0.178975
0.0384291
0.17514
0.0423324
0.170954
0.0464165
0.166404
0.0506952
0.161473
0.0551788
0.156142
0.0598721
0.150386
0.0647736
0.144174
0.0698732
0.137463
0.0751486
0.130197
0.0805617
0.1223
0.0860519
0.113669
0.0915275
0.104171
0.0968536
0.0936374
0.101837
0.0818686
0.106208
0.0686534
0.109599
0.0538057
0.111525
0.0372395
0.111344
0.0190851
0.10843
0.100463
0.199677
0.00420442
0.199047
0.00815066
0.198116
0.011913
0.196887
0.0155586
0.195366
0.0191458
0.193556
0.0227232
0.191456
0.0263316
0.189065
0.0300059
0.186379
0.0337774
0.183395
0.0376739
0.180103
0.0417203
0.176497
0.0459385
0.172566
0.050348
0.168296
0.0549652
0.163671
0.0598034
0.158671
0.0648721
0.153269
0.0701759
0.147428
0.0757136
0.141101
0.0814757
0.134221
0.0874418
0.126698
0.0935755
0.118408
0.0998176
0.109187
0.106074
0.0988235
0.112201
0.0870573
0.117975
0.073595
0.123061
0.0581536
0.126967
0.0405561
0.128941
0.0209038
0.128083
0.121366
0.199693
0.00451151
0.199094
0.00874909
0.198213
0.0127946
0.197053
0.0167184
0.19562
0.0205792
0.193916
0.0244271
0.191943
0.0283047
0.1897
0.0322489
0.187184
0.0362925
0.184393
0.0404649
0.181321
0.0447925
0.177961
0.049299
0.174303
0.0540059
0.170336
0.0589324
0.166044
0.0640953
0.161407
0.0695092
0.156397
0.0751859
0.150976
0.0811342
0.145093
0.0873591
0.138674
0.0938602
0.13162
0.100629
0.123792
0.107646
0.114999
0.114867
0.104987
0.122213
0.0934249
0.129537
0.0799048
0.136581
0.063975
0.142897
0.045241
0.147675
0.0236155
0.149708
0.144982
0.199711
0.00480085
0.199148
0.00931216
0.19832
0.0136223
0.197234
0.0178047
0.195893
0.0219195
0.194303
0.0260176
0.192464
0.0301433
0.190378
0.0343351
0.188043
0.0386273
0.185457
0.0430505
0.182617
0.0476326
0.179518
0.0523988
0.176151
0.0573726
0.172507
0.0625759
0.168574
0.0680292
0.164331
0.0737522
0.159752
0.0797641
0.154802
0.0860842
0.149429
0.0927323
0.14356
0.0997293
0.137092
0.107097
0.129881
0.114858
0.121719
0.123028
0.11232
0.131612
0.10128
0.140577
0.0880543
0.149808
0.0719331
0.159018
0.0520958
0.167512
0.0278919
0.173912
0.172874
0.19973
0.00507082
0.199205
0.009837
0.198435
0.0143924
0.197426
0.0188135
0.196184
0.0231616
0.194713
0.0274889
0.193015
0.0318408
0.191093
0.0362572
0.188947
0.0407733
0.186577
0.0454211
0.18398
0.0502293
0.181154
0.0552247
0.178094
0.0604326
0.174793
0.0658771
0.17124
0.0715821
0.16742
0.0775721
0.163311
0.0838731
0.158881
0.0905139
0.154085
0.0975285
0.148857
0.104958
0.143101
0.112852
0.136682
0.121277
0.129396
0.130313
0.120948
0.14006
0.110892
0.150633
0.098555
0.162144
0.0829156
0.174657
0.0624507
0.187977
0.0351359
0.201227
0.20801
0.199751
0.00532015
0.199266
0.0103213
0.198557
0.0151019
0.197629
0.0197411
0.196489
0.0243016
0.195142
0.0288364
0.193591
0.0333919
0.191839
0.0380088
0.189889
0.0427235
0.187741
0.0475685
0.185397
0.0525735
0.182856
0.0577662
0.180115
0.0631733
0.177172
0.0688207
0.174019
0.0747349
0.170647
0.0809442
0.16704
0.08748
0.163175
0.0943792
0.159016
0.101687
0.154514
0.10946
0.149594
0.117773
0.144144
0.126728
0.137996
0.136461
0.130892
0.147164
0.122417
0.159108
0.111876
0.172686
0.0980378
0.188495
0.0785615
0.207454
0.0486857
0.231103
0.256695
0.199772
0.00554788
0.19933
0.0107633
0.198684
0.0157485
0.19784
0.0205848
0.196805
0.0253362
0.195586
0.0300563
0.194185
0.0347921
0.192609
0.0395853
0.19086
0.0444725
0.188942
0.0494867
0.186857
0.0546582
0.184608
0.0600152
0.182196
0.0655851
0.179622
0.0713948
0.176884
0.0774727
0.173979
0.0838493
0.170899
0.0905595
0.167634
0.097645
0.164162
0.105158
0.160457
0.113165
0.156473
0.121757
0.152145
0.131055
0.147374
0.141233
0.142
0.152538
0.135762
0.165347
0.128188
0.180259
0.11834
0.198344
0.103963
0.22183
0.0777391
0.257327
0.334434
0.00455779
-0.00455779
0.00882931
-0.00427151
0.0124238
-0.00359453
0.0153852
-0.0029614
0.0178268
-0.00244157
0.0198536
-0.00202679
0.0215548
-0.00170118
0.023005
-0.00145024
0.0242641
-0.0012591
0.0253766
-0.00111253
0.0263725
-0.000995853
0.0272685
-0.00089604
0.028072
-0.000803498
0.0287859
-0.000713907
0.0294129
-0.000626958
0.0299521
-0.000539248
0.0303876
-0.000435497
0.0306808
-0.000293146
0.030792
-0.000111227
0.0307117
8.02856e-05
0.0304916
0.000220163
0.030217
0.000274525
0.0299308
0.000286222
0.0296673
0.000263569
0.0294739
0.000193393
0.0294058
6.80822e-05
0.0295224
-0.000116657
0.0298422
-0.000319729
0.0303315
-0.000489329
-0.000537714
0.00397654
-0.00853434
0.00782686
-0.00812182
0.0111339
-0.00690155
0.0139202
-0.00574778
0.0162847
-0.00480604
0.0183165
-0.00405859
0.0200889
-0.00347358
0.0216616
-0.0030229
0.0230818
-0.00267935
0.0243854
-0.00241608
0.0255967
-0.00220721
0.0267298
-0.00202912
0.0277901
-0.00186378
0.0287795
-0.00170335
0.029703
-0.00155043
0.03057
-0.00140621
0.0313841
-0.00124957
0.0321266
-0.00103568
0.0327529
-0.000737541
0.0332334
-0.0004002
0.0335981
-0.000144557
0.0339094
-3.67743e-05
0.0342018
-6.17666e-06
0.0344885
-2.31586e-05
0.034782
-0.00010003
0.0350914
-0.000241318
0.0354025
-0.000427773
0.0357261
-0.000643393
0.036092
-0.000855236
-0.000891872
0.00317793
-0.0117123
0.00618234
-0.0111262
0.00872316
-0.00944237
0.0108571
-0.00788173
0.0126682
-0.00661711
0.0142244
-0.0056148
0.0155816
-0.00483081
0.0167845
-0.00422575
0.0178682
-0.00376305
0.0188599
-0.00340782
0.0197788
-0.00312606
0.020635
-0.00288533
0.0214302
-0.00265904
0.0221616
-0.00243478
0.0228308
-0.00221963
0.0234522
-0.00202753
0.0240429
-0.00184033
0.0245983
-0.00159109
0.0250771
-0.0012163
0.0254379
-0.000761043
0.0257111
-0.000417697
0.0259399
-0.000265617
0.0261252
-0.000191429
0.0262509
-0.000148928
0.0263026
-0.000151653
0.026265
-0.000203745
0.0261239
-0.000286691
0.0258957
-0.000415195
0.0256232
-0.000582758
-0.000845869
0.00232572
-0.014038
0.00434072
-0.0131412
0.00595258
-0.0110542
0.00728079
-0.00920994
0.0083871
-0.00772342
0.00931504
-0.00654275
0.0101012
-0.00561696
0.0107741
-0.00489868
0.0113567
-0.00434566
0.0118677
-0.00391874
0.0123213
-0.00357975
0.012727
-0.00329099
0.0130856
-0.00301762
0.0133884
-0.00273763
0.0136244
-0.00245555
0.0138
-0.00220316
0.0139482
-0.00198859
0.0141073
-0.00175019
0.014243
-0.001352
0.0141515
-0.000669478
0.0136424
9.13941e-05
0.0128001
0.000576689
0.0118742
0.000734407
0.0110122
0.000713077
0.0102943
0.000566307
0.00977293
0.000317612
0.00941635
6.98878e-05
0.00922613
-0.000224971
0.00922167
-0.000578305
-0.00104083
0.00135694
-0.0153949
0.00227238
-0.0140567
0.00286776
-0.0116496
0.00328977
-0.00963194
0.00357603
-0.00800969
0.00374996
-0.00671667
0.00383116
-0.00569816
0.00383576
-0.00490328
0.00377718
-0.00428708
0.00366691
-0.00380846
0.0035158
-0.00342864
0.00333416
-0.00310935
0.00312954
-0.002813
0.00289997
-0.00250806
0.0026233
-0.00217888
0.00224531
-0.00182517
0.00171745
-0.00146074
0.00103641
-0.00106915
0.000277129
-0.000592717
-0.000386106
-6.24339e-06
-0.000819981
0.000525269
-0.00113322
0.000889924
-0.00144747
0.00104866
-0.00175318
0.00101879
-0.00200656
0.000819687
-0.00217576
0.000486806
-0.00221392
0.00010805
-0.00218657
-0.000252323
-0.00210814
-0.000656736
-0.00110169
0.000227754
-0.0156227
-1.64994e-05
-0.0138124
-0.000490205
-0.0111759
-0.00103292
-0.00908923
-0.00165708
-0.00738552
-0.00233384
-0.00603991
-0.00304894
-0.00498307
-0.00379006
-0.00416216
-0.00454881
-0.00352833
-0.00531865
-0.00303862
-0.00609145
-0.00265584
-0.00685544
-0.00234537
-0.00759475
-0.00207368
-0.00829199
-0.00181082
-0.00893414
-0.00153672
-0.0095146
-0.00124471
-0.0100406
-0.000934774
-0.0105144
-0.000595298
-0.0109074
-0.00019977
-0.011146
0.000232422
-0.0112664
0.000645642
-0.0113393
0.000962863
-0.0114002
0.00110957
-0.0114608
0.0010793
-0.0115263
0.00088525
-0.0116052
0.000565658
-0.0116893
0.000192132
-0.0117393
-0.000202319
-0.0117609
-0.000635056
-0.00108624
-0.000962028
-0.0146607
-0.00242734
-0.0123471
-0.00397523
-0.00962801
-0.00555717
-0.00750728
-0.00710474
-0.00583796
-0.00859248
-0.00455216
-0.0100009
-0.00357461
-0.0113146
-0.00284848
-0.0125232
-0.00231971
-0.0136233
-0.00193861
-0.0146167
-0.00166239
-0.0155081
-0.00145399
-0.0163015
-0.00128031
-0.0169993
-0.00111299
-0.0176041
-0.000931955
-0.0181212
-0.000727613
-0.0185599
-0.000495993
-0.0189267
-0.000228553
-0.0191983
7.1855e-05
-0.0193561
0.000390199
-0.019421
0.000710517
-0.0194265
0.000968424
-0.019415
0.00109799
-0.0194112
0.00107559
-0.0194312
0.00090524
-0.0194858
0.000620206
-0.0195659
0.000272255
-0.0196551
-0.000113082
-0.019738
-0.00055224
-0.000976456
-0.00224802
-0.0124126
-0.00488604
-0.0097091
-0.00751937
-0.00699468
-0.0100226
-0.00500409
-0.0123145
-0.00354606
-0.0143644
-0.00250221
-0.0161724
-0.00176659
-0.017751
-0.0012699
-0.019122
-0.000948729
-0.0203104
-0.000750245
-0.0213407
-0.000632003
-0.0222345
-0.000560218
-0.0230086
-0.000506259
-0.0236761
-0.00044549
-0.0242481
-0.0003599
-0.024735
-0.000240729
-0.0251438
-8.71965e-05
-0.0254669
9.45299e-05
-0.025697
0.000302005
-0.0258434
0.000536532
-0.0259118
0.000778936
-0.0259227
0.000979334
-0.0259111
0.00108645
-0.0259055
0.00106997
-0.0259255
0.000925253
-0.025982
0.000676637
-0.0260727
0.000362997
-0.0261858
-4.15943e-08
-0.0263199
-0.000418087
-0.000786537
-0.00363106
-0.00878157
-0.00744541
-0.00589474
-0.0110761
-0.00336396
-0.0143447
-0.00173552
-0.0171915
-0.000699218
-0.0196192
-7.45015e-05
-0.0216378
0.00025193
-0.0232966
0.000388973
-0.0246655
0.000420169
-0.0258091
0.000393353
-0.0267787
0.000337563
-0.0276109
0.000271954
-0.0283298
0.000212691
-0.0289514
0.00017611
-0.0294867
0.000175372
-0.0299425
0.000215081
-0.0303209
0.000291165
-0.0306248
0.000398473
-0.030858
0.000535181
-0.0310189
0.000697403
-0.0311102
0.000870305
-0.0311511
0.00102025
-0.0311704
0.0011057
-0.0311941
0.00109369
-0.0312412
0.000972333
-0.0313217
0.000757146
-0.0314366
0.000477898
-0.0315807
0.000144107
-0.0317593
-0.000239492
-0.000559697
-0.00526482
-0.00351675
-0.0105983
-0.000561217
-0.0150726
0.0011103
-0.0187283
0.00192017
-0.0216613
0.00223382
-0.0240079
0.00227203
-0.025914
0.00215807
-0.0274944
0.00196936
-0.028816
0.00174176
-0.0299302
0.00150753
-0.0308791
0.00128647
-0.0316932
0.00108611
-0.032393
0.000912446
-0.0329944
0.000777496
-0.0335131
0.00069414
-0.0339631
0.000665077
-0.034352
0.000680063
-0.0346788
0.000725184
-0.0349371
0.000793555
-0.0351247
0.000884994
-0.0352492
0.000994823
-0.0353308
0.00110184
-0.0353954
0.0011703
-0.0354657
0.00116399
-0.0355569
0.00106353
-0.0356761
0.000876338
-0.0358234
0.000625216
-0.0359994
0.000320095
-0.0362143
-2.46221e-05
-0.000302604
-0.00694362
0.00342687
-0.0129402
0.00543536
-0.01764
0.00581007
-0.0214082
0.00568842
-0.0244493
0.00527491
-0.026905
0.00472768
-0.0288988
0.0041519
-0.0305259
0.00359646
-0.0318657
0.00308158
-0.0329843
0.00262614
-0.0339352
0.00223736
-0.0347536
0.00190455
-0.0354588
0.00161761
-0.0360656
0.00138429
-0.0365926
0.00122111
-0.0370579
0.00113044
-0.0374704
0.00109255
-0.0378259
0.00108067
-0.0381145
0.00108219
-0.0383332
0.00110371
-0.0384934
0.00115493
-0.0386181
0.00122661
-0.038733
0.00128521
-0.038857
0.00128794
-0.0389994
0.00120597
-0.0391625
0.0010394
-0.0393466
0.000809334
-0.039559
0.000532449
-0.0398098
0.000226179
-1.57263e-05
-0.00788264
0.0113095
-0.0145404
0.0120931
-0.0198116
0.0110813
-0.0238773
0.00975408
-0.0270226
0.00842026
-0.0294802
0.00718523
-0.0314328
0.00610447
-0.0330102
0.00517394
-0.0342984
0.00436973
-0.0353686
0.00369633
-0.0362846
0.00315338
-0.0370847
0.00270465
-0.0377803
0.0023132
-0.0383793
0.00198331
-0.038903
0.00174483
-0.0393773
0.00160473
-0.0398135
0.00152871
-0.0402018
0.00146898
-0.0405241
0.0014045
-0.040774
0.00135359
-0.0409669
0.00134787
-0.0411326
0.00139232
-0.041299
0.00145152
-0.0414813
0.00147024
-0.0416819
0.0014066
-0.0418964
0.00125389
-0.0421236
0.00103651
-0.0423737
0.000782603
-0.0426624
0.000514835
0.000309353
-0.00930954
0.0206191
-0.0170309
0.0198144
-0.0226076
0.016658
-0.0266184
0.0137649
-0.0296063
0.0114081
-0.0318668
0.00944571
-0.0336295
0.00786725
-0.0350569
0.00660129
-0.0362216
0.00553446
-0.0371857
0.00466042
-0.0380276
0.00399528
-0.0387906
0.00346767
-0.0394669
0.0029895
-0.0400461
0.00256244
-0.0405528
0.00225159
-0.0410285
0.00208037
-0.0414901
0.00199038
-0.0419181
0.00189697
-0.0422786
0.00176497
-0.0425576
0.0016326
-0.0427771
0.0015674
-0.042979
0.00159423
-0.0431969
0.0016694
-0.0434421
0.0017154
-0.0437069
0.00167147
-0.0439773
0.00152426
-0.044248
0.00130723
-0.0445331
0.00106766
-0.044855
0.000836753
0.000672361
-0.0119223
0.0325414
-0.0210292
0.0289213
-0.0264441
0.0220729
-0.0298123
0.0171331
-0.0323083
0.0139041
-0.0341376
0.0112751
-0.035532
0.00926157
-0.0367117
0.00778107
-0.037697
0.00651974
-0.0384983
0.00546165
-0.0392262
0.00472318
-0.0399448
0.00418632
-0.0406051
0.00364982
-0.0411548
0.00311216
-0.0416255
0.00272228
-0.0420918
0.00254665
-0.0425839
0.0024825
-0.0430641
0.00237713
-0.0434699
0.0021708
-0.043773
0.00193572
-0.0440066
0.00180102
-0.0442348
0.00182237
-0.0445014
0.00193601
-0.0448114
0.00202538
-0.0451424
0.00200253
-0.0454661
0.00184795
-0.0457707
0.00161178
-0.0460757
0.00137265
-0.046416
0.00117712
0.00105997
-0.0165986
0.04914
-0.0274594
0.0397822
-0.0319499
0.0265634
-0.033478
0.0186611
-0.0351232
0.0155493
-0.0362803
0.0124323
-0.0370823
0.0100635
-0.0379559
0.00865476
-0.038776
0.00733976
-0.0393572
0.00604293
-0.0399118
0.00527777
-0.0405908
0.00486532
-0.0412589
0.00431786
-0.0417726
0.00362592
-0.0421746
0.00312424
-0.0426126
0.00298466
-0.0431453
0.00301516
-0.0436993
0.00293111
-0.0441614
0.00263294
-0.0444772
0.00225153
-0.0447002
0.00202403
-0.0449356
0.00205772
-0.045245
0.00224544
-0.045622
0.00240237
-0.0460225
0.00240304
-0.0463986
0.00222403
-0.0467289
0.00194208
-0.0470408
0.00168458
-0.0473883
0.00152462
0.00145991
0.207447
0.00576069
0.207034
0.011176
0.206431
0.0163512
0.205647
0.0213694
0.204687
0.0262956
0.20356
0.0311839
0.20227
0.0360819
0.200824
0.0410313
0.199227
0.0460691
0.197486
0.0512284
0.195605
0.0565394
0.19359
0.0620304
0.191446
0.0677289
0.189179
0.0736621
0.186793
0.0798586
0.184292
0.0863496
0.181681
0.0931712
0.178959
0.100366
0.176129
0.107988
0.173187
0.116107
0.170131
0.124813
0.166955
0.134231
0.163655
0.144532
0.160233
0.15596
0.156713
0.168867
0.153189
0.183783
0.150031
0.201502
0.148923
0.222938
0.160686
0.245564
0.258653
0.236468
0.21249
0.00595316
0.212117
0.0115489
0.211574
0.0168949
0.210868
0.0220755
0.210007
0.0271563
0.208999
0.0321917
0.207852
0.0372292
0.206572
0.0423108
0.205168
0.0474731
0.203648
0.0527488
0.20202
0.0581678
0.200292
0.0637577
0.198476
0.0695454
0.196581
0.0755571
0.194619
0.0818207
0.192602
0.0883659
0.190547
0.0952269
0.188469
0.102444
0.18639
0.110067
0.18434
0.118157
0.182358
0.126795
0.180505
0.136084
0.178881
0.146156
0.177658
0.157183
0.177159
0.169367
0.178039
0.182903
0.181717
0.197824
0.190803
0.213852
0.206308
0.230059
0.245512
0.219449
0.217658
0.00612315
0.217328
0.011878
0.21685
0.0173737
0.21623
0.0226954
0.215477
0.0279089
0.2146
0.0330686
0.213608
0.0382218
0.212509
0.0434098
0.211313
0.0486688
0.210031
0.0540308
0.208674
0.0595245
0.207256
0.0651763
0.205789
0.0710116
0.204292
0.0770548
0.202781
0.0833311
0.20128
0.0898673
0.199814
0.096693
0.198416
0.103842
0.197127
0.111355
0.196005
0.11928
0.195126
0.127674
0.194605
0.136605
0.194612
0.14615
0.19541
0.156385
0.197411
0.167366
0.201224
0.179089
0.20762
0.191428
0.217257
0.204215
0.229847
0.217469
0.228611
0.246748
0.222951
0.00626866
0.22267
0.0121594
0.222261
0.017782
0.221735
0.0232219
0.221099
0.0285447
0.220363
0.0338044
0.219537
0.0390477
0.218632
0.0443152
0.217659
0.0496419
0.216631
0.0550586
0.215563
0.0605925
0.214471
0.0662681
0.213374
0.0721084
0.212294
0.0781349
0.211256
0.0843693
0.21029
0.0908333
0.209433
0.0975501
0.208731
0.104545
0.208241
0.111844
0.208042
0.119479
0.208235
0.127481
0.20896
0.135879
0.210411
0.144698
0.212852
0.153944
0.216628
0.16359
0.222157
0.173559
0.229889
0.183696
0.240391
0.193713
0.254579
0.203282
0.210149
0.273041
0.228374
0.00638784
0.228144
0.0123895
0.227811
0.0181147
0.227385
0.0236484
0.226874
0.0290557
0.226288
0.0343899
0.225639
0.0396967
0.224939
0.0450154
0.224201
0.0503798
0.223441
0.0558188
0.222676
0.0613577
0.221925
0.0670185
0.221213
0.0728212
0.220564
0.0787836
0.220011
0.0849227
0.21959
0.0912542
0.219346
0.0977934
0.219336
0.104555
0.219628
0.111552
0.220311
0.118797
0.221497
0.126295
0.223331
0.134045
0.225998
0.142031
0.229729
0.150214
0.234802
0.158517
0.241546
0.166816
0.250338
0.174904
0.261622
0.182428
0.27587
0.189034
0.193636
0.292383
0.233929
0.006479
0.233754
0.0125652
0.233501
0.0183671
0.233181
0.023969
0.232802
0.0294348
0.232375
0.0348168
0.231912
0.0401595
0.231427
0.0455005
0.230935
0.0508719
0.230453
0.0563006
0.230001
0.0618093
0.229603
0.0674173
0.229283
0.0731409
0.229073
0.0789938
0.229008
0.0849876
0.229131
0.0911315
0.229492
0.0974325
0.230152
0.103895
0.231186
0.110518
0.232685
0.117297
0.234761
0.124219
0.23755
0.131256
0.241215
0.138367
0.245947
0.145481
0.251968
0.152497
0.259518
0.159265
0.268839
0.165583
0.280107
0.17116
0.293417
0.175724
0.178764
0.308289
0.23962
0.00654065
0.239501
0.0126834
0.239333
0.0185351
0.239124
0.0241783
0.238883
0.0296758
0.238622
0.0350783
0.238353
0.0404285
0.23809
0.0457626
0.237852
0.0511102
0.237657
0.0564961
0.237526
0.0619403
0.237484
0.0674587
0.237561
0.073064
0.237789
0.0787653
0.238208
0.0845688
0.238863
0.0904771
0.239806
0.0964892
0.241101
0.1026
0.242822
0.108797
0.245056
0.115063
0.247907
0.121368
0.251494
0.12767
0.255952
0.133909
0.26143
0.140003
0.268084
0.145843
0.276063
0.151286
0.285487
0.15616
0.296399
0.160247
0.308789
0.163335
0.165156
0.322397
0.245448
0.00657152
0.24539
0.0127418
0.24531
0.0186152
0.245216
0.0242722
0.245118
0.0297738
0.245027
0.0351688
0.244958
0.0404982
0.244924
0.045796
0.244945
0.0510896
0.24504
0.0564011
0.245233
0.0617477
0.245549
0.067142
0.24602
0.0725928
0.246681
0.0781049
0.247571
0.0836791
0.248736
0.0893121
0.250229
0.0949959
0.252112
0.100717
0.254454
0.106455
0.257334
0.112182
0.260843
0.117859
0.265077
0.123435
0.270143
0.128844
0.276144
0.134001
0.283182
0.138805
0.291337
0.143132
0.300655
0.146842
0.311125
0.149778
0.322678
0.151781
0.152721
0.335114
0.251418
0.0065706
0.251421
0.0127384
0.251432
0.0186047
0.251457
0.0242472
0.251506
0.0297249
0.25159
0.0350844
0.251724
0.0403647
0.251922
0.0455974
0.252204
0.0508075
0.252591
0.0560145
0.253106
0.0612325
0.253777
0.0664711
0.254635
0.0717352
0.255714
0.0770255
0.257055
0.0823383
0.258702
0.0876651
0.260705
0.0929923
0.263122
0.0983005
0.266014
0.103563
0.269449
0.108746
0.273502
0.113807
0.278247
0.11869
0.283761
0.12333
0.290111
0.127651
0.297355
0.131561
0.305526
0.134961
0.314625
0.137742
0.324607
0.139795
0.335373
0.141015
0.141342
0.346751
0.257532
0.00653714
0.257599
0.0126719
0.257702
0.0185017
0.257848
0.0241012
0.258046
0.0295267
0.258308
0.034823
0.258646
0.0400263
0.259077
0.0451659
0.259621
0.0502644
0.260297
0.0553385
0.261129
0.0603997
0.262146
0.0654542
0.263378
0.0705038
0.264857
0.0755457
0.266624
0.0805721
0.268718
0.0855708
0.271186
0.0905239
0.274079
0.0954081
0.277448
0.100194
0.281351
0.104844
0.285843
0.109315
0.290979
0.113553
0.296809
0.1175
0.303373
0.121087
0.310695
0.124239
0.318777
0.126879
0.327591
0.128928
0.337074
0.130313
0.34712
0.130968
0.130874
0.357589
0.263794
0.00647067
0.263925
0.0125414
0.264121
0.0183049
0.26439
0.0238328
0.264738
0.0291784
0.265177
0.0343839
0.26572
0.0394831
0.266383
0.0445029
0.267184
0.0494635
0.268144
0.0543788
0.269286
0.0592577
0.270636
0.0641038
0.272224
0.0689159
0.274081
0.0736884
0.276243
0.0784106
0.278746
0.0830675
0.281631
0.0876386
0.284941
0.0920988
0.288717
0.0964171
0.293004
0.100557
0.297842
0.104477
0.303268
0.108128
0.30931
0.111458
0.315985
0.114412
0.323294
0.11693
0.33122
0.118954
0.339718
0.12043
0.348719
0.121312
0.358125
0.121563
0.121182
0.367816
0.270207
0.006371
0.270402
0.0123464
0.270692
0.0180142
0.271083
0.023442
0.271581
0.0286801
0.272197
0.0337682
0.272943
0.0387376
0.273833
0.0436124
0.274886
0.0484106
0.276121
0.0531438
0.27756
0.0578184
0.279228
0.0624356
0.281152
0.0669922
0.28336
0.0714801
0.285884
0.0758869
0.288756
0.0801958
0.292009
0.0843855
0.295677
0.0884303
0.299794
0.0923
0.304391
0.0959605
0.309494
0.0993734
0.315124
0.102497
0.321294
0.105289
0.328004
0.107702
0.335239
0.109694
0.34297
0.111223
0.351145
0.112254
0.359697
0.11276
0.368536
0.112723
0.112156
0.377562
0.276774
0.00623824
0.277033
0.0120874
0.277417
0.0176301
0.277929
0.0229297
0.278575
0.0280338
0.279365
0.0329788
0.280309
0.0377937
0.281421
0.0425004
0.282717
0.0471141
0.284216
0.0516446
0.285938
0.0560962
0.287906
0.0604683
0.290142
0.0647559
0.292673
0.0689495
0.295524
0.0730358
0.298722
0.0769972
0.302295
0.0808127
0.306268
0.0844575
0.310665
0.0879036
0.315505
0.0911202
0.320804
0.0940742
0.326571
0.0967309
0.332804
0.0990553
0.339493
0.101013
0.346614
0.102573
0.35413
0.103707
0.36199
0.104394
0.370128
0.104622
0.378467
0.104384
0.1037
0.386924
0.283498
0.00607277
0.28382
0.011765
0.284297
0.0171538
0.284928
0.0222982
0.28572
0.0272423
0.286679
0.03202
0.287815
0.0366576
0.289141
0.0411745
0.290671
0.0455843
0.292421
0.0498945
0.294409
0.0541079
0.296655
0.0582225
0.299179
0.0622321
0.302002
0.0661266
0.305145
0.0698923
0.30863
0.0735121
0.312477
0.076966
0.316703
0.0802311
0.321324
0.0832825
0.326351
0.0860934
0.331789
0.0886363
0.337637
0.0908832
0.343885
0.0928073
0.350514
0.0943837
0.357496
0.0955909
0.364791
0.096412
0.37235
0.0968361
0.380112
0.0968595
0.388011
0.0964855
0.0957346
0.395976
0.290384
0.00587522
0.290768
0.0113806
0.291335
0.0165874
0.292083
0.0215502
0.293015
0.0263098
0.294138
0.0308972
0.295459
0.0353364
0.296989
0.0396445
0.29874
0.0438331
0.300727
0.0479084
0.302963
0.0518716
0.305465
0.0557199
0.308251
0.0594466
0.311336
0.0630415
0.314737
0.0664911
0.31847
0.0697795
0.322548
0.0728882
0.326982
0.0757972
0.331779
0.0784847
0.336944
0.0809287
0.342474
0.0831067
0.34836
0.0849973
0.354586
0.0865808
0.36113
0.08784
0.367959
0.0887616
0.375035
0.0893364
0.38231
0.089561
0.389732
0.0894378
0.397242
0.088975
0.0881938
0.404783
0.297435
0.00564646
0.297879
0.0109359
0.298533
0.0159335
0.299394
0.0206895
0.300462
0.0252414
0.301742
0.0296173
0.30324
0.0338387
0.304963
0.037921
0.306922
0.0418739
0.309129
0.0457022
0.311594
0.0494065
0.31433
0.0529832
0.317351
0.0564256
0.320669
0.0597237
0.324295
0.0628651
0.328239
0.0658353
0.332509
0.0686181
0.33711
0.0711962
0.342044
0.0735515
0.347306
0.0756662
0.35289
0.077523
0.358781
0.0791061
0.36496
0.0804017
0.371401
0.0813989
0.378072
0.0820906
0.384935
0.0824734
0.391947
0.0825488
0.399062
0.0823233
0.406229
0.0818075
0.0810223
0.413401
0.304654
0.00538755
0.305157
0.010433
0.305895
0.0151955
0.306864
0.0197208
0.308062
0.0240431
0.309491
0.0281879
0.311156
0.0321742
0.313061
0.0360157
0.315215
0.0397206
0.317624
0.0432927
0.320299
0.046732
0.323247
0.0500347
0.326478
0.0531942
0.330001
0.0562014
0.333821
0.0590452
0.337943
0.0617127
0.342371
0.0641902
0.347104
0.0664633
0.352138
0.0685175
0.357465
0.0703388
0.363074
0.0719146
0.368946
0.0732338
0.37506
0.0742875
0.381389
0.0750697
0.387902
0.0755778
0.394563
0.0758126
0.401333
0.0757789
0.408171
0.0754851
0.415035
0.0749434
0.0741734
0.421884
0.312046
0.0050997
0.312605
0.00987421
0.313424
0.0143768
0.314495
0.018649
0.315817
0.0227214
0.317388
0.0266171
0.319209
0.0303529
0.321284
0.0339407
0.323617
0.0373877
0.326213
0.0406967
0.329078
0.0438673
0.332216
0.0468959
0.335634
0.0497765
0.339335
0.0525008
0.343321
0.0550592
0.347592
0.0574409
0.352148
0.0596343
0.356984
0.0616281
0.36209
0.0634109
0.367457
0.0649724
0.373068
0.0663037
0.378904
0.0673976
0.384942
0.0682491
0.391156
0.0688561
0.397515
0.069219
0.403986
0.0693415
0.410534
0.0692302
0.417125
0.0688948
0.42372
0.0683478
0.0676071
0.430287
0.319615
0.00478424
0.320227
0.00926221
0.321122
0.0134816
0.322292
0.0174794
0.32373
0.0212833
0.325433
0.0249136
0.327401
0.0283853
0.329633
0.0317085
0.332132
0.0348894
0.334898
0.0379305
0.337934
0.0408309
0.341243
0.0435874
0.344825
0.0461947
0.34868
0.0486456
0.352807
0.050932
0.357203
0.0530451
0.361862
0.0549756
0.366775
0.0567147
0.371932
0.0582541
0.377318
0.0595863
0.382916
0.0607058
0.388705
0.0616083
0.394662
0.0622919
0.400761
0.0627571
0.406974
0.0630066
0.413269
0.0630456
0.419618
0.062882
0.425987
0.0625259
0.432345
0.0619892
0.0612883
0.438664
0.327365
0.00444251
0.328028
0.00859966
0.328995
0.0125137
0.330257
0.0162176
0.331805
0.0197358
0.333632
0.0230861
0.335736
0.0262815
0.338113
0.0293311
0.340763
0.0322398
0.343684
0.0350097
0.346875
0.03764
0.350335
0.0401278
0.354061
0.0424686
0.35805
0.0446565
0.362297
0.0466849
0.366795
0.0485466
0.371536
0.0502346
0.376509
0.0517423
0.381699
0.0530639
0.387091
0.0541946