/*--------------------------------*- C++ -*----------------------------------*\
  =========                 |
  \\      /  F ield         | OpenFOAM: The Open Source CFD Toolbox
   \\    /   O peration     | Website:  https://openfoam.org
    \\  /    A nd           | Version:  dev
     \\/     M anipulation  |
\*---------------------------------------------------------------------------*/
FoamFile
{
    version     2.0;
    format      ascii;
    class       volVectorField;
    location    "3.3";
    object      U;
}
// * * * * * * * * * * * * * * * * * * * * * * * * * * * * * * * * * * * * * //

dimensions      [0 1 -1 0 0 0 0];

internalField   nonuniform List<vector> 
2790
(
(9.94399 0 0.0205234)
(9.87572 0 0.0295881)
(9.7752 0 0.0359901)
(9.64943 0 0.0425569)
(9.50408 0 0.0493862)
(9.34006 0 0.0564291)
(9.15653 0 0.0638166)
(8.95261 0 0.0717122)
(8.72745 0 0.0802557)
(8.48007 0 0.0895737)
(8.20926 0 0.0997935)
(7.91364 0 0.111045)
(7.59168 0 0.12346)
(7.24178 0 0.137164)
(6.86233 0 0.152272)
(6.45181 0 0.168869)
(6.0089 0 0.186996)
(5.53272 0 0.206618)
(5.02301 0 0.227589)
(4.4805 0 0.24961)
(3.90722 0 0.272176)
(3.3069 0 0.294525)
(2.68537 0 0.315621)
(2.05071 0 0.33429)
(1.41189 0 0.350609)
(0.798117 0 0.372886)
(0.110825 0 0.325096)
(-0.469535 0 -0.114835)
(-0.453758 0 -0.297151)
(-0.231153 0 -0.423848)
(9.9985 0 0.0407037)
(9.98145 0 0.0623841)
(9.93574 0 0.0791419)
(9.86416 0 0.0966268)
(9.77096 0 0.115126)
(9.65714 0 0.13449)
(9.52204 0 0.154977)
(9.36484 0 0.176945)
(9.1847 0 0.200708)
(8.98066 0 0.22655)
(8.75151 0 0.254744)
(8.49588 0 0.285559)
(8.2122 0 0.319247)
(7.89882 0 0.35602)
(7.55405 0 0.396016)
(7.17621 0 0.439258)
(6.76381 0 0.485587)
(6.3157 0 0.534581)
(5.8313 0 0.585456)
(5.31094 0 0.636949)
(4.75623 0 0.687199)
(4.1705 0 0.733644)
(3.55939 0 0.772953)
(2.93165 0 0.801097)
(2.30005 0 0.813758)
(1.69305 0 0.807266)
(1.10725 0 0.747279)
(0.658955 0 0.547965)
(0.186528 0 0.224662)
(-0.00819526 0 -0.453703)
(9.99559 0 0.0432081)
(9.97556 0 0.0752738)
(9.9318 0 0.103349)
(9.86489 0 0.132374)
(9.77777 0 0.163063)
(9.67154 0 0.195402)
(9.54587 0 0.229745)
(9.40012 0 0.266605)
(9.23364 0 0.306471)
(9.04562 0 0.349807)
(8.83507 0 0.39707)
(8.6008 0 0.448718)
(8.34144 0 0.505186)
(8.0555 0 0.566855)
(7.74138 0 0.634)
(7.39746 0 0.706718)
(7.02213 0 0.784822)
(6.61399 0 0.867707)
(6.17199 0 0.954177)
(5.6957 0 1.04224)
(5.1857 0 1.12887)
(4.64405 0 1.20978)
(4.07489 0 1.27915)
(3.48548 0 1.32934)
(2.88695 0 1.3501)
(2.29956 0 1.32645)
(1.73193 0 1.22082)
(1.21632 0 0.973062)
(0.70119 0 0.570215)
(0.358065 0 -0.15647)
(9.99403 0 0.0495009)
(9.97181 0 0.0932094)
(9.92788 0 0.133576)
(9.86224 0 0.174214)
(9.77692 0 0.216438)
(9.67297 0 0.260666)
(9.5503 0 0.307434)
(9.40847 0 0.357418)
(9.24701 0 0.411292)
(9.06531 0 0.469705)
(8.86267 0 0.533299)
(8.63818 0 0.602717)
(8.39084 0 0.678582)
(8.11951 0 0.761461)
(7.823 0 0.851803)
(7.50002 0 0.949853)
(7.14926 0 1.05552)
(6.76948 0 1.16821)
(6.35954 0 1.28657)
(5.91866 0 1.40824)
(5.4466 0 1.52944)
(4.94409 0 1.64466)
(4.41327 0 1.74613)
(3.85837 0 1.82322)
(3.28593 0 1.86138)
(2.7065 0 1.84036)
(2.12574 0 1.72606)
(1.55433 0 1.47794)
(0.957995 0 1.08379)
(0.509442 0 0.502422)
(9.99331 0 0.0572158)
(9.96994 0 0.110963)
(9.92593 0 0.162109)
(9.86145 0 0.213354)
(9.77798 0 0.266363)
(9.67634 0 0.321921)
(9.55652 0 0.380708)
(9.4182 0 0.443493)
(9.26095 0 0.511058)
(9.08431 0 0.58417)
(8.88768 0 0.663583)
(8.67037 0 0.750055)
(8.43157 0 0.844321)
(8.17045 0 0.947065)
(7.88607 0 1.05885)
(7.57748 0 1.18004)
(7.24368 0 1.31065)
(6.88363 0 1.45014)
(6.49632 0 1.59718)
(6.08079 0 1.74928)
(5.63623 0 1.90237)
(5.16221 0 2.05028)
(4.65888 0 2.18415)
(4.12732 0 2.29173)
(3.56952 0 2.35658)
(2.989 0 2.35736)
(2.38693 0 2.26503)
(1.76647 0 2.04774)
(1.09004 0 1.69152)
(0.536675 0 1.15428)
(9.99302 0 0.0655414)
(9.96923 0 0.128707)
(9.92556 0 0.19012)
(9.86252 0 0.251852)
(9.78127 0 0.315587)
(9.68243 0 0.382327)
(9.56599 0 0.452882)
(9.43169 0 0.528107)
(9.27918 0 0.608883)
(9.10804 0 0.696084)
(8.91775 0 0.790574)
(8.70771 0 0.893214)
(8.47726 0 1.00484)
(8.22566 0 1.12623)
(7.95214 0 1.25806)
(7.65588 0 1.40077)
(7.33604 0 1.5545)
(6.99166 0 1.71881)
(6.62172 0 1.8925)
(6.22506 0 2.07316)
(5.80035 0 2.25679)
(5.34613 0 2.43715)
(4.86082 0 2.60516)
(4.34282 0 2.74821)
(3.79052 0 2.84956)
(3.2027 0 2.88824)
(2.57669 0 2.83831)
(1.91356 0 2.67173)
(1.17281 0 2.37415)
(0.549996 0 1.89457)
(9.99297 0 0.0740782)
(9.96926 0 0.14632)
(9.92637 0 0.217492)
(9.86508 0 0.289302)
(9.78641 0 0.363366)
(9.69083 0 0.440838)
(9.57833 0 0.52267)
(9.44869 0 0.609819)
(9.30162 0 0.70326)
(9.13675 0 0.803965)
(8.95361 0 0.912895)
(8.75167 0 1.031)
(8.53031 0 1.1592)
(8.28885 0 1.29837)
(8.02657 0 1.44926)
(7.74268 0 1.61243)
(7.43629 0 1.78813)
(7.10641 0 1.9761)
(6.75184 0 2.17534)
(6.37106 0 2.38374)
(5.96217 0 2.59767)
(5.52273 0 2.81132)
(5.04964 0 3.0161)
(4.53914 0 3.19994)
(3.98681 0 3.34669)
(3.38806 0 3.43602)
(2.73739 0 3.44341)
(2.03635 0 3.34164)
(1.24182 0 3.11377)
(0.563549 0 2.69336)
(9.99306 0 0.082592)
(9.96981 0 0.163613)
(9.92806 0 0.24406)
(9.86884 0 0.325492)
(9.79311 0 0.409459)
(9.70124 0 0.497219)
(9.59321 0 0.589851)
(9.46885 0 0.688406)
(9.32793 0 0.793946)
(9.17011 0 0.907531)
(8.99499 0 1.03021)
(8.80207 0 1.16302)
(8.59078 0 1.30699)
(8.36047 0 1.46306)
(8.11042 0 1.63211)
(7.83978 0 1.81482)
(7.5476 0 2.0116)
(7.23267 0 2.22244)
(6.89353 0 2.44665)
(6.52821 0 2.6826)
(6.13416 0 2.92726)
(5.70795 0 3.17568)
(5.2451 0 3.42029)
(4.73994 0 3.65016)
(4.18565 0 3.85023)
(3.57494 0 4.00094)
(2.89969 0 4.07802)
(2.16226 0 4.05256)
(1.31622 0 3.90193)
(0.583264 0 3.54042)
(9.99326 0 0.0909329)
(9.97072 0 0.180417)
(9.93045 0 0.269679)
(9.87361 0 0.360255)
(9.80116 0 0.453662)
(9.71342 0 0.551225)
(9.61035 0 0.654126)
(9.49185 0 0.763508)
(9.35772 0 0.880514)
(9.20769 0 1.00628)
(9.04141 0 1.14195)
(8.85843 0 1.28866)
(8.65822 0 1.4475)
(8.44017 0 1.61955)
(8.20353 0 1.80582)
(7.94742 0 2.00715)
(7.67076 0 2.22417)
(7.37216 0 2.45718)
(7.04981 0 2.70595)
(6.70131 0 2.96946)
(6.32342 0 3.24555)
(5.91175 0 3.53042)
(5.4605 0 3.81797)
(4.96219 0 4.09892)
(4.40762 0 4.35985)
(3.78662 0 4.58215)
(3.08778 0 4.7412)
(2.31289 0 4.80467)
(1.41077 0 4.74138)
(0.614369 0 4.44227)
(9.99352 0 0.0989974)
(9.9719 0 0.196589)
(9.9334 0 0.294209)
(9.87923 0 0.393433)
(9.81039 0 0.495774)
(9.72715 0 0.602607)
(9.6295 0 0.7152)
(9.51738 0 0.834777)
(9.39064 0 0.962556)
(9.24908 0 1.09975)
(9.0924 0 1.24759)
(8.92022 0 1.40728)
(8.73207 0 1.58004)
(8.52736 0 1.76707)
(8.30538 0 1.9695)
(8.06521 0 2.18841)
(7.80569 0 2.42471)
(7.52527 0 2.67906)
(7.22191 0 2.9518)
(6.89279 0 3.24268)
(6.53409 0 3.55065)
(6.14058 0 3.87335)
(5.7052 0 4.20657)
(5.21868 0 4.54328)
(4.66923 0 4.87239)
(4.04314 0 5.177)
(3.32397 0 5.43244)
(2.51002 0 5.60222)
(1.54205 0 5.64387)
(0.664142 0 5.41849)
(9.99384 0 0.10671)
(9.9733 0 0.212011)
(9.93679 0 0.317518)
(9.88557 0 0.424874)
(9.82062 0 0.53561)
(9.74223 0 0.651142)
(9.65042 0 0.772808)
(9.54514 0 0.901904)
(9.42633 0 1.03971)
(9.29385 0 1.18753)
(9.14747 0 1.34663)
(8.98688 0 1.51834)
(8.81168 0 1.70397)
(8.62136 0 1.90483)
(8.41525 0 2.12225)
(8.19246 0 2.35752)
(7.95182 0 2.61187)
(7.69174 0 2.88642)
(7.41003 0 3.18214)
(7.10365 0 3.4997)
(6.76839 0 3.8393)
(6.39843 0 4.20036)
(5.98571 0 4.58101)
(5.5193 0 4.97718)
(4.98466 0 5.38122)
(4.3636 0 5.77955)
(3.63226 0 6.14927)
(2.78047 0 6.45096)
(1.73371 0 6.62899)
(0.744961 0 6.5037)
(9.9942 0 0.114013)
(9.97487 0 0.226588)
(9.94055 0 0.339491)
(9.8925 0 0.454445)
(9.83172 0 0.573007)
(9.75848 0 0.696634)
(9.67285 0 0.826719)
(9.57484 0 0.964616)
(9.46443 0 1.11167)
(9.34156 0 1.26923)
(9.20609 0 1.43865)
(9.05779 0 1.62133)
(8.89636 0 1.81867)
(8.72139 0 2.03212)
(8.53229 0 2.26318)
(8.32828 0 2.51336)
(8.10827 0 2.78424)
(7.87074 0 3.07743)
(7.61356 0 3.39456)
(7.33371 0 3.7373)
(7.02694 0 4.10724)
(6.68722 0 4.5058)
(6.30603 0 4.93388)
(5.87131 0 5.39124)
(5.36609 0 5.87519)
(4.7673 0 6.37818)
(4.04119 0 6.88332)
(3.16195 0 7.35384)
(2.02515 0 7.72382)
(0.880943 0 7.75796)
(9.99459 0 0.120861)
(9.97657 0 0.240239)
(9.94461 0 0.360027)
(9.89994 0 0.482025)
(9.84354 0 0.607823)
(9.77573 0 0.738912)
(9.69659 0 0.876727)
(9.60618 0 1.02267)
(9.50458 0 1.17814)
(9.39178 0 1.34453)
(9.26774 0 1.52326)
(9.13234 0 1.71578)
(8.98538 0 1.92359)
(8.82658 0 2.14826)
(8.65552 0 2.39143)
(8.47156 0 2.65485)
(8.27382 0 2.94042)
(8.06098 0 3.2502)
(7.83118 0 3.58651)
(7.58173 0 3.95196)
(7.30877 0 4.34958)
(7.00669 0 4.78287)
(6.66733 0 5.2558)
(6.27869 0 5.77265)
(5.8228 0 6.33743)
(5.27296 0 6.95225)
(4.58515 0 7.61366)
(3.71067 0 8.30126)
(2.48883 0 8.95903)
(1.12485 0 9.29453)
(9.99501 0 0.127219)
(9.97837 0 0.252901)
(9.9489 0 0.379043)
(9.90778 0 0.507514)
(9.85596 0 0.639939)
(9.79379 0 0.777836)
(9.72139 0 0.922673)
(9.63888 0 1.07589)
(9.54641 0 1.23892)
(9.44405 0 1.4132)
(9.33187 0 1.60017)
(9.20985 0 1.80136)
(9.07795 0 2.01832)
(8.93602 0 2.25272)
(8.78385 0 2.50633)
(8.62103 0 2.7811)
(8.44695 0 3.07918)
(8.26067 0 3.40304)
(8.06082 0 3.75558)
(7.84534 0 4.14026)
(7.61123 0 4.56139)
(7.35406 0 5.02437)
(7.06721 0 5.53615)
(6.74059 0 6.10574)
(6.35826 0 6.74485)
(5.89462 0 7.46859)
(5.30159 0 8.29618)
(4.50993 0 9.24822)
(3.26997 0 10.3428)
(1.60577 0 11.3613)
(9.99544 0 0.13306)
(9.98026 0 0.264522)
(9.95338 0 0.396467)
(9.91594 0 0.53082)
(9.86886 0 0.669235)
(9.8125 0 0.813251)
(9.74703 0 0.964362)
(9.67266 0 1.12403)
(9.58956 0 1.29372)
(9.49794 0 1.47487)
(9.39793 0 1.66898)
(9.28966 0 1.87758)
(9.17325 0 2.10229)
(9.04872 0 2.34482)
(8.91608 0 2.60705)
(8.77522 0 2.89104)
(8.62589 0 3.19916)
(8.46765 0 3.53415)
(8.29977 0 3.89934)
(8.12112 0 4.2988)
(7.93 0 4.73776)
(7.72386 0 5.22307)
(7.49887 0 5.76394)
(7.24916 0 6.37321)
(6.96524 0 7.06934)
(6.63163 0 7.88017)
(6.21555 0 8.85122)
(5.66761 0 10.0656)
(4.69256 0 11.7319)
(2.68931 0 14.5967)
(0.145991 0 -0.151006)
(0.334285 0 -0.133947)
(0.529544 0 -0.107621)
(0.698092 0 -0.0844919)
(0.835363 0 -0.066114)
(0.947017 0 -0.0518238)
(1.03943 0 -0.0408242)
(1.11742 0 -0.0324533)
(1.18449 0 -0.0261232)
(1.24324 0 -0.0213006)
(1.29554 0 -0.0175188)
(1.34258 0 -0.0143965)
(1.38492 0 -0.0116654)
(1.42279 0 -0.00918974)
(1.45626 0 -0.00691798)
(1.48541 0 -0.00472824)
(1.50991 0 -0.00227314)
(1.52853 0 0.000905027)
(1.53908 0 0.00484774)
(1.54003 0 0.00855871)
(1.53214 0 0.0107168)
(1.51881 0 0.0109789)
(1.50395 0 0.00964837)
(1.48969 0 0.00739063)
(1.47766 0 0.00464332)
(1.47009 0 0.00132886)
(1.47076 0 -0.00220506)
(1.48166 0 -0.00547134)
(1.5024 0 -0.00778724)
(1.53636 0 -0.00790473)
(0.115974 0 -0.33153)
(0.296135 0 -0.306603)
(0.473371 0 -0.253359)
(0.628833 0 -0.204698)
(0.759125 0 -0.165701)
(0.869012 0 -0.135316)
(0.963581 0 -0.111937)
(1.04663 0 -0.0941668)
(1.12094 0 -0.0807434)
(1.18859 0 -0.0705098)
(1.25111 0 -0.0624396)
(1.30948 0 -0.0556761)
(1.36421 0 -0.0496108)
(1.41542 0 -0.0439662)
(1.46318 0 -0.0387278)
(1.50776 0 -0.0337856)
(1.54957 0 -0.0284719)
(1.58858 0 -0.0217262)
(1.62351 0 -0.0132951)
(1.652 0 -0.00482658)
(1.67302 0 0.00149683)
(1.689 0 0.0056956)
(1.70336 0 0.00853461)
(1.71758 0 0.00937066)
(1.73193 0 0.0075263)
(1.74701 0 0.00325232)
(1.76245 0 -0.00264181)
(1.77814 0 -0.00949707)
(1.79457 0 -0.0162549)
(1.81751 0 -0.019122)
(0.0861633 0 -0.512803)
(0.236279 0 -0.478365)
(0.372027 0 -0.39898)
(0.491395 0 -0.326184)
(0.590976 0 -0.267738)
(0.675194 0 -0.221956)
(0.747767 0 -0.186479)
(0.811422 0 -0.159241)
(0.868218 0 -0.138405)
(0.919745 0 -0.122314)
(0.967192 0 -0.109484)
(1.01135 0 -0.0986313)
(1.05257 0 -0.0888069)
(1.09082 0 -0.0795909)
(1.12588 0 -0.0711147)
(1.15784 0 -0.0635561)
(1.1875 0 -0.0560983)
(1.21589 0 -0.0465789)
(1.2427 0 -0.0333194)
(1.2654 0 -0.0191791)
(1.28112 0 -0.0106978)
(1.29236 0 -0.00879327)
(1.3027 0 -0.00977054)
(1.31109 0 -0.0117088)
(1.31548 0 -0.0145867)
(1.31537 0 -0.017601)
(1.31096 0 -0.0201981)
(1.3017 0 -0.0225577)
(1.28882 0 -0.0245315)
(1.27368 0 -0.0239551)
(0.0587931 0 -0.647057)
(0.170359 0 -0.597486)
(0.255503 0 -0.495052)
(0.332037 0 -0.404235)
(0.393266 0 -0.332047)
(0.444312 0 -0.275555)
(0.487212 0 -0.231762)
(0.523587 0 -0.198067)
(0.554766 0 -0.172223)
(0.581819 0 -0.152245)
(0.605608 0 -0.136338)
(0.626795 0 -0.122894)
(0.645841 0 -0.110616)
(0.662661 0 -0.0988339)
(0.676556 0 -0.0877463)
(0.686606 0 -0.078102)
(0.693172 0 -0.0699247)
(0.699204 0 -0.0617326)
(0.707589 0 -0.0507457)
(0.717107 0 -0.0345399)
(0.704773 0 -0.016726)
(0.663951 0 -0.00429585)
(0.617051 0 0.00198292)
(0.572555 0 0.00593986)
(0.531753 0 0.00822161)
(0.497417 0 0.0080596)
(0.478154 0 0.00494951)
(0.465117 0 8.89276e-06)
(0.459076 0 -0.00663867)
(0.462815 0 -0.0176741)
(0.0310958 0 -0.737102)
(0.0967481 0 -0.667522)
(0.124648 0 -0.545483)
(0.154541 0 -0.443096)
(0.171763 0 -0.362112)
(0.183771 0 -0.298681)
(0.190514 0 -0.249422)
(0.192826 0 -0.211407)
(0.191447 0 -0.182166)
(0.186981 0 -0.159575)
(0.180001 0 -0.141732)
(0.171184 0 -0.126862)
(0.161444 0 -0.113345)
(0.150931 0 -0.100019)
(0.139023 0 -0.086656)
(0.123495 0 -0.0738122)
(0.099374 0 -0.0614476)
(0.0695315 0 -0.0475127)
(0.0318865 0 -0.0279077)
(-0.00532467 0 -0.00203027)
(-0.0300289 0 0.0210287)
(-0.0460943 0 0.0325798)
(-0.0624448 0 0.0342355)
(-0.0779425 0 0.0300982)
(-0.0934785 0 0.0216865)
(-0.107346 0 0.0101793)
(-0.111014 0 -0.0004612)
(-0.110072 0 -0.00962162)
(-0.107808 0 -0.0193688)
(-0.107949 0 -0.0310282)
(0.00153061 0 -0.775234)
(0.0148176 0 -0.682069)
(-0.0173512 0 -0.543629)
(-0.0376745 0 -0.435338)
(-0.0684192 0 -0.349413)
(-0.100201 0 -0.282568)
(-0.134529 0 -0.230882)
(-0.170647 0 -0.191152)
(-0.208088 0 -0.160588)
(-0.246472 0 -0.136861)
(-0.285391 0 -0.11804)
(-0.324226 0 -0.102455)
(-0.362127 0 -0.0886503)
(-0.398162 0 -0.0754959)
(-0.431613 0 -0.0623967)
(-0.462315 0 -0.0493753)
(-0.490486 0 -0.0367616)
(-0.51582 0 -0.0242938)
(-0.537019 0 -0.011327)
(-0.553 0 0.00204574)
(-0.558962 0 0.0158885)
(-0.563772 0 0.0268341)
(-0.567039 0 0.0316372)
(-0.569912 0 0.0302439)
(-0.57373 0 0.02408)
(-0.578677 0 0.0151031)
(-0.583048 0 0.00535008)
(-0.585156 0 -0.0050273)
(-0.589422 0 -0.016063)
(-0.594589 0 -0.0264655)
(-0.0329606 0 -0.753313)
(-0.0775044 0 -0.633599)
(-0.166137 0 -0.49197)
(-0.241036 0 -0.382868)
(-0.319057 0 -0.297667)
(-0.394298 0 -0.232471)
(-0.466361 0 -0.18292)
(-0.534303 0 -0.145755)
(-0.597357 0 -0.11816)
(-0.655096 0 -0.0977056)
(-0.707468 0 -0.0823815)
(-0.754624 0 -0.0704866)
(-0.796742 0 -0.0605526)
(-0.833952 0 -0.0513854)
(-0.866405 0 -0.0421975)
(-0.894411 0 -0.0326487)
(-0.918401 0 -0.0226379)
(-0.938695 0 -0.0119506)
(-0.955165 0 -0.000414923)
(-0.964671 0 0.0111575)
(-0.969207 0 0.0213831)
(-0.970526 0 0.0288903)
(-0.970087 0 0.0319028)
(-0.969529 0 0.030117)
(-0.970176 0 0.024114)
(-0.972598 0 0.0152435)
(-0.976306 0 0.00536092)
(-0.980513 0 -0.00475203)
(-0.98684 0 -0.0158021)
(-0.992098 0 -0.0258528)
(-0.0736549 0 -0.669285)
(-0.174272 0 -0.531287)
(-0.317999 0 -0.391199)
(-0.443949 0 -0.287084)
(-0.563231 0 -0.209881)
(-0.671019 0 -0.15378)
(-0.766853 0 -0.113447)
(-0.850981 0 -0.0849562)
(-0.92433 0 -0.0653921)
(-0.988007 0 -0.052202)
(-1.04324 0 -0.0432904)
(-1.09116 0 -0.0370023)
(-1.13268 0 -0.0320122)
(-1.16855 0 -0.027276)
(-1.1994 0 -0.0220959)
(-1.22579 0 -0.0161675)
(-1.2482 0 -0.00947331)
(-1.26687 0 -0.00208548)
(-1.28052 0 0.00594828)
(-1.28924 0 0.0145508)
(-1.29407 0 0.0227664)
(-1.29557 0 0.0289304)
(-1.29521 0 0.0315729)
(-1.29458 0 0.0302004)
(-1.29497 0 0.0250986)
(-1.29712 0 0.0172947)
(-1.30119 0 0.00815139)
(-1.30685 0 -0.00177903)
(-1.31431 0 -0.0127125)
(-1.31937 0 -0.0220434)
(-0.120597 0 -0.523165)
(-0.277924 0 -0.37592)
(-0.474512 0 -0.247937)
(-0.643686 0 -0.159829)
(-0.795302 0 -0.0984319)
(-0.926019 0 -0.057518)
(-1.03689 0 -0.0316188)
(-1.12756 0 -0.0171232)
(-1.20224 0 -0.00951942)
(-1.26433 0 -0.00602219)
(-1.31667 0 -0.00482613)
(-1.36139 0 -0.00471254)
(-1.39993 0 -0.00477435)
(-1.43328 0 -0.00428543)
(-1.4621 0 -0.00276089)
(-1.48689 0 -5.70967e-05)
(-1.50785 0 0.00367145)
(-1.52478 0 0.0081686)
(-1.53809 0 0.0133589)
(-1.54766 0 0.0191181)
(-1.55355 0 0.0248719)
(-1.55644 0 0.029383)
(-1.55762 0 0.031394)
(-1.55848 0 0.030194)
(-1.56017 0 0.0257921)
(-1.56343 0 0.0189447)
(-1.56874 0 0.0107164)
(-1.57626 0 0.00154796)
(-1.58478 0 -0.00859218)
(-1.58999 0 -0.0168439)
(-0.178496 0 -0.322084)
(-0.403962 0 -0.17872)
(-0.659933 0 -0.0556304)
(-0.85831 0 0.00891196)
(-1.0193 0 0.0396456)
(-1.14864 0 0.0517824)
(-1.25255 0 0.0533684)
(-1.33876 0 0.050121)
(-1.4106 0 0.044492)
(-1.47095 0 0.0380261)
(-1.52215 0 0.031643)
(-1.56595 0 0.0258116)
(-1.60356 0 0.0208717)
(-1.63587 0 0.0172369)
(-1.66372 0 0.0152655)
(-1.68789 0 0.0149987)
(-1.7089 0 0.0161236)
(-1.72682 0 0.0182308)
(-1.74135 0 0.0210555)
(-1.75225 0 0.0244489)
(-1.75969 0 0.0280808)
(-1.76449 0 0.0311417)
(-1.76787 0 0.0325691)
(-1.77105 0 0.0315123)
(-1.77494 0 0.0277178)
(-1.78019 0 0.0216703)
(-1.78738 0 0.0141928)
(-1.7968 0 0.0056697)
(-1.80629 0 -0.00359699)
(-1.81176 0 -0.0108837)
(-0.250382 0 -0.00314319)
(-0.517204 0 0.133561)
(-0.783168 0 0.167728)
(-0.988519 0 0.174877)
(-1.15554 0 0.167232)
(-1.29068 0 0.152123)
(-1.40026 0 0.134172)
(-1.48955 0 0.115699)
(-1.56279 0 0.0979478)
(-1.62359 0 0.0819255)
(-1.67492 0 0.0681193)
(-1.71888 0 0.0564088)
(-1.7567 0 0.0465902)
(-1.78923 0 0.0388459)
(-1.81739 0 0.0335285)
(-1.84216 0 0.0305932)
(-1.86418 0 0.0294268)
(-1.88343 0 0.0292624)
(-1.89943 0 0.0296865)
(-1.91185 0 0.0307122)
(-1.92097 0 0.0323609)
(-1.92778 0 0.0341613)
(-1.93356 0 0.0351313)
(-1.93939 0 0.0342333)
(-1.9459 0 0.0309331)
(-1.95348 0 0.0254739)
(-1.96275 0 0.0185548)
(-1.97406 0 0.0106499)
(-1.98515 0 0.00226325)
(-1.99064 0 -0.00421732)
(-0.284593 0 0.371112)
(-0.580469 0 0.419694)
(-0.880984 0 0.39613)
(-1.10657 0 0.353835)
(-1.28256 0 0.306475)
(-1.41981 0 0.260345)
(-1.52819 0 0.218798)
(-1.61509 0 0.182652)
(-1.68566 0 0.151508)
(-1.74386 0 0.125413)
(-1.79313 0 0.104242)
(-1.83583 0 0.0869399)
(-1.87296 0 0.0724017)
(-1.90499 0 0.0605522)
(-1.93281 0 0.0519646)
(-1.95776 0 0.0466366)
(-1.98068 0 0.0435368)
(-2.00141 0 0.0413365)
(-2.01908 0 0.0393944)
(-2.03307 0 0.0380064)
(-2.04376 0 0.0377296)
(-2.05243 0 0.038457)
(-2.0606 0 0.039172)
(-2.06924 0 0.0385232)
(-2.07867 0 0.0356322)
(-2.08898 0 0.0305387)
(-2.10066 0 0.02396)
(-2.11408 0 0.016578)
(-2.12676 0 0.00899829)
(-2.1328 0 0.00326104)
(-0.33369 0 0.783551)
(-0.682541 0 0.766675)
(-1.01641 0 0.652381)
(-1.24635 0 0.539865)
(-1.41624 0 0.44467)
(-1.54402 0 0.364164)
(-1.64253 0 0.298276)
(-1.72096 0 0.245187)
(-1.7846 0 0.201415)
(-1.83696 0 0.165842)
(-1.88183 0 0.138241)
(-1.92196 0 0.116391)
(-1.95774 0 0.0976748)
(-1.98865 0 0.0817832)
(-2.01544 0 0.0700492)
(-2.04004 0 0.0628165)
(-2.06381 0 0.0584094)
(-2.08631 0 0.0545514)
(-2.10592 0 0.050239)
(-2.12148 0 0.0462533)
(-2.13347 0 0.0440152)
(-2.14373 0 0.0439026)
(-2.15417 0 0.044709)
(-2.16578 0 0.0445444)
(-2.17845 0 0.0420616)
(-2.19176 0 0.0371152)
(-2.20594 0 0.0305842)
(-2.22138 0 0.0235289)
(-2.23553 0 0.0167164)
(-2.24222 0 0.0117266)
(-0.430202 0 1.28359)
(-0.859421 0 1.16825)
(-1.21707 0 0.918819)
(-1.42233 0 0.712491)
(-1.56332 0 0.568168)
(-1.6675 0 0.453639)
(-1.74594 0 0.365638)
(-1.80939 0 0.299822)
(-1.86235 0 0.246038)
(-1.90591 0 0.201618)
(-1.94406 0 0.168747)
(-1.98071 0 0.144094)
(-2.01512 0 0.122084)
(-2.04463 0 0.10208)
(-2.06953 0 0.0872294)
(-2.09308 0 0.0788835)
(-2.11769 0 0.0742496)
(-2.1425 0 0.0693297)
(-2.16454 0 0.06252)
(-2.18163 0 0.0554561)
(-2.19439 0 0.0510281)
(-2.20565 0 0.0503464)
(-2.21811 0 0.0517419)
(-2.23273 0 0.052399)
(-2.24877 0 0.0503132)
(-2.26506 0 0.0451835)
(-2.28139 0 0.0382437)
(-2.29818 0 0.0311875)
(-2.3131 0 0.0250623)
(-2.32002 0 0.0208629)
(-0.629093 0 2.19064)
(-1.15246 0 1.79029)
(-1.52312 0 1.20852)
(-1.64931 0 0.817366)
(-1.72357 0 0.65162)
(-1.7894 0 0.521535)
(-1.83623 0 0.418353)
(-1.87868 0 0.34508)
(-1.92009 0 0.2823)
(-1.95316 0 0.22709)
(-1.98169 0 0.191309)
(-2.01404 0 0.168997)
(-2.04799 0 0.146447)
(-2.07624 0 0.122117)
(-2.09798 0 0.10336)
(-2.11923 0 0.0946692)
(-2.14471 0 0.0912916)
(-2.17283 0 0.0860026)
(-2.19809 0 0.0762436)
(-2.21652 0 0.0651215)
(-2.22901 0 0.0580027)
(-2.24017 0 0.0571675)
(-2.25409 0 0.0599743)
(-2.2717 0 0.0620071)
(-2.29131 0 0.0603485)
(-2.31063 0 0.0546148)
(-2.3288 0 0.0466577)
(-2.34635 0 0.0391904)
(-2.36153 0 0.0337626)
(-2.3685 0 0.0305322)
(9.9959 0 0.138456)
(9.98225 0 0.275258)
(9.9581 0 0.412553)
(9.92452 0 0.552308)
(9.88239 0 0.696201)
(9.83213 0 0.845784)
(9.77394 0 1.00256)
(9.70809 0 1.16802)
(9.63484 0 1.3436)
(9.55449 0 1.53078)
(9.46729 0 1.73106)
(9.37351 0 1.94597)
(9.27341 0 2.17715)
(9.16726 0 2.42634)
(9.0553 0 2.69545)
(8.93776 0 2.98661)
(8.81482 0 3.30227)
(8.68663 0 3.64533)
(8.55326 0 4.0193)
(8.41472 0 4.42856)
(8.27093 0 4.87873)
(8.12179 0 5.37729)
(7.96727 0 5.9344)
(7.80763 0 6.56443)
(7.64414 0 7.28843)
(7.48182 0 8.13903)
(7.33405 0 9.17021)
(7.2912 0 10.4756)
(7.75256 0 12.2002)
(7.94085 0 14.9202)
(9.99638 0 0.143417)
(9.98433 0 0.285115)
(9.96304 0 0.427284)
(9.9335 0 0.571923)
(9.89654 0 0.720721)
(9.85258 0 0.875239)
(9.80192 0 1.03698)
(9.74485 0 1.20743)
(9.68175 0 1.38803)
(9.61299 0 1.58025)
(9.53894 0 1.78556)
(9.46004 0 2.00549)
(9.37671 0 2.24165)
(9.28944 0 2.49577)
(9.19874 0 2.76974)
(9.10521 0 3.06566)
(9.00948 0 3.38596)
(8.91232 0 3.73349)
(8.81463 0 4.11169)
(8.71761 0 4.52483)
(8.62286 0 4.97832)
(8.53275 0 5.47918)
(8.45102 0 6.03673)
(8.38394 0 6.66354)
(8.34272 0 7.37683)
(8.3495 0 8.19997)
(8.44322 0 9.16305)
(8.67992 0 10.2992)
(9.32865 0 11.5527)
(9.82156 0 12.6372)
(9.99688 0 0.147855)
(9.9865 0 0.29393)
(9.96818 0 0.440439)
(9.94281 0 0.589397)
(9.91118 0 0.742501)
(9.87373 0 0.9013)
(9.8308 0 1.06729)
(9.78276 0 1.24194)
(9.73004 0 1.42666)
(9.67311 0 1.6229)
(9.61249 0 1.83209)
(9.54872 0 2.05571)
(9.48242 0 2.29533)
(9.41429 0 2.55259)
(9.34514 0 2.8293)
(9.27588 0 3.12745)
(9.20761 0 3.44933)
(9.14166 0 3.79754)
(9.07974 0 4.17523)
(9.02406 0 4.58613)
(8.97763 0 5.03485)
(8.94474 0 5.52705)
(8.93168 0 6.06971)
(8.948 0 6.6712)
(9.0082 0 7.34092)
(9.13442 0 8.08746)
(9.35769 0 8.9126)
(9.68742 0 9.80502)
(10.2532 0 10.713)
(10.9405 0 11.4258)
(9.9974 0 0.151718)
(9.98873 0 0.301594)
(9.97346 0 0.451849)
(9.95237 0 0.604502)
(9.9262 0 0.761238)
(9.8954 0 0.923593)
(9.86035 0 1.09304)
(9.82149 0 1.271)
(9.77932 0 1.45888)
(9.73439 0 1.65804)
(9.68732 0 1.86987)
(9.63879 0 2.09578)
(9.58961 0 2.33723)
(9.54066 0 2.59575)
(9.49298 0 2.87301)
(9.44783 0 3.17079)
(9.40667 0 3.4911)
(9.37135 0 3.83621)
(9.34415 0 4.20868)
(9.32805 0 4.61149)
(9.32698 0 5.04803)
(9.34625 0 5.52213)
(9.39309 0 6.03791)
(9.47742 0 6.59931)
(9.61243 0 7.20907)
(9.81494 0 7.86681)
(10.1077 0 8.56537)
(10.4992 0 9.28999)
(11.0562 0 10.0305)
(11.8485 0 10.6737)
(9.99792 0 0.154959)
(9.991 0 0.308016)
(9.97883 0 0.461381)
(9.9621 0 0.617059)
(9.94147 0 0.776716)
(9.9174 0 0.941857)
(9.89033 0 1.11392)
(9.86073 0 1.29428)
(9.82916 0 1.48429)
(9.79626 0 1.68523)
(9.76275 0 1.89843)
(9.72942 0 2.12516)
(9.69721 0 2.36679)
(9.66719 0 2.62466)
(9.64061 0 2.90025)
(9.61895 0 3.19507)
(9.604 0 3.51079)
(9.59793 0 3.84916)
(9.60344 0 4.21212)
(9.62391 0 4.6017)
(9.66365 0 5.02)
(9.7282 0 5.46901)
(9.82462 0 5.95035)
(9.96187 0 6.4647)
(10.151 0 7.01095)
(10.405 0 7.58519)
(10.7412 0 8.17929)
(11.1711 0 8.77854)
(11.7178 0 9.37136)
(12.4697 0 9.88291)
(9.99845 0 0.157535)
(9.9933 0 0.31311)
(9.98426 0 0.468907)
(9.97191 0 0.626902)
(9.95686 0 0.788729)
(9.93956 0 0.955852)
(9.92047 0 1.12966)
(9.90012 0 1.31147)
(9.87912 0 1.50255)
(9.85817 0 1.70412)
(9.83806 0 1.91737)
(9.81969 0 2.14348)
(9.8041 0 2.38363)
(9.7925 0 2.63899)
(9.78628 0 2.91077)
(9.78711 0 3.20019)
(9.79694 0 3.5085)
(9.81815 0 3.83692)
(9.85359 0 4.1867)
(9.90676 0 4.55893)
(9.98192 0 4.95452)
(10.0843 0 5.37394)
(10.2203 0 5.81691)
(10.3973 0 6.28196)
(10.6242 0 6.76584)
(10.9107 0 7.26276)
(11.2679 0 7.76348)
(11.7037 0 8.25246)
(12.219 0 8.71301)
(12.8936 0 9.10365)
(9.99898 0 0.159406)
(9.9956 0 0.316799)
(9.98969 0 0.474315)
(9.98174 0 0.633885)
(9.97224 0 0.797098)
(9.96168 0 0.965368)
(9.95051 0 1.14002)
(9.93931 0 1.3223)
(9.92873 0 1.51339)
(9.91951 0 1.71441)
(9.9125 0 1.92643)
(9.90867 0 2.15048)
(9.90914 0 2.38755)
(9.91519 0 2.63862)
(9.92831 0 2.9046)
(9.95024 0 3.1864)
(9.98302 0 3.48482)
(10.0291 0 3.80058)
(10.0912 0 4.13425)
(10.1727 0 4.48611)
(10.2776 0 4.85607)
(10.4105 0 5.24342)
(10.5767 0 5.64657)
(10.782 0 6.06271)
(11.0329 0 6.48737)
(11.3358 0 6.91383)
(11.6968 0 7.33276)
(12.1199 0 7.73076)
(12.5991 0 8.09327)
(13.2034 0 8.39982)
(9.99951 0 0.160539)
(9.99788 0 0.319016)
(9.99509 0 0.477506)
(9.99148 0 0.63788)
(9.98749 0 0.801672)
(9.98356 0 0.970232)
(9.98019 0 1.14481)
(9.97795 0 1.32658)
(9.97754 0 1.51661)
(9.97971 0 1.71592)
(9.98535 0 1.92544)
(9.99547 0 2.14604)
(10.0112 0 2.37853)
(10.0339 0 2.62365)
(10.0651 0 2.88204)
(10.1065 0 3.15426)
(10.16 0 3.44074)
(10.2281 0 3.74169)
(10.3134 0 4.0571)
(10.4189 0 4.3866)
(10.548 0 4.72932)
(10.7045 0 5.08373)
(10.8926 0 5.44744)
(11.1165 0 5.81694)
(11.3806 0 6.18733)
(11.6886 0 6.55204)
(12.0434 0 6.90282)
(12.4464 0 7.22936)
(12.89 0 7.52054)
(13.4321 0 7.7651)
(10 0 0.160905)
(10.0001 0 0.319708)
(10.0004 0 0.478401)
(10.0011 0 0.638788)
(10.0025 0 0.802333)
(10.005 0 0.970315)
(10.0092 0 1.1439)
(10.0157 0 1.32417)
(10.0251 0 1.5121)
(10.0382 0 1.70857)
(10.0559 0 1.91438)
(10.0792 0 2.13023)
(10.1093 0 2.35674)
(10.1475 0 2.59442)
(10.1952 0 2.84365)
(10.2541 0 3.10468)
(10.3262 0 3.37757)
(10.4134 0 3.66213)
(10.5183 0 3.95787)
(10.6433 0 4.26392)
(10.7914 0 4.57888)
(10.9654 0 4.90074)
(11.1684 0 5.22671)
(11.4033 0 5.55307)
(11.6727 0 5.87508)
(11.9784 0 6.18691)
(12.3214 0 6.48168)
(12.7013 0 6.75159)
(13.1104 0 6.98832)
(13.5974 0 7.18502)
(10.0005 0 0.160484)
(10.0023 0 0.31883)
(10.0056 0 0.476941)
(10.0104 0 0.636534)
(10.017 0 0.798998)
(10.0258 0 0.965531)
(10.0374 0 1.13722)
(10.0522 0 1.31503)
(10.0709 0 1.49983)
(10.0944 0 1.69238)
(10.1234 0 1.89333)
(10.1591 0 2.10324)
(10.2024 0 2.32251)
(10.2547 0 2.55146)
(10.3174 0 2.79022)
(10.3919 0 3.03878)
(10.4799 0 3.29687)
(10.5835 0 3.56398)
(10.7044 0 3.83929)
(10.845 0 4.12157)
(11.0072 0 4.40911)
(11.1935 0 4.69968)
(11.4057 0 4.9904)
(11.6457 0 5.27768)
(11.9147 0 5.55724)
(12.2135 0 5.82411)
(12.5415 0 6.07278)
(12.8973 0 6.29735)
(13.2741 0 6.4918)
(13.7134 0 6.65199)
(10.001 0 0.15926)
(10.0044 0 0.316356)
(10.0106 0 0.473085)
(10.0194 0 0.631073)
(10.031 0 0.791621)
(10.0459 0 0.955843)
(10.0644 0 1.12473)
(10.0871 0 1.29914)
(10.1147 0 1.47984)
(10.1478 0 1.66746)
(10.1874 0 1.86252)
(10.2344 0 2.06539)
(10.2898 0 2.27634)
(10.3548 0 2.49548)
(10.4306 0 2.72273)
(10.5187 0 2.95784)
(10.6204 0 3.20032)
(10.7373 0 3.44942)
(10.8711 0 3.70407)
(11.0235 0 3.96286)
(11.1959 0 4.22395)
(11.3899 0 4.48505)
(11.6069 0 4.7434)
(11.8476 0 4.99575)
(12.1124 0 5.23838)
(12.4012 0 5.46721)
(12.7127 0 5.67791)
(13.0451 0 5.86614)
(13.3923 0 6.02767)
(13.7906 0 6.16)
(10.0015 0 0.157226)
(10.0065 0 0.31227)
(10.0154 0 0.466816)
(10.028 0 0.622386)
(10.0444 0 0.780193)
(10.065 0 0.941258)
(10.09 0 1.10647)
(10.1202 0 1.2766)
(10.156 0 1.45229)
(10.1981 0 1.63404)
(10.2474 0 1.82225)
(10.3047 0 2.01716)
(10.3709 0 2.21886)
(10.447 0 2.4273)
(10.5343 0 2.64225)
(10.6338 0 2.86326)
(10.7468 0 3.08969)
(10.8745 0 3.32061)
(11.0182 0 3.55483)
(11.1791 0 3.79085)
(11.3582 0 4.02684)
(11.5565 0 4.2606)
(11.7747 0 4.4896)
(12.0129 0 4.71101)
(12.2709 0 4.9217)
(12.5481 0 5.11841)
(12.8428 0 5.29783)
(13.1531 0 5.4568)
(13.4736 0 5.5924)
(13.8367 0 5.70315)
(10.0019 0 0.15438)
(10.0084 0 0.306571)
(10.0199 0 0.458135)
(10.0361 0 0.610488)
(10.0571 0 0.764744)
(10.0829 0 0.921831)
(10.1141 0 1.08254)
(10.1511 0 1.24755)
(10.1945 0 1.41737)
(10.2449 0 1.59242)
(10.3029 0 1.77295)
(10.3693 0 1.95908)
(10.445 0 2.15079)
(10.5309 0 2.34787)
(10.6279 0 2.54996)
(10.7369 0 2.7565)
(10.859 0 2.96673)
(10.995 0 3.17963)
(11.146 0 3.39397)
(11.3126 0 3.60826)
(11.4956 0 3.82074)
(11.6953 0 4.0294)
(11.9121 0 4.23203)
(12.1456 0 4.42618)
(12.3952 0 4.60934)
(12.66 0 4.77893)
(12.9382 0 4.93246)
(13.2279 0 5.06767)
(13.5247 0 5.18257)
(13.8575 0 5.27633)
(10.0024 0 0.150728)
(10.0102 0 0.299272)
(10.0241 0 0.447068)
(10.0437 0 0.595417)
(10.0689 0 0.745337)
(10.0997 0 0.897661)
(10.1366 0 1.05309)
(10.1799 0 1.21218)
(10.2301 0 1.37537)
(10.2878 0 1.54296)
(10.3536 0 1.7151)
(10.4281 0 1.89179)
(10.512 0 2.07291)
(10.6062 0 2.25816)
(10.7112 0 2.44707)
(10.8279 0 2.63901)
(10.957 0 2.83314)
(11.0992 0 3.02844)
(11.2551 0 3.22369)
(11.4252 0 3.41746)
(11.6097 0 3.60814)
(11.8087 0 3.79396)
(12.0221 0 3.97299)
(12.2494 0 4.14323)
(12.4897 0 4.30265)
(12.7419 0 4.44927)
(13.0044 0 4.58125)
(13.2753 0 4.69697)
(13.5508 0 4.79513)
(13.8573 0 4.87528)
(10.0027 0 0.146283)
(10.0119 0 0.2904)
(10.0281 0 0.433657)
(10.0508 0 0.577241)
(10.0798 0 0.72207)
(10.1152 0 0.868884)
(10.1572 0 1.01829)
(10.2062 0 1.17076)
(10.2626 0 1.32663)
(10.3268 0 1.4861)
(10.3994 0 1.64924)
(10.4809 0 1.81597)
(10.5718 0 1.98608)
(10.6727 0 2.15919)
(10.7843 0 2.33478)
(10.907 0 2.51217)
(11.0414 0 2.69052)
(11.1878 0 2.86882)
(11.3467 0 3.04591)
(11.5183 0 3.22048)
(11.7024 0 3.3911)
(11.8991 0 3.55622)
(12.1078 0 3.71423)
(12.3279 0 3.8635)
(12.5585 0 4.00243)
(12.7984 0 4.12951)
(13.046 0 4.24341)
(13.2997 0 4.34299)
(13.5563 0 4.4274)
(13.8399 0 4.49648)
(10.0031 0 0.141064)
(10.0134 0 0.279992)
(10.0317 0 0.417964)
(10.0573 0 0.556048)
(10.0898 0 0.695068)
(10.1293 0 0.835672)
(10.1759 0 0.978377)
(10.23 0 1.12357)
(10.2918 0 1.27151)
(10.3618 0 1.42231)
(10.4402 0 1.57597)
(10.5276 0 1.73234)
(10.6243 0 1.89114)
(10.7307 0 2.05196)
(10.8474 0 2.21425)
(10.9746 0 2.37732)
(11.1126 0 2.54034)
(11.2617 0 2.70237)
(11.422 0 2.86233)
(11.5935 0 3.01905)
(11.7759 0 3.17128)
(11.969 0 3.3177)
(12.1721 0 3.457)
(12.3846 0 3.58786)
(12.6054 0 3.70905)
(12.8333 0 3.81943)
(13.067 0 3.91803)
(13.3051 0 4.0041)
(13.5448 0 4.07708)
(13.8084 0 4.13698)
(10.0034 0 0.135092)
(10.0148 0 0.268096)
(10.035 0 0.400064)
(10.0631 0 0.53195)
(10.0988 0 0.664483)
(10.142 0 0.798225)