/*--------------------------------*- C++ -*----------------------------------*\
  =========                 |
  \\      /  F ield         | OpenFOAM: The Open Source CFD Toolbox
   \\    /   O peration     | Website:  https://openfoam.org
    \\  /    A nd           | Version:  dev
     \\/     M anipulation  |
\*---------------------------------------------------------------------------*/
FoamFile
{
    version     2.0;
    format      ascii;
    class       surfaceVectorField;
    location    "3.3";
    object      Uf;
}
// * * * * * * * * * * * * * * * * * * * * * * * * * * * * * * * * * * * * * //

dimensions      [0 1 -1 0 0 0 0];

internalField   nonuniform List<vector> 
5457
(
(9.92088 0 0.0251099)
(9.97125 0 0.0387463)
(9.82401 0 0.0328273)
(9.92859 0 0.048586)
(9.70961 0 0.0393127)
(9.85547 0 0.0587694)
(9.57543 0 0.0460123)
(9.75679 0 0.0705948)
(9.42137 0 0.0529497)
(9.63752 0 0.083015)
(9.24753 0 0.060167)
(9.4986 0 0.0959381)
(9.05361 0 0.0678116)
(9.33929 0 0.109614)
(8.83891 0 0.076035)
(9.15873 0 0.12429)
(8.6025 0 0.0849704)
(8.95608 0 0.140168)
(8.34325 0 0.0947447)
(8.73036 0 0.157433)
(8.05983 0 0.105487)
(8.48039 0 0.176269)
(7.75079 0 0.117327)
(8.20476 0 0.196856)
(7.41455 0 0.130394)
(7.90194 0 0.219359)
(7.0495 0 0.144808)
(7.5703 0 0.24392)
(6.65404 0 0.16067)
(7.20819 0 0.270628)
(6.22674 0 0.178041)
(6.81401 0 0.299495)
(5.76646 0 0.196925)
(6.38636 0 0.330408)
(5.27262 0 0.217229)
(5.92421 0 0.363077)
(4.74543 0 0.238732)
(5.42716 0 0.396969)
(4.18628 0 0.261028)
(4.89572 0 0.43123)
(3.59806 0 0.283484)
(4.33172 0 0.464613)
(2.98565 0 0.305199)
(3.7387 0 0.49542)
(2.35622 0 0.325067)
(3.12238 0 0.521509)
(1.71921 0 0.342547)
(2.49118 0 0.540557)
(1.08445 0 0.36188)
(1.85597 0 0.551675)
(0.451941 0 0.348706)
(1.24558 0 0.563022)
(-0.145765 0 0.102502)
(0.609035 0 0.544909)
(-0.423586 0 -0.207082)
(0.0947102 0 0.259407)
(-0.40214 0 -0.361257)
(-0.133615 0 -0.0205086)
(-0.119674 0 -0.393871)
(9.99641 0 0.0516734)
(9.99705 0 0.0405056)
(9.95878 0 0.0708631)
(9.97851 0 0.0674562)
(9.89824 0 0.0879888)
(9.93377 0 0.0898724)
(9.81658 0 0.105987)
(9.86452 0 0.113558)
(9.71358 0 0.124924)
(9.77437 0 0.138518)
(9.58907 0 0.144856)
(9.66434 0 0.164649)
(9.44273 0 0.166092)
(9.53395 0 0.192335)
(9.27389 0 0.188968)
(9.38248 0 0.222033)
(9.08164 0 0.213783)
(9.20917 0 0.25415)
(8.86488 0 0.240815)
(9.01314 0 0.289064)
(8.62228 0 0.270335)
(8.79329 0 0.327151)
(8.35237 0 0.302604)
(8.54834 0 0.368784)
(8.05355 0 0.337853)
(8.27682 0 0.414312)
(7.72411 0 0.376257)
(7.97716 0 0.46404)
(7.36238 0 0.417895)
(7.64772 0 0.51818)
(6.96674 0 0.462699)
(7.28683 0 0.576796)
(6.53586 0 0.510377)
(6.89297 0 0.639713)
(6.06887 0 0.560322)
(6.46485 0 0.706413)
(5.56565 0 0.61151)
(6.00165 0 0.775894)
(5.02717 0 0.662374)
(5.50332 0 0.846509)
(4.45596 0 0.710699)
(4.97097 0 0.915793)
(3.85659 0 0.753534)
(4.40727 0 0.980296)
(3.2363 0 0.787193)
(3.81714 0 1.03545)
(2.60592 0 0.807503)
(3.20856 0 1.07548)
(1.9829 0 0.810473)
(2.5935 0 1.09315)
(1.40537 0 0.776914)
(1.9963 0 1.0771)
(0.929834 0 0.646431)
(1.41959 0 0.978443)
(0.439931 0 0.384381)
(0.937639 0 0.716839)
(0.0592088 0 -0.118574)
(0.443859 0 0.343578)
(0.174935 0 -0.33588)
(9.98903 0 0.0594326)
(9.99481 0 0.0458789)
(9.95433 0 0.0894792)
(9.97368 0 0.0848569)
(9.89729 0 0.118035)
(9.92984 0 0.119177)
(9.82046 0 0.147902)
(9.86356 0 0.153981)
(9.72415 0 0.179426)
(9.77735 0 0.190413)
(9.6082 0 0.212779)
(9.67225 0 0.228641)
(9.47233 0 0.248395)
(9.54808 0 0.269133)
(9.31606 0 0.286776)
(9.4043 0 0.3125)
(9.13866 0 0.328398)
(9.24032 0 0.359327)
(8.93923 0 0.373721)
(9.05547 0 0.410174)
(8.71663 0 0.423203)
(8.84887 0 0.465596)
(8.46958 0 0.477289)
(8.61949 0 0.526147)
(8.19666 0 0.536389)
(8.36614 0 0.592363)
(7.89632 0 0.600829)
(8.08751 0 0.664724)
(7.56692 0 0.670794)
(7.78219 0 0.7436)
(7.20685 0 0.746237)
(7.44874 0 0.829168)
(6.81459 0 0.82676)
(7.0857 0 0.921293)
(6.38892 0 0.911459)
(6.69173 0 1.01938)
(5.92909 0 0.998733)
(6.26576 0 1.12214)
(5.43521 0 1.08607)
(5.80718 0 1.22739)
(4.90863 0 1.16981)
(5.31615 0 1.33172)
(4.35253 0 1.24488)
(4.79407 0 1.43017)
(3.7727 0 1.30454)
(4.24408 0 1.51586)
(3.17884 0 1.33984)
(3.67193 0 1.57942)
(2.58674 0 1.33814)
(3.08644 0 1.60776)
(2.01996 0 1.273)
(2.50303 0 1.58161)
(1.48703 0 1.09546)
(1.92883 0 1.4643)
(0.95836 0 0.769231)
(1.38533 0 1.21047)
(0.479913 0 0.20253)
(0.829593 0 0.801119)
(0.433753 0 0.134165)
(9.98515 0 0.0716163)
(9.99367 0 0.0531498)
(9.95039 0 0.113634)
(9.97087 0 0.102294)
(9.89436 0 0.154138)
(9.9269 0 0.147958)
(9.81881 0 0.195578)
(9.86184 0 0.193727)
(9.72441 0 0.238817)
(9.77745 0 0.241284)
(9.61111 0 0.28433)
(9.67465 0 0.29117)
(9.47872 0 0.332725)
(9.55341 0 0.343961)
(9.32693 0 0.384677)
(9.41334 0 0.400376)
(9.15521 0 0.440848)
(9.25398 0 0.461142)
(8.96289 0 0.501882)
(9.07481 0 0.526961)
(8.74914 0 0.568423)
(8.87517 0 0.598532)
(8.51302 0 0.641103)
(8.65427 0 0.676555)
(8.25345 0 0.720517)
(8.4112 0 0.761708)
(7.96925 0 0.807172)
(8.14498 0 0.854619)
(7.65917 0 0.901414)
(7.85454 0 0.955795)
(7.32193 0 1.00332)
(7.53875 0 1.06554)
(6.95623 0 1.11254)
(7.19647 0 1.18381)
(6.56088 0 1.2281)
(6.82656 0 1.31004)
(6.13494 0 1.34813)
(6.42793 0 1.44287)
(5.67791 0 1.46956)
(5.99972 0 1.57986)
(5.19008 0 1.58774)
(5.54142 0 1.71704)
(4.67296 0 1.696)
(5.05315 0 1.8485)
(4.12991 0 1.78513)
(4.53607 0 1.96581)
(3.56677 0 1.84253)
(3.99285 0 2.05729)
(2.99217 0 1.85074)
(3.42772 0 2.10715)
(2.41595 0 1.78253)
(2.84775 0 2.09452)
(1.84063 0 1.60052)
(2.25634 0 1.98879)
(1.25945 0 1.27851)
(1.6604 0 1.75313)
(0.666807 0 0.789632)
(1.02402 0 1.36787)
(0.523059 0 0.787262)
(9.98337 0 0.0844105)
(9.99316 0 0.0612938)
(9.94821 0 0.136842)
(9.96958 0 0.119932)
(9.89314 0 0.188038)
(9.92574 0 0.176246)
(9.81905 0 0.240176)
(9.86199 0 0.232705)
(9.72661 0 0.294474)
(9.77963 0 0.291095)
(9.61588 0 0.351665)
(9.67938 0 0.352282)
(9.48669 0 0.412475)
(9.56126 0 0.416984)
(9.33876 0 0.477679)
(9.42494 0 0.486013)
(9.17168 0 0.548051)
(9.27007 0 0.560207)
(8.9849 0 0.624351)
(9.09617 0 0.640386)
(8.77776 0 0.707336)
(8.90271 0 0.727362)
(8.54951 0 0.797751)
(8.68904 0 0.821946)
(8.29933 0 0.896307)
(8.45442 0 0.924925)
(8.02633 0 1.00363)
(8.19805 0 1.03703)
(7.72957 0 1.12017)
(7.9191 0 1.15888)
(7.40805 0 1.24613)
(7.61668 0 1.29089)
(7.06078 0 1.38123)
(7.28986 0 1.4331)
(6.68672 0 1.52454)
(6.93765 0 1.58505)
(6.2849 0 1.67414)
(6.55902 0 1.74545)
(5.85445 0 1.82674)
(6.15292 0 1.91183)
(5.39479 0 1.97721)
(5.71829 0 2.08011)
(4.90585 0 2.11802)
(5.25417 0 2.24404)
(4.38836 0 2.23859)
(4.75985 0 2.39457)
(3.84406 0 2.32454)
(4.23507 0 2.51918)
(3.27556 0 2.35697)
(3.68002 0 2.60124)
(2.68551 0 2.31064)
(3.09585 0 2.61974)
(2.07279 0 2.15509)
(2.48181 0 2.54739)
(1.42945 0 1.8675)
(1.84001 0 2.35383)
(0.742651 0 1.41969)
(1.13143 0 2.02466)
(0.543336 0 1.51464)
(9.98264 0 0.0975014)
(9.99299 0 0.0697957)
(9.94744 0 0.159781)
(9.96924 0 0.137589)
(9.89354 0 0.221355)
(9.92596 0 0.203934)
(9.82133 0 0.2841)
(9.8638 0 0.270697)
(9.73133 0 0.349356)
(9.78384 0 0.339592)
(9.62365 0 0.418026)
(9.68663 0 0.411706)
(9.49817 0 0.490944)
(9.57216 0 0.487911)
(9.35463 0 0.568978)
(9.44019 0 0.569111)
(9.19266 0 0.653005)
(9.2904 0 0.656237)
(9.0118 0 0.743894)
(9.12239 0 0.750213)
(8.81148 0 0.842507)
(8.93568 0 0.851951)
(8.59105 0 0.949694)
(8.72969 0 0.962354)
(8.34982 0 1.06626)
(8.50378 0 1.0823)
(8.08704 0 1.19293)
(8.25725 0 1.21262)
(7.80191 0 1.33027)
(7.98935 0 1.35401)
(7.49359 0 1.47855)
(7.69928 0 1.50698)
(7.1612 0 1.63764)
(7.38616 0 1.67171)
(6.80375 0 1.80669)
(7.04904 0 1.84786)
(6.42015 0 1.98391)
(6.68678 0 2.03429)
(6.00919 0 2.16608)
(6.29806 0 2.22877)
(5.56949 0 2.34805)
(5.88126 0 2.42741)
(5.09956 0 2.52216)
(5.43443 0 2.6242)
(4.59786 0 2.67754)
(4.95523 0 2.81025)
(4.06283 0 2.79949)
(4.44098 0 2.9732)
(3.49284 0 2.86913)
(3.88867 0 3.09663)
(2.88596 0 2.86298)
(3.29538 0 3.15994)
(2.23813 0 2.75403)
(2.65704 0 3.138)
(1.54253 0 2.52117)
(1.97496 0 3.00332)
(0.793694 0 2.1315)
(1.20732 0 2.74077)
(0.556773 0 2.29202)
(9.9825 0 0.110631)
(9.99301 0 0.0783649)
(9.9477 0 0.182331)
(9.96954 0 0.155043)
(9.89522 0 0.253826)
(9.92722 0 0.230894)
(9.82523 0 0.326776)
(9.86696 0 0.307519)
(9.73812 0 0.402565)
(9.78976 0 0.386533)
(9.63401 0 0.482243)
(9.69604 0 0.469159)
(9.51283 0 0.566765)
(9.58577 0 0.556407)
(9.37435 0 0.657098)
(9.45877 0 0.649278)
(9.21825 0 0.754214)
(9.31477 0 0.748792)
(9.04411 0 0.859081)
(9.15343 0 0.855962)
(8.85141 0 0.972653)
(8.9743 0 0.971795)
(8.63959 0 1.09587)
(8.77687 0 1.09728)
(8.40799 0 1.22962)
(8.56054 0 1.2334)
(8.15592 0 1.37472)
(8.32466 0 1.38105)
(7.88262 0 1.53182)
(8.06849 0 1.54104)
(7.58726 0 1.70133)
(7.79123 0 1.714)
(7.2689 0 1.88324)
(7.49195 0 1.90025)
(6.92644 0 2.07691)
(7.16954 0 2.09963)
(6.55855 0 2.28078)
(6.82268 0 2.31132)
(6.16353 0 2.49198)
(6.44964 0 2.53341)
(5.73921 0 2.70577)
(6.04817 0 2.76257)
(5.28284 0 2.91493)
(5.61534 0 2.99339)
(4.79097 0 3.10912)
(5.14737 0 3.21779)
(4.25945 0 3.27419)
(4.63954 0 3.42424)
(3.68355 0 3.39189)
(4.08623 0 3.59715)
(3.05821 0 3.43976)
(3.4815 0 3.71659)
(2.37788 0 3.39192)
(2.81854 0 3.75823)
(1.63802 0 3.22634)
(2.0993 0 3.69415)
(0.839189 0 2.90105)
(1.27902 0 3.50469)
(0.573407 0 3.11395)
(9.98273 0 0.123587)
(9.99316 0 0.0868215)
(9.94872 0 0.204317)
(9.97026 0 0.1721)
(9.89793 0 0.285262)
(9.92926 0 0.256985)
(9.8305 0 0.367977)
(9.87123 0 0.343)
(9.74669 0 0.453864)
(9.79714 0 0.431691)
(9.64666 0 0.544089)
(9.70733 0 0.524364)
(9.53036 0 0.639717)
(9.60178 0 0.622147)
(9.39759 0 0.741807)
(9.48035 0 0.726136)
(9.24809 0 0.851417)
(9.34282 0 0.837431)
(9.08149 0 0.969604)
(9.1889 0 0.957134)
(8.89732 0 1.09741)
(9.0182 0 1.08634)
(8.69506 0 1.23587)
(8.83025 0 1.22612)
(8.47409 0 1.38596)
(8.6245 0 1.37756)
(8.23373 0 1.54859)
(8.40032 0 1.54165)
(7.97319 0 1.72455)
(8.15697 0 1.71933)
(7.69159 0 1.91438)
(7.8936 0 1.91137)
(7.38785 0 2.11828)
(7.60918 0 2.11829)
(7.06063 0 2.33588)
(7.30241 0 2.34021)
(6.70824 0 2.56603)
(6.97167 0 2.57667)
(6.32842 0 2.80639)
(6.61476 0 2.82633)
(5.91819 0 3.05296)
(6.22879 0 3.0866)
(5.47358 0 3.29945)
(5.80985 0 3.35307)
(4.98946 0 3.5366)
(5.3528 0 3.6189)
(4.45952 0 3.75139)
(4.85106 0 3.87394)
(3.87642 0 3.92649)
(4.29663 0 4.10393)
(3.23253 0 4.03994)
(3.68078 0 4.28973)
(2.52101 0 4.06514)
(2.99374 0 4.40689)
(1.73852 0 3.97635)
(2.23757 0 4.42478)
(0.88955 0 3.71902)
(1.36349 0 4.31656)
(0.598816 0 3.98521)
(9.98321 0 0.13621)
(9.99339 0 0.095045)
(9.95032 0 0.225582)
(9.97131 0 0.188598)
(9.9015 0 0.315509)
(9.93193 0 0.282061)
(9.83693 0 0.407517)
(9.87642 0 0.376974)
(9.75682 0 0.503027)
(9.80578 0 0.474856)
(9.66133 0 0.603291)
(9.72028 0 0.577066)
(9.55043 0 0.709471)
(9.61993 0 0.684829)
(9.424 0 0.82271)
(9.50462 0 0.799328)
(9.2818 0 0.94415)
(9.37418 0 0.921743)
(9.12352 0 1.07493)
(9.22839 0 1.05325)
(8.94875 0 1.21618)
(9.06691 0 1.19503)
(8.757 0 1.36903)
(8.88933 0 1.34826)
(8.54771 0 1.53455)
(8.69515 0 1.5141)
(8.3202 0 1.7138)
(8.48377 0 1.69367)
(8.07366 0 1.90768)
(8.25445 0 1.88805)
(7.80711 0 2.11695)
(8.00632 0 2.0982)
(7.51931 0 2.34207)
(7.73822 0 2.32488)
(7.20868 0 2.58305)
(7.44872 0 2.56858)
(6.87313 0 2.83928)
(7.13586 0 2.82933)
(6.50984 0 3.10915)
(6.79705 0 3.10651)
(6.11498 0 3.38969)
(6.42875 0 3.39848)
(5.68346 0 3.67591)
(6.02617 0 3.70217)
(5.20856 0 3.96012)
(5.58285 0 4.01237)
(4.68187 0 4.23094)
(5.09043 0 4.32088)
(4.09343 0 4.47232)
(4.53842 0 4.61535)
(3.43267 0 4.66262)
(3.91488 0 4.8779)
(2.69029 0 4.77332)
(3.20588 0 5.0837)
(1.86198 0 4.77265)
(2.41146 0 5.19819)
(0.954253 0 4.59003)
(1.47641 0 5.18463)
(0.639255 0 4.91984)
(9.98386 0 0.148376)
(9.99368 0 0.102949)
(9.95235 0 0.245982)
(9.9726 0 0.204404)
(9.90578 0 0.344414)
(9.93509 0 0.305984)
(9.84436 0 0.445215)
(9.8824 0 0.409287)
(9.76831 0 0.549829)
(9.8155 0 0.515835)
(9.67778 0 0.659576)
(9.73469 0 0.62703)
(9.57278 0 0.775703)
(9.63996 0 0.744176)
(9.45324 0 0.89943)
(9.53126 0 0.868532)
(9.31897 0 1.03197)
(9.40849 0 1.00135)
(9.16973 0 1.17455)
(9.27147 0 1.14388)
(9.00517 0 1.32839)
(9.11994 0 1.29738)
(8.82487 0 1.49469)
(8.95355 0 1.46311)
(8.62829 0 1.67467)
(8.77188 0 1.64234)
(8.41479 0 1.8695)
(8.57436 0 1.83632)
(8.18356 0 2.08027)
(8.36031 0 2.04629)
(7.93356 0 2.30797)
(8.12883 0 2.27342)
(7.66345 0 2.5534)
(7.87876 0 2.51878)
(7.37142 0 2.81706)
(7.60851 0 2.78328)
(7.05507 0 3.09898)
(7.31597 0 3.06755)
(6.71107 0 3.39851)
(6.99822 0 3.37181)
(6.33489 0 3.71393)
(6.65124 0 3.69561)
(5.92038 0 4.04195)
(6.2695 0 4.03749)
(5.45934 0 4.37694)
(5.84546 0 4.39436)
(4.94118 0 4.7098)
(5.36899 0 4.76059)
(4.35287 0 5.02651)
(4.82695 0 5.12666)
(3.67975 0 5.30624)
(4.20337 0 5.47706)
(2.90768 0 5.51834)
(3.47812 0 5.78758)
(2.02781 0 5.62329)
(2.64524 0 6.01974)
(1.04519 0 5.52983)
(1.63788 0 6.12431)
(0.704551 0 5.94354)
(9.98465 0 0.15999)
(9.99402 0 0.110469)
(9.95472 0 0.265395)
(9.97408 0 0.219412)
(9.91064 0 0.371838)
(9.93867 0 0.328629)
(9.85265 0 0.480904)
(9.88904 0 0.439796)
(9.78098 0 0.594066)
(9.82617 0 0.554456)
(9.69578 0 0.712702)
(9.75036 0 0.674049)
(9.59713 0 0.838128)
(9.66163 0 0.79994)
(9.48498 0 0.971632)
(9.55999 0 0.933456)
(9.35922 0 1.1145)
(9.44538 0 1.07591)
(9.21967 0 1.26803)
(9.31771 0 1.22862)
(9.06606 0 1.43351)
(9.17678 0 1.39292)
(8.89804 0 1.61226)
(9.02233 0 1.57014)
(8.71514 0 1.8056)
(8.85402 0 1.76166)
(8.51678 0 2.01484)
(8.67137 0 1.96886)
(8.30219 0 2.24129)
(8.47377 0 2.19315)
(8.07033 0 2.48622)
(8.26037 0 2.43593)
(7.81983 0 2.75079)
(8.03005 0 2.6986)
(7.5488 0 3.03605)
(7.78124 0 2.98254)
(7.25463 0 3.34282)
(7.51179 0 3.28906)
(6.93371 0 3.67153)
(7.21868 0 3.61931)
(6.58101 0 4.02199)
(6.89767 0 3.97419)
(6.1896 0 4.39296)
(6.54283 0 4.35413)
(5.74997 0 4.78146)
(6.14587 0 4.75861)
(5.24937 0 5.18162)
(5.69531 0 5.18539)
(4.67125 0 5.58277)
(5.17538 0 5.62911)
(3.99524 0 5.96662)
(4.56545 0 6.07879)
(3.19875 0 6.30192)
(3.83673 0 6.51371)
(2.26205 0 6.54104)
(2.97121 0 6.89436)
(1.18077 0 6.5656)
(1.87943 0 7.15834)
(0.812952 0 7.10004)
(9.98553 0 0.170973)
(9.9944 0 0.117554)
(9.95738 0 0.283714)
(9.97572 0 0.233533)
(9.916 0 0.397655)
(9.94258 0 0.349888)
(9.86168 0 0.514434)
(9.89622 0 0.468374)
(9.79466 0 0.63556)
(9.83763 0 0.590566)
(9.71514 0 0.762454)
(9.76711 0 0.717937)
(9.62321 0 0.896491)
(9.68472 0 0.851903)
(9.5189 0 1.03902)
(9.59051 0 0.993844)
(9.40215 0 1.19139)
(9.48451 0 1.14513)
(9.27287 0 1.35495)
(9.36667 0 1.30713)
(9.13087 0 1.53108)
(9.23691 0 1.48124)
(8.97588 0 1.72118)
(9.09506 0 1.66887)
(8.80755 0 1.92667)
(8.94087 0 1.87148)
(8.62537 0 2.14903)
(8.77398 0 2.09059)
(8.42868 0 2.38976)
(8.5939 0 2.32775)
(8.21653 0 2.65042)
(8.39992 0 2.58462)
(7.98762 0 2.93259)
(8.19104 0 2.86293)
(7.74012 0 3.23789)
(7.96586 0 3.16451)
(7.47146 0 3.56798)
(7.72237 0 3.49136)
(7.178 0 3.92448)
(7.45772 0 3.84562)
(6.85462 0 4.3089)
(7.16786 0 4.22963)
(6.49403 0 4.7224)
(6.84696 0 4.64584)
(6.08597 0 5.16529)
(6.48668 0 5.0967)
(5.616 0 5.63611)
(6.075 0 5.5842)
(5.06402 0 6.12969)
(5.59444 0 6.10884)
(4.40272 0 6.63377)
(5.02013 0 6.66744)
(3.59665 0 7.12139)
(4.31317 0 7.24857)
(2.60479 0 7.54104)
(3.43631 0 7.82048)
(1.39459 0 7.74109)
(2.25699 0 8.31565)
(1.0029 0 8.46595)
(9.9865 0 0.181263)
(9.9948 0 0.124164)
(9.96026 0 0.300849)
(9.97747 0 0.246695)
(9.92176 0 0.421755)
(9.94675 0 0.369667)
(9.87132 0 0.545676)
(9.90386 0 0.494911)
(9.80921 0 0.674151)
(9.84975 0 0.624033)
(9.73564 0 0.808643)
(9.78476 0 0.758537)
(9.65077 0 0.950572)
(9.70899 0 0.899878)
(9.55466 0 1.10134)
(9.62253 0 1.04948)
(9.44736 0 1.26233)
(9.52549 0 1.20875)
(9.32884 0 1.43497)
(9.41792 0 1.37911)
(9.199 0 1.62067)
(9.2998 0 1.56199)
(9.0577 0 1.82093)
(9.17109 0 1.75887)
(8.9047 0 2.03727)
(9.03166 0 1.9713)
(8.73964 0 2.2713)
(8.8813 0 2.20088)
(8.56199 0 2.52471)
(8.71968 0 2.44933)
(8.371 0 2.79934)
(8.5463 0 2.71849)
(8.16555 0 3.09716)
(8.36038 0 3.01041)
(7.94406 0 3.42036)
(8.16083 0 3.32735)
(7.70425 0 3.77142)
(7.946 0 3.67193)
(7.44283 0 4.15315)
(7.71354 0 4.04723)
(7.15507 0 4.56882)
(7.46 0 4.45692)
(6.83408 0 5.02216)
(7.18037 0 4.90551)
(6.46982 0 5.51731)
(6.86727 0 5.39851)
(6.0474 0 6.05841)
(6.50964 0 5.94265)
(5.5446 0 6.64851)
(6.09053 0 6.54584)
(4.92775 0 7.28691)
(5.58379 0 7.21652)
(4.14578 0 7.96157)
(4.94337 0 7.96147)
(3.12253 0 8.63408)
(4.1103 0 8.77591)
(1.7568 0 9.12879)
(2.8794 0 9.62172)
(1.36531 0 10.1866)
(9.98753 0 0.190811)
(9.99523 0 0.130269)
(9.96332 0 0.316726)
(9.97932 0 0.25884)
(9.92784 0 0.444047)
(9.95114 0 0.387891)
(9.88146 0 0.574518)
(9.91186 0 0.519314)
(9.82446 0 0.709711)
(9.86241 0 0.654747)
(9.75709 0 0.85112)
(9.80314 0 0.795719)
(9.67954 0 1.0002)
(9.73421 0 0.943713)
(9.59195 0 1.15838)
(9.65577 0 1.10018)
(9.49444 0 1.3271)
(9.56799 0 1.26656)
(9.38707 0 1.5078)
(9.471 0 1.44431)
(9.26986 0 1.70197)
(9.3649 0 1.63488)
(9.14279 0 1.91114)
(9.24976 0 1.83982)
(9.00576 0 2.13692)
(9.1256 0 2.0607)
(8.85858 0 2.38104)
(8.99237 0 2.29922)
(8.70094 0 2.64536)
(8.84997 0 2.5572)
(8.53234 0 2.93192)
(8.69812 0 2.83666)
(8.35199 0 3.24304)
(8.53642 0 3.13987)
(8.15873 0 3.58141)
(8.36416 0 3.46944)
(7.95082 0 3.95022)
(8.1803 0 3.82849)
(7.72572 0 4.35334)
(7.98323 0 4.22082)
(7.4797 0 4.79564)
(7.77062 0 4.65125)
(7.20718 0 5.28332)
(7.53896 0 5.12597)
(6.8998 0 5.82435)
(7.28304 0 5.65319)
(6.54459 0 6.42912)
(6.99487 0 6.24407)
(6.12083 0 7.11105)
(6.66175 0 6.91414)
(5.59378 0 7.88733)
(6.26313 0 7.68567)
(4.90189 0 8.77789)
(5.75857 0 8.59224)
(3.92808 0 9.80207)
(5.08877 0 9.68518)
(2.43429 0 10.8582)
(3.98127 0 11.0502)
(2.14754 0 12.5709)
(9.98861 0 0.199576)
(9.99567 0 0.135845)
(9.96651 0 0.331283)
(9.98123 0 0.269925)
(9.93419 0 0.464447)
(9.9557 0 0.404498)
(9.892 0 0.600855)
(9.92015 0 0.541509)
(9.84027 0 0.742104)
(9.8755 0 0.682621)
(9.77928 0 0.88971)
(9.82213 0 0.82938)
(9.70927 0 1.04515)
(9.76023 0 0.983287)
(9.63044 0 1.20989)
(9.69004 0 1.14581)
(9.54299 0 1.38538)
(9.61178 0 1.31841)
(9.44708 0 1.57308)
(9.52568 0 1.50255)
(9.34284 0 1.77453)
(9.43196 0 1.69971)
(9.23039 0 1.99128)
(9.3308 0 1.91145)
(9.1098 0 2.225)
(9.22239 0 2.13937)
(8.9811 0 2.4775)
(9.10688 0 2.38522)
(8.8442 0 2.75074)
(8.98438 0 2.65088)
(8.69895 0 3.04694)
(8.85496 0 2.93847)
(8.54497 0 3.36866)
(8.71858 0 3.2504)
(8.38168 0 3.71893)
(8.57508 0 3.58949)
(8.20812 0 4.10146)
(8.42413 0 3.95918)
(8.02284 0 4.5209)
(8.26516 0 4.36372)
(7.82365 0 4.98331)
(8.09726 0 4.80858)
(7.60727 0 5.49674)
(7.91909 0 5.30101)
(7.3687 0 6.07222)
(7.72867 0 5.85086)
(7.10002 0 6.72543)
(7.52315 0 6.47207)
(6.7881 0 7.4796)
(7.29831 0 7.18523)
(6.40942 0 8.3715)
(7.04874 0 8.02275)
(5.91698 0 9.46569)
(6.76429 0 9.04118)
(5.19817 0 10.9087)
(6.46415 0 10.3564)
(3.88696 0 13.1814)
(6.19381 0 12.3042)
(5.26574 0 16.3779)
(0.22789 0 -0.142578)
(0.130982 0 -0.223204)
(0.441465 0 -0.120941)
(0.31521 0 -0.204244)
(0.621192 0 -0.0961944)
(0.501458 0 -0.167814)
(0.769262 0 -0.0754128)
(0.663462 0 -0.134991)
(0.891341 0 -0.0590543)
(0.797244 0 -0.108666)
(0.99268 0 -0.0463897)
(0.908015 0 -0.0880752)
(1.07774 0 -0.0366888)
(1.00151 0 -0.0721796)
(1.15025 0 -0.0293261)
(1.08203 0 -0.0600792)
(1.21321 0 -0.0237407)
(1.15272 0 -0.0509289)
(1.26883 0 -0.0194323)
(1.21592 0 -0.0439374)
(1.31862 0 -0.0159763)
(1.27333 0 -0.0384007)
(1.36343 0 -0.0130473)
(1.32603 0 -0.0337358)
(1.4036 0 -0.0104423)
(1.37456 0 -0.0295371)
(1.4393 0 -0.00806743)
(1.4191 0 -0.0256238)
(1.47064 0 -0.00583619)
(1.45972 0 -0.0219716)
(1.49761 0 -0.00351536)
(1.49658 0 -0.0184514)
(1.51938 0 -0.000703047)
(1.52974 0 -0.0145495)
(1.53404 0 0.00285283)
(1.55856 0 -0.00956236)
(1.5396 0 0.00668105)
(1.5813 0 -0.00354251)
(1.53559 0 0.00962488)
(1.59602 0 0.00249665)
(1.52458 0 0.0108463)
(1.60258 0 0.00668475)
(1.51085 0 0.0103216)
(1.6039 0 0.00813844)
(1.49654 0 0.00853299)
(1.60365 0 0.00828481)
(1.48336 0 0.00603339)
(1.60363 0 0.00744893)
(1.47369 0 0.0030059)
(1.60479 0 0.00533655)
(1.47029 0 -0.000416982)
(1.60855 0 0.00183431)
(1.47612 0 -0.00381868)
(1.61661 0 -0.00306881)
(1.49211 0 -0.00661545)
(1.6299 0 -0.00821221)
(1.51657 0 -0.00784528)
(1.64848 0 -0.0122715)
(1.67694 0 -0.0131664)
(0.198827 0 -0.319215)
(0.101069 0 -0.417943)
(0.391343 0 -0.280299)
(0.266207 0 -0.388347)
(0.556693 0 -0.229319)
(0.422699 0 -0.322205)
(0.696012 0 -0.185433)
(0.560114 0 -0.262003)
(0.814236 0 -0.15069)
(0.67505 0 -0.213901)
(0.915826 0 -0.123766)
(0.772103 0 -0.176368)
(1.00445 0 -0.103158)
(0.855674 0 -0.147381)
(1.08308 0 -0.0875353)
(0.929028 0 -0.12523)
(1.15409 0 -0.0756877)
(0.99458 0 -0.108376)
(1.21927 0 -0.0665229)
(1.05417 0 -0.095419)
(1.27984 0 -0.0590983)
(1.10915 0 -0.0851112)
(1.33649 0 -0.0526797)
(1.16041 0 -0.0763961)
(1.3895 0 -0.0468223)
(1.20839 0 -0.0685136)
(1.43898 0 -0.0413783)
(1.25312 0 -0.0611374)
(1.48515 0 -0.0362862)
(1.29453 0 -0.0543345)
(1.5285 0 -0.0311605)
(1.3328 0 -0.0481164)
(1.5692 0 -0.0251394)
(1.36854 0 -0.0417467)
(1.60633 0 -0.017561)
(1.40224 0 -0.0337837)
(1.63765 0 -0.00911144)
(1.43311 0 -0.0234902)
(1.66167 0 -0.00170266)
(1.4587 0 -0.0124451)
(1.67991 0 0.00357112)
(1.47707 0 -0.00438915)
(1.69547 0 0.00709814)
(1.49068 0 -0.0010902)
(1.71009 0 0.00894764)
(1.50303 0 -0.000178786)
(1.72443 0 0.0084595)
(1.51433 0 -0.000654501)
(1.7391 0 0.00541485)
(1.52371 0 -0.00276025)
(1.75457 0 0.000340472)
(1.53119 0 -0.00650172)
(1.77012 0 -0.00602848)
(1.53671 0 -0.0112531)
(1.78631 0 -0.0128356)
(1.53992 0 -0.0165255)
(1.8046 0 -0.0176713)
(1.54169 0 -0.0214478)
(1.54559 0 -0.0218383)
(0.158896 0 -0.49579)
(0.0724782 0 -0.573572)
(0.309117 0 -0.439147)
(0.203319 0 -0.532004)
(0.436158 0 -0.363017)
(0.313765 0 -0.440826)
(0.542855 0 -0.29731)
(0.411716 0 -0.359275)
(0.633409 0 -0.245121)
(0.492121 0 -0.294506)
(0.711219 0 -0.20443)
(0.559753 0 -0.243994)
(0.77908 0 -0.173023)
(0.617489 0 -0.204967)
(0.839223 0 -0.148947)
(0.667504 0 -0.17506)
(0.893408 0 -0.130456)
(0.711492 0 -0.152211)
(0.942995 0 -0.115976)
(0.750782 0 -0.134586)
(0.988938 0 -0.104122)
(0.7864 0 -0.120543)
(1.03175 0 -0.0937778)
(0.81907 0 -0.108632)
(1.07151 0 -0.084254)
(0.849204 0 -0.0977479)
(1.10808 0 -0.0754035)
(0.87674 0 -0.0873902)
(1.14154 0 -0.0673806)
(0.901218 0 -0.0777863)
(1.17261 0 -0.0598718)
(0.922221 0 -0.069376)
(1.20215 0 -0.0513955)
(0.940337 0 -0.0614832)
(1.22992 0 -0.0400283)
(0.957548 0 -0.0519011)
(1.25385 0 -0.0263337)
(0.975146 0 -0.0387382)
(1.2719 0 -0.0149891)
(0.991255 0 -0.0236663)
(1.28555 0 -0.00975691)
(0.992947 0 -0.0126824)
(1.297 0 -0.00927607)
(0.978155 0 -0.00787437)
(1.30626 0 -0.0107281)
(0.959874 0 -0.005541)
(1.31255 0 -0.0131305)
(0.941822 0 -0.00420896)
(1.31513 0 -0.0160758)
(0.923619 0 -0.00418475)
(1.31325 0 -0.018884)
(0.906393 0 -0.0054894)
(1.30619 0 -0.0213638)
(0.89456 0 -0.00754174)
(1.29478 0 -0.0235328)
(0.883407 0 -0.0106642)
(1.28116 0 -0.0242467)
(0.873949 0 -0.0146145)
(0.868247 0 -0.0207119)
(0.116286 0 -0.622568)
(0.0449445 0 -0.687467)
(0.217036 0 -0.546881)
(0.133553 0 -0.628352)
(0.297629 0 -0.450186)
(0.190075 0 -0.516077)
(0.364039 0 -0.368573)
(0.243289 0 -0.41982)
(0.419355 0 -0.304139)
(0.282515 0 -0.343744)
(0.465752 0 -0.25392)
(0.314041 0 -0.284319)
(0.50506 0 -0.215116)
(0.338863 0 -0.238323)
(0.538707 0 -0.1853)
(0.358206 0 -0.202938)
(0.567837 0 -0.162354)
(0.373106 0 -0.175776)
(0.593383 0 -0.144387)
(0.3844 0 -0.154764)
(0.616067 0 -0.129696)
(0.392804 0 -0.138037)
(0.63635 0 -0.116828)
(0.398989 0 -0.123905)
(0.65428 0 -0.104795)
(0.403642 0 -0.11093)
(0.669422 0 -0.0933563)
(0.406796 0 -0.0982601)
(0.681218 0 -0.0829818)
(0.40779 0 -0.0860539)
(0.689999 0 -0.0740622)
(0.40505 0 -0.0753856)
(0.697412 0 -0.0658776)
(0.396273 0 -0.0664365)
(0.705367 0 -0.0563048)
(0.384368 0 -0.0570908)
(0.712152 0 -0.0427396)
(0.369738 0 -0.0430603)
(0.707574 0 -0.0257394)
(0.355891 0 -0.0208189)
(0.68212 0 -0.0105852)
(0.337372 0 0.00277497)
(0.640004 0 -0.00119398)
(0.308928 0 0.0170963)
(0.593712 0 0.00393775)
(0.277303 0 0.0212577)
(0.550612 0 0.0070671)
(0.247306 0 0.0201528)
(0.514714 0 0.00814158)
(0.219137 0 0.0156268)
(0.488646 0 0.00652314)
(0.195035 0 0.00855727)
(0.470817 0 0.00250872)
(0.18357 0 0.00183848)
(0.461306 0 -0.00327517)
(0.177523 0 -0.00577835)
(0.461084 0 -0.0120905)
(0.175634 0 -0.0145029)
(0.177433 0 -0.0254857)
(0.0678469 0 -0.702728)
(0.0163132 0 -0.753919)
(0.113619 0 -0.607232)
(0.0557828 0 -0.672124)
(0.143388 0 -0.494902)
(0.0536483 0 -0.543873)
(0.164488 0 -0.403088)
(0.058433 0 -0.439056)
(0.178802 0 -0.330775)
(0.0516717 0 -0.356485)
(0.187498 0 -0.274346)
(0.0417851 0 -0.291877)
(0.191558 0 -0.230642)
(0.0279926 0 -0.241769)
(0.191788 0 -0.196961)
(0.0110895 0 -0.203129)
(0.188859 0 -0.171006)
(-0.00832052 0 -0.173407)
(0.183345 0 -0.15076)
(-0.0297457 0 -0.150409)
(0.17579 0 -0.134386)
(-0.0526951 0 -0.13221)
(0.166708 0 -0.120185)
(-0.076521 0 -0.117067)
(0.156477 0 -0.106762)
(-0.100342 0 -0.103408)
(0.144998 0 -0.0934173)
(-0.123615 0 -0.0900202)
(0.131165 0 -0.0803109)
(-0.146295 0 -0.076358)
(0.112265 0 -0.0677038)
(-0.16941 0 -0.0624519)
(0.0858726 0 -0.0545634)
(-0.195556 0 -0.0488015)
(0.0518205 0 -0.0378273)
(-0.223144 0 -0.0348753)
(0.0138565 0 -0.0151236)
(-0.252566 0 -0.0188777)
(-0.0193053 0 0.00936142)
(-0.279162 0 -0.000194152)
(-0.040999 0 0.0267352)
(-0.294496 0 0.0159486)
(-0.0566608 0 0.0333977)
(-0.304933 0 0.0263823)
(-0.0723735 0 0.0321915)
(-0.314742 0 0.0303539)
(-0.0876592 0 0.0259426)
(-0.323927 0 0.0287928)
(-0.100328 0 0.0160017)
(-0.333605 0 0.0226187)
(-0.108788 0 0.00492262)
(-0.343012 0 0.0131158)
(-0.110696 0 -0.00498667)
(-0.347031 0 0.00284239)
(-0.109328 0 -0.0144369)
(-0.347614 0 -0.00648088)
(-0.105407 0 -0.0251288)
(-0.348615 0 -0.0164698)
(-0.351269 0 -0.0269759)
(0.0113877 0 -0.729208)
(-0.015715 0 -0.765073)
(-0.000824971 0 -0.613677)
(-0.0313434 0 -0.660445)
(-0.0245103 0 -0.490131)
(-0.091744 0 -0.521758)
(-0.0516458 0 -0.392889)
(-0.139355 0 -0.414317)
(-0.0828542 0 -0.31639)
(-0.193738 0 -0.328705)
(-0.116692 0 -0.257034)
(-0.247249 0 -0.262468)
(-0.152447 0 -0.211255)
(-0.300445 0 -0.211428)
(-0.189503 0 -0.176053)
(-0.352475 0 -0.172426)
(-0.22744 0 -0.148867)
(-0.402723 0 -0.142716)
(-0.265933 0 -0.127563)
(-0.450784 0 -0.120005)
(-0.304573 0 -0.110341)
(-0.496429 0 -0.102411)
(-0.342772 0 -0.095635)
(-0.539425 0 -0.0883028)
(-0.379738 0 -0.0821517)
(-0.579435 0 -0.0762299)
(-0.414599 0 -0.0690246)
(-0.616057 0 -0.0649948)
(-0.446707 0 -0.0559638)
(-0.649009 0 -0.053854)
(-0.47573 0 -0.0431438)
(-0.678363 0 -0.0425904)
(-0.502028 0 -0.0306022)
(-0.704444 0 -0.0312297)
(-0.52572 0 -0.0178879)
(-0.727257 0 -0.0194185)
(-0.545368 0 -0.00472055)
(-0.746092 0 -0.00636256)
(-0.557301 0 0.00888441)
(-0.758835 0 0.00722765)
(-0.56332 0 0.0212959)
(-0.764085 0 0.0196034)
(-0.566967 0 0.029207)
(-0.767149 0 0.0285446)
(-0.570012 0 0.0309489)
(-0.768563 0 0.0321171)
(-0.573038 0 0.0271988)
(-0.76972 0 0.0305029)
(-0.576316 0 0.0196452)
(-0.771953 0 0.0244278)
(-0.580258 0 0.0102849)
(-0.775637 0 0.0152402)
(-0.584463 0 0.000223395)
(-0.779677 0 0.00505427)
(-0.586963 0 -0.0104792)
(-0.782835 0 -0.00519655)
(-0.588047 0 -0.0212021)
(-0.788131 0 -0.0159261)
(-0.793344 0 -0.0265975)
(-0.0481014 0 -0.694171)
(-0.0533077 0 -0.71796)
(-0.121367 0 -0.563631)
(-0.125888 0 -0.590381)
(-0.198761 0 -0.438071)
(-0.242068 0 -0.449493)
(-0.277859 0 -0.340777)
(-0.342492 0 -0.342207)
(-0.355237 0 -0.265459)
(-0.441144 0 -0.259828)
(-0.429624 0 -0.207992)
(-0.532658 0 -0.197817)
(-0.500047 0 -0.16456)
(-0.616607 0 -0.151668)
(-0.565731 0 -0.132123)
(-0.692642 0 -0.118004)
(-0.626162 0 -0.108055)
(-0.760844 0 -0.0938291)
(-0.681163 0 -0.0901351)
(-0.821551 0 -0.076562)
(-0.730835 0 -0.0765051)
(-0.875353 0 -0.0641026)
(-0.775404 0 -0.065579)
(-0.92289 0 -0.0547424)
(-0.815073 0 -0.0560238)
(-0.964714 0 -0.047065)
(-0.849965 0 -0.0468463)
(-1.00125 0 -0.0399478)
(-0.880203 0 -0.0374801)
(-1.0329 0 -0.0326601)
(-0.906058 0 -0.0277031)
(-1.0601 0 -0.0248967)
(-0.927997 0 -0.0173581)
(-1.0833 0 -0.0165706)
(-0.946335 0 -0.00625171)
(-1.10278 0 -0.00745534)
(-0.959916 0 0.00530212)
(-1.11784 0 0.00228854)
(-0.967805 0 0.0162092)
(-1.12696 0 0.0121341)
(-0.971049 0 0.0250918)
(-1.13164 0 0.0215732)
(-0.971327 0 0.0303786)
(-1.13305 0 0.0287095)
(-0.970748 0 0.0310206)
(-1.13265 0 0.0317819)
(-0.970562 0 0.0271514)
(-1.13205 0 0.030398)
(-0.971561 0 0.0197318)
(-1.13257 0 0.0249794)
(-0.974289 0 0.0103613)
(-1.13486 0 0.0167099)
(-0.978295 0 0.00036487)
(-1.13875 0 0.00716199)
(-0.982757 0 -0.0102111)
(-1.14368 0 -0.0029045)
(-0.986898 0 -0.0207674)
(-1.15058 0 -0.0138492)
(-1.15573 0 -0.0239095)
(-0.112401 0 -0.601111)
(-0.0971262 0 -0.60787)
(-0.244302 0 -0.46208)
(-0.226098 0 -0.464243)
(-0.375968 0 -0.339763)
(-0.396256 0 -0.326553)
(-0.501128 0 -0.248944)
(-0.543817 0 -0.228103)
(-0.615723 0 -0.182166)
(-0.679267 0 -0.157824)
(-0.718221 0 -0.133854)
(-0.798519 0 -0.108735)
(-0.808621 0 -0.0993717)
(-0.901873 0 -0.0749552)
(-0.887551 0 -0.075291)
(-0.989272 0 -0.0526081)
(-0.9561 0 -0.0588758)
(-1.06328 0 -0.0383748)
(-1.01552 0 -0.0477994)
(-1.12617 0 -0.0296297)
(-1.06704 0 -0.0401839)
(-1.17996 0 -0.0243704)
(-1.11173 0 -0.0345371)
(-1.22627 0 -0.0210921)
(-1.15043 0 -0.0296724)
(-1.26631 0 -0.0186104)
(-1.1838 0 -0.0247169)
(-1.30091 0 -0.0159897)
(-1.21241 0 -0.0191671)
(-1.33075 0 -0.0126126)
(-1.23675 0 -0.0128604)
(-1.35634 0 -0.00823702)
(-1.25719 0 -0.00582354)
(-1.37802 0 -0.00291314)
(-1.27334 0 0.0018834)
(-1.39582 0 0.00308355)
(-1.28485 0 0.0101981)
(-1.4093 0 0.00961866)
(-1.29217 0 0.0186095)
(-1.41845 0 0.0166846)
(-1.29559 0 0.0258115)
(-1.42381 0 0.0236506)
(-1.29613 0 0.0302358)
(-1.42601 0 0.0290329)
(-1.29556 0 0.0308948)
(-1.42641 0 0.0314478)
(-1.29528 0 0.02768)
(-1.42653 0 0.0302392)
(-1.29628 0 0.0212433)
(-1.42757 0 0.0255317)
(-1.2991 0 0.0127777)
(-1.43028 0 0.0182303)
(-1.30364 0 0.00324551)
(-1.43497 0 0.00954907)
(-1.30929 0 -0.00718042)
(-1.44155 0 -1.06834e-06)
(-1.316 0 -0.0173222)
(-1.44955 0 -0.0104849)
(-1.45468 0 -0.0192591)
(-0.181553 0 -0.450422)
(-0.149547 0 -0.43005)
(-0.37227 0 -0.312693)
(-0.340943 0 -0.281859)
(-0.553806 0 -0.204409)
(-0.567222 0 -0.15705)
(-0.717235 0 -0.129497)
(-0.750998 0 -0.0791107)