/*--------------------------------*- C++ -*----------------------------------*\
  =========                 |
  \\      /  F ield         | OpenFOAM: The Open Source CFD Toolbox
   \\    /   O peration     | Website:  https://openfoam.org
    \\  /    A nd           | Version:  dev
     \\/     M anipulation  |
\*---------------------------------------------------------------------------*/
FoamFile
{
    version     2.0;
    format      ascii;
    class       volVectorField;
    location    "0.3";
    object      U;
}
// * * * * * * * * * * * * * * * * * * * * * * * * * * * * * * * * * * * * * //

dimensions      [0 1 -1 0 0 0 0];

internalField   nonuniform List<vector> 
2790
(
(9.94427 0 0.0203546)
(9.87699 0 0.0292199)
(9.77832 0 0.0353981)
(9.65525 0 0.0417165)
(9.51349 0 0.0482699)
(9.35396 0 0.0550043)
(9.1759 0 0.0620452)
(8.97847 0 0.0695461)
(8.7609 0 0.0776311)
(8.52233 0 0.086402)
(8.26171 0 0.095949)
(7.97789 0 0.10635)
(7.66968 0 0.117663)
(7.33595 0 0.12992)
(6.97572 0 0.143113)
(6.58827 0 0.157178)
(6.1733 0 0.171984)
(5.73106 0 0.187302)
(5.26264 0 0.202788)
(4.77008 0 0.217957)
(4.25672 0 0.232158)
(3.72732 0 0.24456)
(3.18837 0 0.254138)
(2.6482 0 0.259692)
(2.11708 0 0.259874)
(1.60722 0 0.253249)
(1.13263 0 0.238365)
(0.70937 0 0.213618)
(0.340841 0 0.178709)
(0.124004 0 0.116418)
(9.99879 0 0.0401794)
(9.98273 0 0.0612699)
(9.93888 0 0.0773756)
(9.87003 0 0.0941453)
(9.78046 0 0.111863)
(9.67117 0 0.130371)
(9.54157 0 0.149919)
(9.39087 0 0.170853)
(9.21829 0 0.193461)
(9.02294 0 0.217983)
(8.80371 0 0.244632)
(8.55936 0 0.273585)
(8.28854 0 0.304969)
(7.98991 0 0.338831)
(7.66219 0 0.375111)
(7.30424 0 0.413603)
(6.91524 0 0.453904)
(6.49479 0 0.495374)
(6.04312 0 0.53707)
(5.56128 0 0.577707)
(5.05134 0 0.615605)
(4.51662 0 0.648674)
(3.96189 0 0.674422)
(3.39347 0 0.690013)
(2.81928 0 0.692392)
(2.24871 0 0.678476)
(1.69215 0 0.645454)
(1.16109 0 0.591059)
(0.651978 0 0.515886)
(0.265864 0 0.395486)
(9.99587 0 0.0423213)
(9.9768 0 0.0734059)
(9.93483 0 0.100397)
(9.87055 0 0.12823)
(9.78688 0 0.157616)
(9.68493 0 0.188533)
(9.56441 0 0.221326)
(9.42471 0 0.25649)
(9.26517 0 0.294484)
(9.08501 0 0.335718)
(8.88325 0 0.380568)
(8.65873 0 0.429368)
(8.41015 0 0.48238)
(8.13611 0 0.539757)
(7.83516 0 0.601494)
(7.5059 0 0.667365)
(7.14701 0 0.736856)
(6.75742 0 0.809077)
(6.33641 0 0.882681)
(5.88382 0 0.955774)
(5.40018 0 1.02585)
(4.88697 0 1.08972)
(4.34677 0 1.1436)
(3.78347 0 1.18312)
(3.20232 0 1.20362)
(2.60988 0 1.20055)
(2.01365 0 1.17016)
(1.42292 0 1.11044)
(0.829363 0 1.02518)
(0.343949 0 0.88784)
(9.9943 0 0.0482721)
(9.97303 0 0.0906247)
(9.93087 0 0.129501)
(9.86782 0 0.168507)
(9.7859 0 0.208959)
(9.68613 0 0.251265)
(9.56847 0 0.295956)
(9.43246 0 0.343693)
(9.2776 0 0.395122)
(9.10328 0 0.45084)
(8.90871 0 0.511408)
(8.69296 0 0.577344)
(8.45492 0 0.649089)
(8.19341 0 0.726965)
(7.90711 0 0.811114)
(7.59468 0 0.901426)
(7.25472 0 0.997444)
(6.8859 0 1.09826)
(6.487 0 1.2024)
(6.05703 0 1.30769)
(5.59538 0 1.41116)
(5.10198 0 1.50898)
(4.57751 0 1.59641)
(4.02358 0 1.66797)
(3.44296 0 1.71765)
(2.83972 0 1.73952)
(2.21896 0 1.72862)
(1.58904 0 1.6822)
(0.937451 0 1.60497)
(0.388449 0 1.46374)
(9.99358 0 0.0556469)
(9.97115 0 0.107663)
(9.92888 0 0.156909)
(9.86696 0 0.206081)
(9.78682 0 0.256848)
(9.6893 0 0.309986)
(9.57438 0 0.366181)
(9.44172 0 0.426195)
(9.29086 0 0.490793)
(9.12127 0 0.560703)
(8.93227 0 0.636618)
(8.72301 0 0.719187)
(8.49256 0 0.808987)
(8.23984 0 0.906481)
(7.9637 0 1.01195)
(7.66285 0 1.12543)
(7.33594 0 1.2466)
(6.98154 0 1.37464)
(6.59817 0 1.50815)
(6.18434 0 1.64495)
(5.73865 0 1.78197)
(5.25988 0 1.91507)
(4.74719 0 2.03905)
(4.20036 0 2.14768)
(3.62011 0 2.23394)
(3.00839 0 2.29059)
(2.36848 0 2.3112)
(1.70863 0 2.29141)
(1.01259 0 2.23514)
(0.417392 0 2.10016)
(9.99328 0 0.0636367)
(9.97042 0 0.124702)
(9.92847 0 0.183815)
(9.86795 0 0.243045)
(9.78998 0 0.304083)
(9.69517 0 0.36793)
(9.58353 0 0.435407)
(9.45476 0 0.507374)
(9.30844 0 0.584709)
(9.14409 0 0.668271)
(8.96105 0 0.758884)
(8.75857 0 0.857336)
(8.53575 0 0.964346)
(8.29158 0 1.08052)
(8.02493 0 1.20631)
(7.73456 0 1.34191)
(7.41906 0 1.48716)
(7.07691 0 1.64147)
(6.70639 0 1.80362)
(6.30561 0 1.97162)
(5.87254 0 2.14251)
(5.40504 0 2.31223)
(4.90106 0 2.47543)
(4.35882 0 2.62546)
(3.77726 0 2.75451)
(3.15661 0 2.85405)
(2.4985 0 2.9158)
(1.81162 0 2.93284)
(1.07617 0 2.90664)
(0.440841 0 2.784)
(9.99323 0 0.0718425)
(9.97044 0 0.141621)
(9.92924 0 0.210098)
(9.87041 0 0.278985)
(9.79497 0 0.349907)
(9.70335 0 0.424022)
(9.59554 0 0.502304)
(9.47129 0 0.585729)
(9.33023 0 0.675289)
(9.17191 0 0.771964)
(8.99572 0 0.876706)
(8.80092 0 0.990433)
(8.58665 0 1.114)
(8.35192 0 1.24818)
(8.09558 0 1.39356)
(7.81636 0 1.55054)
(7.51277 0 1.7192)
(7.1831 0 1.89919)
(6.8254 0 2.0896)
(6.43735 0 2.28878)
(6.01634 0 2.49414)
(5.55936 0 2.70193)
(5.06323 0 2.90697)
(4.52471 0 3.10254)
(3.94103 0 3.28025)
(3.31064 0 3.43027)
(2.63338 0 3.54209)
(1.91837 0 3.60525)
(1.14236 0 3.61701)
(0.465134 0 3.5112)
(9.99332 0 0.0800307)
(9.97096 0 0.158232)
(9.93088 0 0.235598)
(9.87408 0 0.313693)
(9.80151 0 0.394083)
(9.71352 0 0.478036)
(9.61008 0 0.566665)
(9.49097 0 0.661053)
(9.3559 0 0.762301)
(9.20442 0 0.871502)
(9.03598 0 0.989732)
(8.84988 0 1.11804)
(8.64529 0 1.25744)
(8.42121 0 1.40884)
(8.17651 0 1.57304)
(7.90983 0 1.75065)
(7.6196 0 1.94203)
(7.30393 0 2.14715)
(6.96057 0 2.36552)
(6.5868 0 2.59597)
(6.17939 0 2.83646)
(5.73448 0 3.08383)
(5.24769 0 3.33342)
(4.71424 0 3.57876)
(4.1294 0 3.81123)
(3.4894 0 4.01982)
(2.7917 0 4.1915)
(2.04508 0 4.31125)
(1.22252 0 4.3702)
(0.495334 0 4.2865)
(9.99351 0 0.0880517)
(9.97185 0 0.174365)
(9.93322 0 0.260168)
(9.87876 0 0.347003)
(9.8094 0 0.436408)
(9.72545 0 0.529726)
(9.62688 0 0.628185)
(9.51351 0 0.732975)
(9.38508 0 0.845298)
(9.24122 0 0.966356)
(9.08141 0 1.09735)
(8.90501 0 1.23946)
(8.71122 0 1.39384)
(8.4991 0 1.56159)
(8.2675 0 1.74371)
(8.01504 0 1.94108)
(7.74006 0 2.15435)
(7.44054 0 2.38391)
(7.11396 0 2.62977)
(6.75724 0 2.89141)
(6.36653 0 3.16754)
(5.93714 0 3.45586)
(5.4634 0 3.75264)
(4.93879 0 4.05215)
(4.35616 0 4.34605)
(3.70875 0 4.62261)
(2.99026 0 4.86627)
(2.20754 0 5.05661)
(1.32841 0 5.17608)
(0.536853 0 5.12293)
(9.99377 0 0.0958022)
(9.97301 0 0.189879)
(9.93611 0 0.283668)
(9.88427 0 0.378756)
(9.81846 0 0.476679)
(9.73894 0 0.578841)
(9.64569 0 0.686564)
(9.53859 0 0.801138)
(9.41743 0 0.923858)
(9.28189 0 1.05603)
(9.13153 0 1.19897)
(8.96577 0 1.354)
(8.78389 0 1.52242)
(8.58499 0 1.7055)
(8.36798 0 1.90448)
(8.13149 0 2.1205)
(7.87386 0 2.35459)
(7.59296 0 2.60759)
(7.28615 0 2.88013)
(6.95003 0 3.17243)
(6.58028 0 3.48422)
(6.17143 0 3.81437)
(5.71656 0 4.16055)
(5.20721 0 4.51847)
(4.63332 0 4.88096)
(3.984 0 5.23657)
(3.24717 0 5.56795)
(2.42459 0 5.84896)
(1.47541 0 6.05039)
(0.597297 0 6.04326)
(9.99408 0 0.103207)
(9.97439 0 0.204658)
(9.93945 0 0.30597)
(9.89051 0 0.408802)
(9.82853 0 0.514714)
(9.75378 0 0.625157)
(9.66627 0 0.741535)
(9.56591 0 0.865223)
(9.45258 0 0.997607)
(9.32601 0 1.14009)
(9.18585 0 1.29409)
(9.03161 0 1.46104)
(8.86265 0 1.64241)
(8.67818 0 1.83966)
(8.47719 0 2.05423)
(8.25841 0 2.28756)
(8.02023 0 2.54106)
(7.76057 0 2.8161)
(7.47677 0 3.11394)
(7.16532 0 3.43574)
(6.82163 0 3.78237)
(6.43966 0 4.15428)
(6.01148 0 4.55106)
(5.52673 0 4.97079)
(4.97213 0 5.40884)
(4.33154 0 5.85593)
(3.58439 0 6.29517)
(2.72217 0 6.69611)
(1.68741 0 7.0155)
(0.689692 0 7.08481)
(9.99444 0 0.110208)
(9.97593 0 0.218603)
(9.94315 0 0.326956)
(9.89734 0 0.437006)
(9.83945 0 0.550347)
(9.76979 0 0.668474)
(9.68838 0 0.792858)
(9.5952 0 0.924949)
(9.49018 0 1.06621)
(9.37315 0 1.21812)
(9.24386 0 1.38221)
(9.1019 0 1.56002)
(8.94678 0 1.75315)
(8.77783 0 1.96322)
(8.59419 0 2.19191)
(8.39475 0 2.44094)
(8.17806 0 2.71209)
(7.94223 0 3.00725)
(7.68475 0 3.32839)
(7.40226 0 3.67762)
(7.09023 0 4.05716)
(6.74249 0 4.46929)
(6.35058 0 4.91609)
(5.90282 0 5.39903)
(5.38302 0 5.91789)
(4.7693 0 6.46867)
(4.02997 0 7.03966)
(3.13881 0 7.60196)
(2.00568 0 8.10096)
(0.83967 0 8.31156)
(9.99482 0 0.116762)
(9.97761 0 0.231637)
(9.94715 0 0.346528)
(9.90467 0 0.463249)
(9.85111 0 0.583435)
(9.78679 0 0.708618)
(9.71179 0 0.840325)
(9.62615 0 0.980066)
(9.52986 0 1.12937)
(9.42286 0 1.28979)
(9.30499 0 1.46292)
(9.17599 0 1.65042)
(9.0355 0 1.85399)
(8.88302 0 2.07541)
(8.7179 0 2.31655)
(8.53925 0 2.57939)
(8.34591 0 2.86606)
(8.13629 0 3.17892)
(7.90828 0 3.52063)
(7.65896 0 3.89423)
(7.38429 0 4.30332)
(7.07861 0 4.75214)
(6.73383 0 5.24569)
(6.33818 0 5.78972)
(5.87412 0 6.39038)
(5.31546 0 7.05307)
(4.61904 0 7.7793)
(3.73344 0 8.55646)
(2.50736 0 9.33958)
(1.10367 0 9.84417)
(9.99524 0 0.122832)
(9.97939 0 0.243696)
(9.95138 0 0.3646)
(9.9124 0 0.487431)
(9.86336 0 0.613859)
(9.80461 0 0.74545)
(9.73628 0 0.883771)
(9.65847 0 1.03038)
(9.57125 0 1.18686)
(9.47468 0 1.35481)
(9.36869 0 1.5359)
(9.25318 0 1.73185)
(9.12796 0 1.94446)
(8.99273 0 2.17563)
(8.84709 0 2.42738)
(8.69044 0 2.70189)
(8.522 0 3.0016)
(8.34065 0 3.32924)
(8.14486 0 3.68806)
(7.93247 0 4.08193)
(7.70042 0 4.51565)
(7.44434 0 4.99531)
(7.15774 0 5.52878)
(6.8308 0 6.12641)
(6.44792 0 6.80197)
(5.98372 0 7.57392)
(5.3904 0 8.46699)
(4.59428 0 9.51117)
(3.34781 0 10.7397)
(1.62022 0 11.9476)
(9.99567 0 0.128391)
(9.98125 0 0.25473)
(9.9558 0 0.381104)
(9.92045 0 0.50946)
(9.87608 0 0.641501)
(9.82307 0 0.778817)
(9.76161 0 0.923007)
(9.69185 0 1.07566)
(9.61398 0 1.2384)
(9.52812 0 1.41286)
(9.43436 0 1.60074)
(9.33275 0 1.80383)
(9.22327 0 2.02398)
(9.10588 0 2.26317)
(8.98042 0 2.52351)
(8.84669 0 2.80735)
(8.70432 0 3.11729)
(8.55278 0 3.45637)
(8.39131 0 3.8282)
(8.21877 0 4.23725)
(8.03355 0 4.68918)
(7.83328 0 5.19145)
(7.61442 0 5.75409)
(7.37153 0 6.39118)
(7.09577 0 7.12317)
(6.77234 0 7.98138)
(6.36972 0 9.01763)
(5.83591 0 10.3275)
(4.87484 0 12.1471)
(2.78158 0 15.3108)
(-0.373627 0 0.419821)
(-1.00628 0 0.494366)
(-1.86551 0 0.521706)
(-2.78778 0 0.530001)
(-3.75912 0 0.523084)
(-4.75776 0 0.504701)
(-5.7632 0 0.477011)
(-6.75463 0 0.441208)
(-7.71004 0 0.397946)
(-8.60569 0 0.347618)
(-9.41606 0 0.290578)
(-10.114 0 0.227221)
(-10.6718 0 0.158213)
(-11.0615 0 0.0843359)
(-11.2573 0 0.00622665)
(-11.2385 0 -0.0761108)
(-10.9904 0 -0.160407)
(-10.5093 0 -0.241289)
(-9.80564 0 -0.31419)
(-8.90144 0 -0.375607)
(-7.82781 0 -0.423196)
(-6.62238 0 -0.455748)
(-5.32632 0 -0.472959)
(-3.98091 0 -0.475108)
(-2.62227 0 -0.463291)
(-1.25797 0 -0.441545)
(0.112039 0 -0.406716)
(1.33826 0 -0.37022)
(2.54722 0 -0.343471)
(4.05085 0 -0.360322)
(-0.488002 0 1.02064)
(-1.20736 0 1.15714)
(-2.10991 0 1.23386)
(-3.04579 0 1.28216)
(-4.0184 0 1.3016)
(-5.01123 0 1.29445)
(-6.00648 0 1.26196)
(-6.98451 0 1.20448)
(-7.92376 0 1.1218)
(-8.80051 0 1.01352)
(-9.58899 0 0.879475)
(-10.2617 0 0.720144)
(-10.7901 0 0.537217)
(-11.1462 0 0.333743)
(-11.3044 0 0.114178)
(-11.2428 0 -0.115853)
(-10.9563 0 -0.345171)
(-10.443 0 -0.560189)
(-9.71385 0 -0.750289)
(-8.79047 0 -0.90767)
(-7.70324 0 -1.02761)
(-6.48869 0 -1.1085)
(-5.18667 0 -1.15138)
(-3.8369 0 -1.15948)
(-2.47408 0 -1.13829)
(-1.09216 0 -1.09683)
(0.266917 0 -1.0283)
(1.49949 0 -0.953871)
(2.7024 0 -0.901722)
(4.18357 0 -0.924867)
(-0.516188 0 1.81585)
(-1.25917 0 1.98412)
(-2.16924 0 2.08472)
(-3.09098 0 2.14813)
(-4.03912 0 2.16882)
(-5.00058 0 2.14749)
(-5.96094 0 2.08468)
(-6.90299 0 1.98032)
(-7.80691 0 1.83384)
(-8.65016 0 1.64455)
(-9.40764 0 1.4123)
(-10.052 0 1.13814)
(-10.5544 0 0.825212)
(-10.8862 0 0.479334)
(-11.0206 0 0.109833)
(-10.9364 0 -0.270487)
(-10.6312 0 -0.646956)
(-10.1029 0 -0.998216)
(-9.36455 0 -1.30683)
(-8.439 0 -1.55993)
(-7.35708 0 -1.74976)
(-6.15508 0 -1.87394)
(-4.87217 0 -1.93484)
(-3.54747 0 -1.93935)
(-2.21511 0 -1.89887)
(-0.856629 0 -1.82181)
(0.433259 0 -1.70836)
(1.64166 0 -1.59112)
(2.79759 0 -1.50669)
(4.22543 0 -1.50647)
(-0.505906 0 2.6397)
(-1.23451 0 2.81915)
(-2.12323 0 2.92503)
(-3.00993 0 2.99047)
(-3.91815 0 3.00541)
(-4.8367 0 2.96831)
(-5.75424 0 2.87795)
(-6.65593 0 2.7329)
(-7.52352 0 2.53129)
(-8.33525 0 2.27126)
(-9.0659 0 1.95169)
(-9.68717 0 1.57314)
(-10.1687 0 1.13907)
(-10.4794 0 0.656971)
(-10.5907 0 0.139695)
(-10.481 0 -0.394961)
(-10.1548 0 -0.919778)
(-9.61087 0 -1.40657)
(-8.86457 0 -1.83217)
(-7.94 0 -2.17951)
(-6.8683 0 -2.43832)
(-5.68539 0 -2.60577)
(-4.42975 0 -2.68573)
(-3.13963 0 -2.6887)
(-1.84438 0 -2.63014)
(-0.530643 0 -2.51399)
(0.684402 0 -2.35518)
(1.8542 0 -2.19627)
(2.95232 0 -2.07633)
(4.30833 0 -2.04007)
(-0.474408 0 3.43405)
(-1.16093 0 3.61777)
(-2.00198 0 3.72297)
(-2.83343 0 3.78668)
(-3.68649 0 3.79498)
(-4.55044 0 3.74369)
(-5.41626 0 3.62903)
(-6.27073 0 3.44718)
(-7.0966 0 3.19409)
(-7.87234 0 2.8659)
(-8.57219 0 2.45996)
(-9.16653 0 1.97617)
(-9.62301 0 1.41882)
(-9.9083 0 0.79835)
(-9.99155 0 0.133261)
(-9.85549 0 -0.550402)
(-9.50815 0 -1.21715)
(-8.95108 0 -1.83172)
(-8.20199 0 -2.36593)
(-7.28571 0 -2.7993)
(-6.23315 0 -3.11942)
(-5.07945 0 -3.32355)
(-3.86216 0 -3.41729)
(-2.61842 0 -3.41483)
(-1.36995 0 -3.3335)
(-0.121568 0 -3.17369)
(1.0189 0 -2.97097)
(2.13589 0 -2.77313)
(3.16859 0 -2.61611)
(4.43804 0 -2.53668)
(-0.427417 0 4.16807)
(-1.04837 0 4.35666)
(-1.81793 0 4.46167)
(-2.57435 0 4.52471)
(-3.35557 0 4.52876)
(-4.15049 0 4.46714)
(-4.95198 0 4.33323)
(-5.74805 0 4.12046)
(-6.52226 0 3.82207)
(-7.25335 0 3.43177)
(-7.91513 0 2.94489)
(-8.4767 0 2.36013)
(-8.90345 0 1.68216)
(-9.15891 0 0.924409)
(-9.20937 0 0.11174)
(-9.04432 0 -0.719795)
(-8.67745 0 -1.52411)
(-8.11256 0 -2.25974)
(-7.3693 0 -2.8951)
(-6.47218 0 -3.40743)
(-5.45108 0 -3.78247)
(-4.33975 0 -4.01812)
(-3.17415 0 -4.12173)
(-1.98877 0 -4.1104)
(-0.794122 0 -3.99831)
(0.355291 0 -3.7959)
(1.43116 0 -3.55192)
(2.48266 0 -3.31597)
(3.44399 0 -3.11982)
(4.6151 0 -2.99243)
(-0.367611 0 4.81811)
(-0.901583 0 5.01482)
(-1.57762 0 5.12267)
(-2.23936 0 5.18856)
(-2.93075 0 5.19284)
(-3.63988 0 5.12642)
(-4.36151 0 4.97968)
(-5.08481 0 4.74299)
(-5.79435 0 4.40645)
(-6.46937 0 3.96073)
(-7.08353 0 3.39855)
(-7.60469 0 2.71686)
(-7.99537 0 1.9204)
(-8.215 0 1.02644)
(-8.22671 0 0.0679457)
(-8.03224 0 -0.906761)
(-7.64996 0 -1.84006)
(-7.0861 0 -2.68645)
(-6.36112 0 -3.41309)
(-5.49751 0 -3.99614)
(-4.52319 0 -4.4191)
(-3.4698 0 -4.68129)
(-2.37112 0 -4.79116)
(-1.25535 0 -4.76611)
(-0.137327 0 -4.61608)
(0.903512 0 -4.37604)
(1.91456 0 -4.09544)
(2.89004 0 -3.82106)
(3.77464 0 -3.584)
(4.8384 0 -3.40603)
(-0.297022 0 5.36279)
(-0.724132 0 5.57216)
(-1.28614 0 5.68698)
(-1.83386 0 5.76058)
(-2.41675 0 5.77089)
(-3.02183 0 5.70643)
(-3.64599 0 5.55445)
(-4.27973 0 5.30207)
(-4.90887 0 4.93589)
(-5.51359 0 4.44306)
(-6.06788 0 3.81304)
(-6.53874 0 3.04032)
(-6.88562 0 2.12912)
(-7.06316 0 1.10109)
(-7.03085 0 0.000755275)
(-6.80869 0 -1.10953)
(-6.41845 0 -2.15961)
(-5.86827 0 -3.10355)
(-5.17749 0 -3.90985)
(-4.36438 0 -4.5552)
(-3.45461 0 -5.01944)
(-2.47577 0 -5.30374)
(-1.45906 0 -5.41576)
(-0.422317 0 -5.36817)
(0.572906 0 -5.18477)
(1.53169 0 -4.91089)
(2.46282 0 -4.59755)
(3.35337 0 -4.28455)
(4.1558 0 -4.00559)
(5.10539 0 -3.77626)
(-0.217688 0 5.78278)
(-0.519688 0 6.01028)
(-0.949202 0 6.13662)
(-1.3645 0 6.22338)
(-1.82047 0 6.24611)
(-2.30276 0 6.19102)
(-2.81076 0 6.04218)
(-3.33643 0 5.78331)
(-3.86732 0 5.39723)
(-4.3852 0 4.86704)
(-4.86547 0 4.1783)
(-5.27534 0 3.3222)
(-5.57071 0 2.30161)
(-5.69852 0 1.14383)
(-5.61381 0 -0.0910566)
(-5.37031 0 -1.32505)
(-4.98388 0 -2.47485)
(-4.46376 0 -3.50042)
(-3.82587 0 -4.37391)
(-3.08161 0 -5.07316)
(-2.25582 0 -5.57296)
(-1.36651 0 -5.87524)
(-0.443928 0 -5.98207)
(0.471151 0 -5.91041)
(1.35827 0 -5.70039)
(2.2298 0 -5.39889)
(3.06959 0 -5.05354)
(3.86703 0 -4.70263)
(4.58187 0 -4.38195)
(5.41227 0 -4.1023)
(-0.132064 0 6.06149)
(-0.292771 0 6.31322)
(-0.574283 0 6.45554)
(-0.840691 0 6.56074)
(-1.15277 0 6.6022)
(-1.49429 0 6.56398)
(-1.8676 0 6.42687)
(-2.26616 0 6.1712)
(-2.67962 0 5.77589)
(-3.09208 0 5.21978)
(-3.48174 0 4.48389)
(-3.81807 0 3.55542)
(-4.05319 0 2.43457)
(-4.12087 0 1.15385)
(-3.97494 0 -0.207587)
(-3.72392 0 -1.54626)
(-3.35868 0 -2.77317)
(-2.88846 0 -3.8637)
(-2.32336 0 -4.79368)
(-1.66492 0 -5.53973)
(-0.942078 0 -6.06876)
(-0.152622 0 -6.38391)
(0.637113 0 -6.47878)
(1.42999 0 -6.39157)
(2.21848 0 -6.16113)
(2.98897 0 -5.83502)
(3.72753 0 -5.45873)
(4.42421 0 -5.07166)
(5.0463 0 -4.71082)
(5.75401 0 -4.38358)
(-0.0434594 0 6.18524)
(-0.0492098 0 6.46819)
(-0.171249 0 6.63104)
(-0.27534 0 6.75955)
(-0.429372 0 6.82574)
(-0.614396 0 6.81141)
(-0.836391 0 6.69371)
(-1.08997 0 6.44965)
(-1.3669 0 6.05528)
(-1.6539 0 5.48472)
(-1.93347 0 4.71221)
(-2.18019 0 3.71999)
(-2.34198 0 2.50723)
(-2.32934 0 1.11565)
(-2.12365 0 -0.346694)
(-1.8896 0 -1.76108)
(-1.56954 0 -3.04072)
(-1.17182 0 -4.18034)
(-0.697453 0 -5.15734)
(-0.138012 0 -5.94761)
(0.46972 0 -6.49636)
(1.1142 0 -6.81163)
(1.78391 0 -6.90628)
(2.46464 0 -6.80966)
(3.14083 0 -6.56288)
(3.79913 0 -6.21368)
(4.42752 0 -5.80868)
(5.01669 0 -5.38844)
(5.54151 0 -4.99037)
(6.12459 0 -4.6198)
(0.0471375 0 6.14731)
(0.203527 0 6.46579)
(0.249512 0 6.65397)
(0.31413 0 6.80833)
(0.328443 0 6.90492)
(0.311147 0 6.92273)
(0.253068 0 6.83552)
(0.159558 0 6.61714)
(0.0356987 0 6.23682)
(-0.108219 0 5.66643)
(-0.259294 0 4.88161)
(-0.401218 0 3.86061)
(-0.472284 0 2.59561)
(-0.325312 0 1.10873)
(-0.0998765 0 -0.470562)
(0.0903079 0 -1.95153)
(0.339506 0 -3.27316)
(0.645001 0 -4.4486)
(1.01552 0 -5.45733)
(1.44521 0 -6.26208)
(1.92792 0 -6.83564)
(2.45193 0 -7.16704)
(3.00035 0 -7.26481)
(3.55795 0 -7.16094)
(4.11094 0 -6.89953)
(4.64774 0 -6.52979)
(5.15852 0 -6.09954)
(5.6349 0 -5.65029)
(6.05903 0 -5.21928)
(6.51707 0 -4.81098)
(0.146287 0 5.93861)
(0.46636 0 6.30332)
(0.682498 0 6.52059)
(0.914821 0 6.70042)
(1.1018 0 6.83066)
(1.25471 0 6.88439)
(1.36433 0 6.83074)
(1.43635 0 6.6405)
(1.47623 0 6.2815)
(1.49141 0 5.7245)
(1.49206 0 4.94084)
(1.49602 0 3.89844)
(1.57729 0 2.57884)
(1.80427 0 1.04832)
(2.0038 0 -0.533845)
(2.1248 0 -2.02705)
(2.28143 0 -3.39791)
(2.49142 0 -4.61794)
(2.75743 0 -5.66689)
(3.07711 0 -6.50839)
(3.44317 0 -7.10662)
(3.8435 0 -7.44978)
(4.26341 0 -7.54973)
(4.68977 0 -7.43983)
(5.1116 0 -7.16612)
(5.52007 0 -6.77937)
(5.90794 0 -6.32841)
(6.26811 0 -5.85536)
(6.58957 0 -5.39686)
(6.9239 0 -4.95755)
(0.268732 0 5.54086)
(0.745286 0 5.99197)
(1.12081 0 6.22965)
(1.5184 0 6.43216)
(1.87885 0 6.60202)
(2.1987 0 6.69786)
(2.47211 0 6.68207)
(2.70651 0 6.52284)
(2.90861 0 6.18752)
(3.08574 0 5.6456)
(3.24752 0 4.86464)
(3.41116 0 3.81122)
(3.61682 0 2.48554)
(3.86035 0 0.969505)
(4.03831 0 -0.607122)
(4.12289 0 -2.11179)
(4.21076 0 -3.49642)
(4.33718 0 -4.74234)
(4.5105 0 -5.82078)
(4.72846 0 -6.68777)
(4.98187 0 -7.30443)
(5.2587 0 -7.65678)
(5.54712 0 -7.7579)
(5.83774 0 -7.64285)
(6.12368 0 -7.35953)
(6.39981 0 -6.95997)
(6.66199 0 -6.49366)
(6.90483 0 -6.00292)
(7.12345 0 -5.52332)
(7.33722 0 -5.06049)
(0.448556 0 4.90257)
(1.05133 0 5.57948)
(1.54703 0 5.80025)
(2.11649 0 6.01618)
(2.65064 0 6.23087)
(3.12772 0 6.37419)
(3.55277 0 6.4002)
(3.93768 0 6.27532)
(4.29062 0 5.96694)
(4.61865 0 5.44318)
(4.92948 0 4.67046)
(5.23071 0 3.62154)
(5.52261 0 2.31417)
(5.79239 0 0.834271)
(5.95979 0 -0.691716)
(6.01814 0 -2.16609)
(6.05936 0 -3.54934)
(6.12672 0 -4.81454)
(6.22925 0 -5.91745)
(6.361 0 -6.80408)
(6.51069 0 -7.43256)
(6.66778 0 -7.78905)
(6.82499 0 -7.88875)
(6.97854 0 -7.7688)
(7.127 0 -7.4786)
(7.26984 0 -7.07093)
(7.40641 0 -6.59528)
(7.53329 0 -6.09358)
(7.65094 0 -5.59994)
(7.74924 0 -5.12149)
(9.99612 0 0.133508)
(9.98321 0 0.264882)
(9.96045 0 0.396274)
(9.9289 0 0.529675)
(9.88943 0 0.666812)
(9.84244 0 0.809292)
(9.78817 0 0.958731)
(9.72687 0 1.11674)
(9.6588 0 1.28495)
(9.58421 0 1.46502)
(9.50332 0 1.65868)
(9.41634 0 1.86771)
(9.32348 0 2.09402)
(9.22492 0 2.33959)
(9.12085 0 2.60661)
(9.01144 0 2.89744)
(8.89684 0 3.21481)
(8.7772 0 3.56184)
(8.65264 0 3.94231)
(8.52329 0 4.36092)
(8.38928 0 4.82368)
(8.25084 0 5.33853)
(8.10842 0 5.91632)
(7.96304 0 6.57245)
(7.81716 0 7.32965)
(7.67777 0 8.22352)
(7.56284 0 9.31357)
(7.57223 0 10.704)
(8.1656 0 12.5584)
(8.51589 0 15.5116)
(9.99659 0 0.13819)
(9.98527 0 0.274155)
(9.96533 0 0.410091)
(9.93775 0 0.548017)
(9.90337 0 0.689677)
(9.86261 0 0.836684)
(9.81579 0 0.99066)
(9.76321 0 1.15322)
(9.70523 0 1.32599)
(9.64223 0 1.51063)
(9.57455 0 1.70887)
(9.50261 0 1.92247)
(9.4268 0 2.15333)
(9.34759 0 2.40341)
(9.26549 0 2.67486)
(9.18108 0 2.97003)
(9.09505 0 3.29156)
(9.00823 0 3.64251)
(8.92167 0 4.02656)
(8.83678 0 4.44819)
(8.75549 0 4.91308)
(8.68062 0 5.4286)
(8.61656 0 6.00452)
(8.57058 0 6.65406)
(8.55548 0 7.3954)
(8.59609 0 8.25344)
(8.7367 0 9.2605)
(9.03779 0 10.4524)
(9.79628 0 11.7709)
(10.4202 0 12.8851)
(9.99709 0 0.142351)
(9.9874 0 0.28239)
(9.97039 0 0.422336)
(9.94692 0 0.564225)
(9.91779 0 0.709802)
(9.88346 0 0.860676)
(9.84427 0 1.01846)
(9.80064 0 1.18475)
(9.75299 0 1.36115)
(9.7018 0 1.54931)
(9.6476 0 1.7509)
(9.59093 0 1.96766)
(9.53243 0 2.2014)
(9.47281 0 2.45404)
(9.41291 0 2.7276)
(9.35371 0 3.02431)
(9.2964 0 3.34661)
(9.24247 0 3.69732)
(9.19381 0 4.07968)
(9.15294 0 4.4976)
(9.12325 0 4.95583)
(9.10957 0 5.46019)
(9.1189 0 6.01785)
(9.16176 0 6.63738)
(9.25403 0 7.32838)
(9.41967 0 8.09948)
(9.6924 0 8.95195)
(10.0811 0 9.87267)
(10.7195 0 10.8084)
(11.5015 0 11.5296)
(9.99759 0 0.14594)
(9.9896 0 0.289482)
(9.97558 0 0.432848)
(9.95632 0 0.578075)
(9.93256 0 0.726899)
(9.90478 0 0.880908)
(9.87338 0 1.04169)
(9.83883 0 1.21081)
(9.80164 0 1.38985)
(9.76242 0 1.58038)
(9.72179 0 1.78402)
(9.68048 0 2.00243)
(9.63932 0 2.23732)
(9.59926 0 2.49047)
(9.56142 0 2.76375)
(9.52715 0 3.05913)
(9.49808 0 3.37877)
(9.47623 0 3.72503)
(9.46415 0 4.10057)
(9.46515 0 4.5084)
(9.48359 0 4.95195)
(9.5253 0 5.43504)
(9.59819 0 5.96175)
(9.71297 0 6.5359)
(9.88378 0 7.16001)
(10.1284 0 7.83324)
(10.4707 0 8.54784)
(10.9193 0 9.28837)
(11.5418 0 10.0479)
(12.4238 0 10.7149)
(9.99811 0 0.148913)
(9.99183 0 0.295342)
(9.98086 0 0.441498)
(9.96587 0 0.589398)
(9.94756 0 0.740756)
(9.92639 0 0.897129)
(9.90284 0 1.06007)
(9.87743 0 1.23109)
(9.85075 0 1.4117)
(9.82348 0 1.60342)
(9.79639 0 1.80776)
(9.77033 0 2.02629)
(9.74631 0 2.26055)
(9.72547 0 2.51216)
(9.70919 0 2.78275)
(9.69909 0 3.07399)
(9.69714 0 3.38763)
(9.70573 0 3.72551)
(9.72786 0 4.08954)
(9.76725 0 4.48172)
(9.82865 0 4.90405)
(9.91809 0 5.35842)
(10.0432 0 5.84624)
(10.2137 0 6.36792)
(10.4411 0 6.92202)
(10.7394 0 7.50429)
(11.1265 0 8.10639)
(11.615 0 8.71374)
(12.2276 0 9.31697)
(13.0663 0 9.84367)
(9.99863 0 0.151227)
(9.99408 0 0.29989)
(9.98618 0 0.448165)
(9.97549 0 0.598037)
(9.96264 0 0.751183)
(9.9481 0 0.909114)
(9.93239 0 1.07333)
(9.91608 0 1.24528)
(9.89982 0 1.42639)
(9.88438 0 1.6181)
(9.87061 0 1.82179)
(9.85949 0 2.03889)
(9.85216 0 2.27078)
(9.84991 0 2.51885)
(9.85431 0 2.78444)
(9.86717 0 3.06889)
(9.89066 0 3.3735)
(9.92739 0 3.69949)
(9.98053 0 4.04803)
(10.0539 0 4.42011)
(10.1523 0 4.81645)
(10.2812 0 5.23728)
(10.4477 0 5.68205)
(10.6597 0 6.14896)
(10.9266 0 6.63439)
(11.2588 0 7.1322)
(11.668 0 7.63293)
(12.163 0 8.12099)
(12.7442 0 8.58027)
(13.5024 0 8.97142)
(9.99915 0 0.152846)
(9.99633 0 0.303052)
(9.99149 0 0.452743)
(9.98509 0 0.603854)
(9.97766 0 0.758012)
(9.9697 0 0.916671)
(9.96174 0 1.08126)
(9.95439 0 1.25315)
(9.94837 0 1.43369)
(9.94448 0 1.62417)
(9.94366 0 1.82588)
(9.94697 0 2.04005)
(9.95563 0 2.26789)
(9.97106 0 2.51051)
(9.99492 0 2.76898)
(10.0291 0 3.04426)
(10.0759 0 3.33717)
(10.138 0 3.64836)
(10.2184 0 3.97826)
(10.321 0 4.32698)
(10.4499 0 4.69416)
(10.6103 0 5.0788)
(10.8078 0 5.47895)
(11.0489 0 5.89141)
(11.3405 0 6.31129)
(11.6895 0 6.73145)
(12.1025 0 7.1422)
(12.5842 0 7.52995)
(13.1285 0 7.88022)
(13.8148 0 8.17408)
(9.99966 0 0.153738)
(9.99856 0 0.304769)
(9.99675 0 0.455144)
(9.99458 0 0.606737)
(9.9925 0 0.761111)
(9.99099 0 0.91965)
(9.99061 0 1.0837)
(9.992 0 1.25455)
(9.9959 0 1.43343)
(10.0031 0 1.62152)
(10.0147 0 1.81994)
(10.0318 0 2.02975)
(10.0555 0 2.25195)
(10.0875 0 2.4874)
(10.1293 0 2.73685)
(10.1829 0 3.00089)
(10.2506 0 3.2799)
(10.3348 0 3.57399)
(10.4386 0 3.88297)
(10.5652 0 4.2062)
(10.7185 0 4.54251)
(10.9026 0 4.89001)
(11.122 0 5.24589)
(11.3816 0 5.60619)
(11.6859 0 5.96553)
(12.0393 0 6.31689)
(12.4449 0 6.65156)
(12.9048 0 6.95891)
(13.4117 0 7.22764)
(14.0327 0 7.44703)
(10.0002 0 0.15388)
(10.0007 0 0.304991)
(10.0019 0 0.4553)
(10.0039 0 0.6066)
(10.007 0 0.760382)
(10.0118 0 0.917948)
(10.0187 0 1.08056)
(10.0285 0 1.24939)
(10.0419 0 1.42557)
(10.0598 0 1.61012)
(10.0831 0 1.80402)
(10.113 0 2.00815)
(10.1507 0 2.22327)
(10.1978 0 2.45001)
(10.2559 0 2.68882)
(10.3267 0 2.93993)
(10.4126 0 3.20333)
(10.5157 0 3.47867)
(10.6387 0 3.76524)
(10.7845 0 4.06186)
(10.9562 0 4.36678)
(11.1572 0 4.67757)
(11.3907 0 4.99097)
(11.66 0 5.30278)
(11.9682 0 5.60774)
(12.3173 0 5.89949)
(12.7087 0 6.17064)
(13.1423 0 6.41292)
(13.6109 0 6.61754)
(14.1713 0 6.77756)
(10.0007 0 0.153253)
(10.0029 0 0.303684)
(10.0069 0 0.453161)
(10.0129 0 0.603386)
(10.021 0 0.755765)
(10.0318 0 0.911511)
(10.0458 0 1.07179)
(10.0636 0 1.23766)
(10.086 0 1.41012)
(10.1138 0 1.59007)
(10.148 0 1.77832)
(10.1898 0 1.97556)
(10.2403 0 2.18235)
(10.3009 0 2.39906)
(10.3733 0 2.6259)
(10.4592 0 2.86277)
(10.5604 0 3.10934)
(10.679 0 3.36488)
(10.8173 0 3.62831)
(10.9777 0 3.89806)
(11.1625 0 4.17203)
(11.3743 0 4.44753)
(11.6154 0 4.72118)
(11.8877 0 4.98888)
(12.193 0 5.24579)
(12.532 0 5.48638)
(12.9046 0 5.70454)
(13.3097 0 5.89383)
(13.7405 0 6.04762)
(14.2454 0 6.16133)
(10.0011 0 0.151846)
(10.0049 0 0.300828)
(10.0117 0 0.448702)
(10.0215 0 0.597069)
(10.0345 0 0.747241)
(10.051 0 0.900336)
(10.0716 0 1.05741)
(10.0969 0 1.21942)
(10.1277 0 1.38722)
(10.1647 0 1.56159)
(10.2089 0 1.74316)
(10.2614 0 1.93245)
(10.3233 0 2.12983)
(10.3959 0 2.33547)
(10.4807 0 2.54931)
(10.5792 0 2.77103)
(10.693 0 3)
(10.8239 0 3.23525)
(10.9738 0 3.47542)
(11.1445 0 3.71873)
(11.3377 0 3.96292)
(11.5553 0 4.20523)
(11.7986 0 4.44238)
(12.0688 0 4.67058)
(12.3663 0 4.88553)
(12.6912 0 5.08258)
(13.0425 0 5.2568)
(13.4183 0 5.40322)
(13.8126 0 5.51699)
(14.2673 0 5.59509)
(10.0016 0 0.149656)
(10.0068 0 0.296418)
(10.0163 0 0.441921)
(10.0297 0 0.587655)
(10.0472 0 0.734832)
(10.0691 0 0.88447)
(10.0959 0 1.03752)
(10.1282 0 1.19481)
(10.1667 0 1.35709)
(10.2121 0 1.52498)
(10.2653 0 1.69897)
(10.3273 0 1.87943)
(10.3992 0 2.06654)
(10.482 0 2.26029)
(10.5772 0 2.46042)
(10.686 0 2.66641)
(10.8098 0 2.87745)
(10.95 0 3.09239)
(11.108 0 3.30971)
(11.2853 0 3.52755)
(11.483 0 3.74361)
(11.7021 0 3.95524)
(11.9435 0 4.15939)
(12.2076 0 4.35266)
(12.4941 0 4.53137)
(12.8024 0 4.69169)
(13.131 0 4.82971)
(13.478 0 4.94168)
(13.8379 0 5.02407)
(14.2472 0 5.0749)
(10.002 0 0.146687)
(10.0087 0 0.290464)
(10.0205 0 0.432837)
(10.0374 0 0.575178)
(10.0591 0 0.718598)
(10.086 0 0.864009)
(10.1185 0 1.01225)
(10.1572 0 1.16405)
(10.2026 0 1.32002)
(10.2555 0 1.48065)
(10.3167 0 1.64631)
(10.387 0 1.81721)
(10.4674 0 1.99339)
(10.5589 0 2.17467)
(10.6625 0 2.36066)
(10.7794 0 2.5507)
(10.9106 0 2.74383)
(11.0573 0 2.93882)
(11.2205 0 3.13411)
(11.4011 0 3.32781)
(11.5999 0 3.51774)
(11.8173 0 3.70141)
(12.0537 0 3.87609)
(12.3088 0 4.03882)
(12.5821 0 4.18652)
(12.8724 0 4.31608)
(13.1782 0 4.42446)
(13.4972 0 4.50886)
(13.825 0 4.56676)
(14.1933 0 4.59687)
(10.0024 0 0.14295)
(10.0104 0 0.282989)
(10.0245 0 0.421491)
(10.0445 0 0.559706)
(10.0701 0 0.698638)
(10.1015 0 0.839096)
(10.1392 0 0.981815)
(10.1837 0 1.12741)
(10.2353 0 1.27637)
(10.2948 0 1.42909)
(10.3629 0 1.58579)
(10.4402 0 1.74657)
(10.5277 0 1.91135)
(10.6261 0 2.07983)
(10.7364 0 2.25152)
(10.8593 0 2.42565)
(10.9957 0 2.60121)
(11.1464 0 2.77694)
(11.3122 0 2.95129)
(11.4934 0 3.12246)
(11.6906 0 3.28841)
(11.9037 0 3.44691)
(12.1327 0 3.59554)
(12.3769 0 3.73181)
(12.6357 0 3.85318)
(12.9075 0 3.95716)
(13.1908 0 4.04143)
(13.4834 0 4.10391)
(13.7816 0 4.14284)
(14.113 0 4.15743)
(10.0028 0 0.138463)
(10.0119 0 0.274032)
(10.0282 0 0.407945)
(10.051 0 0.541329)
(10.0801 0 0.675083)
(10.1157 0 0.809914)
(10.158 0 0.946453)
(10.2075 0 1.08521)
(10.2646 0 1.22658)
(10.3298 0 1.37082)
(10.4037 0 1.51809)
(10.4869 0 1.66836)
(10.5801 0 1.82146)
(10.6839 0 1.97702)
(10.799 0 2.13445)
(10.9261 0 2.29296)
(11.0657 0 2.45154)
(11.2183 0 2.60892)
(11.3844 0 2.76363)
(11.5641 0 2.91401)
(11.7575 0 3.05822)
(11.9644 0 3.19427)
(12.1844 0 3.3201)
(12.4166 0 3.43363)
(12.6601 0 3.5328)
(12.9135 0 3.61566)
(13.1752 0 3.68044)
(13.4431 0 3.72564)
(13.714 0 3.75003)
(14.0124 0 3.75321)
(10.0031 0 0.133249)
(10.0133 0 0.263642)
(10.0315 0 0.392278)
(10.0569 0 0.520165)
(10.0892 0 0.648096)
(10.1284 0 0.77668)
(10.1748 0 0.906452)
(10.2287 0 1.03782)
(10.2905 0 1.1711)
(10.3605 0 1.30645)
(10.4392 0 1.44393)
(10.5271 0 1.58345)
(10.6246 0 1.72476)
(10.7324 0 1.86743)
(10.8508 0 2.01086)
(10.9804 0 2.15425)
(11.1214 0 2.29658)
(11.2741 0 2.43669)
(11.4387 0 2.57319)
(11.6152 0 2.70459)
(11.8033 0 2.82925)
(12.0026 0 2.94547)
(12.2125 0 3.0515)
(12.4321 0 3.14563)
(12.6603 0 3.22621)
(12.8958 0 3.29174)
(13.1369 0 3.3409)
(13.3819 0 3.3726)
(13.628 0 3.38604)
(13.897 0 3.38104)
(10.0034 0 0.12734)
(10.0146 0 0.251879)
(10.0344 0 0.374586)
(10.0622 0 0.496349)
(10.0972 0 0.617862)
(10.1397 0 0.739639)
(10.1896 0 0.862126)
(10.2473 0 0.985648)
(10.3129 0 1.11042)
(10.3868 0 1.23655)
(10.4694 0 1.36402)
(10.5608 0 1.49268)
(10.6616 0 1.62224)
(10.7721 0 1.75224)
(10.8925 0 1.88207)
(11.0231 0 2.01095)
(11.164 0 2.13794)
(11.3154 0 2.26194)
(11.4771 0 2.38171)
(11.649 0 2.49593)
(11.8306 0 2.60317)
(12.0215 0 2.70199)
(12.2208 0 2.79093)
(12.4276 0 2.86861)
(12.6408 0 2.93374)
(12.8591 0 2.98515)
(13.081 0 3.02189)
(13.3049 0 3.04319)
(13.5286 0 3.04853)
(13.7714 0 3.03792)
(10.0036 0 0.120767)
(10.0157 0 0.238811)
(10.0371 0 0.354976)
(10.0668 0 0.470034)
(10.1043 0 0.584583)
(10.1494 0 0.699054)
(10.2024 0 0.813807)
(10.2632 0 0.929095)
(10.332 0 1.04506)
(10.409 0 1.16175)
(10.4945 0 1.2791)
(10.5886 0 1.3969)
(10.6915 0 1.51486)
(10.8035 0 1.63251)
(10.9247 0 1.74926)
(11.0551 0 1.86437)
(11.1948 0 1.97697)
(11.3437 0 2.08608)
(11.5015 0 2.19061)