/*--------------------------------*- C++ -*----------------------------------*\
  =========                 |
  \\      /  F ield         | OpenFOAM: The Open Source CFD Toolbox
   \\    /   O peration     | Website:  https://openfoam.org
    \\  /    A nd           | Version:  dev
     \\/     M anipulation  |
\*---------------------------------------------------------------------------*/
FoamFile
{
    version     2.0;
    format      ascii;
    class       surfaceVectorField;
    location    "0.3";
    object      Uf;
}
// * * * * * * * * * * * * * * * * * * * * * * * * * * * * * * * * * * * * * //

dimensions      [0 1 -1 0 0 0 0];

internalField   nonuniform List<vector> 
5457
(
(9.92161 0 0.0248402)
(9.97153 0 0.0383901)
(9.82622 0 0.0323459)
(9.92986 0 0.0478418)
(9.71411 0 0.0385951)
(9.8586 0 0.0575906)
(9.58308 0 0.0450324)
(9.76264 0 0.0689392)
(9.43306 0 0.0516773)
(9.64697 0 0.0808368)
(9.26421 0 0.0585668)
(9.51256 0 0.093186)
(9.07627 0 0.0658405)
(9.35873 0 0.106231)
(8.86863 0 0.0736369)
(9.18467 0 0.120208)
(8.64043 0 0.082069)
(8.9896 0 0.135299)
(8.39069 0 0.0912326)
(8.77263 0 0.151658)
(8.11828 0 0.101212)
(8.53271 0 0.169422)
(7.82204 0 0.112074)
(8.26862 0 0.188702)
(7.5008 0 0.123865)
(7.97911 0 0.209574)
(7.1535 0 0.136595)
(7.66293 0 0.232058)
(6.77928 0 0.15023)
(7.31896 0 0.256095)
(6.37761 0 0.16467)
(6.94626 0 0.281525)
(5.94848 0 0.179734)
(6.54427 0 0.308052)
(5.49255 0 0.195137)
(6.11293 0 0.335207)
(5.01138 0 0.210463)
(5.65288 0 0.362316)
(4.50769 0 0.225143)
(5.16568 0 0.388455)
(3.98554 0 0.238433)
(4.65403 0 0.412426)
(3.45063 0 0.249406)
(4.12197 0 0.432734)
(2.91041 0 0.256948)
(3.57513 0 0.447593)
(2.37428 0 0.259784)
(3.02083 0 0.45495)
(1.85357 0 0.256522)
(2.46818 0 0.452554)
(1.36146 0 0.245718)
(1.92797 0 0.438044)
(0.912749 0 0.225844)
(1.41239 0 0.409078)
(0.523598 0 0.195955)
(0.935232 0 0.363358)
(0.208937 0 0.147192)
(0.496409 0 0.300911)
(0.194934 0 0.204641)
(9.99714 0 0.0508507)
(9.99733 0 0.0397931)
(9.96101 0 0.069419)
(9.97976 0 0.0659597)
(9.90278 0 0.0858606)
(9.93685 0 0.0875046)
(9.8243 0 0.10311)
(9.87029 0 0.110231)
(9.72537 0 0.121227)
(9.78367 0 0.134142)
(9.60589 0 0.140262)
(9.67805 0 0.159125)
(9.46556 0 0.160511)
(9.55299 0 0.185555)
(9.30376 0 0.182292)
(9.40779 0 0.213873)
(9.11965 0 0.205868)
(9.24173 0 0.244456)
(8.9122 0 0.231467)
(9.05397 0 0.277633)
(8.68022 0 0.259281)
(8.84348 0 0.313703)
(8.4224 0 0.289464)
(8.60904 0 0.352927)
(8.13741 0 0.322102)
(8.34934 0 0.395501)
(7.82392 0 0.357188)
(8.06301 0 0.441524)
(7.48072 0 0.394587)
(7.74867 0 0.490961)
(7.10683 0 0.433994)
(7.40507 0 0.543585)
(6.70163 0 0.474887)
(7.03112 0 0.598925)
(6.26504 0 0.516471)
(6.6261 0 0.656194)
(5.7977 0 0.557632)
(6.18977 0 0.714218)
(5.3012 0 0.596882)
(5.72255 0 0.771363)
(4.77826 0 0.632337)
(5.22576 0 0.82548)
(4.23296 0 0.661702)
(4.7018 0 0.873868)
(3.6709 0 0.682311)
(4.15433 0 0.913285)
(3.09927 0 0.691217)
(3.58847 0 0.940023)
(2.52681 0 0.68535)
(3.0108 0 0.950083)
(1.9635 0 0.661767)
(2.4293 0 0.939468)
(1.41985 0 0.617932)
(1.8529 0 0.904706)
(0.905555 0 0.553024)
(1.29201 0 0.843565)
(0.427192 0 0.454967)
(0.74067 0 0.758372)
(0.304906 0 0.62305)
(9.98973 0 0.0580493)
(9.99508 0 0.0448212)
(9.95649 0 0.0870627)
(9.97491 0 0.082632)
(9.90167 0 0.11448)
(9.93285 0 0.115665)
(9.82788 0 0.143099)
(9.86919 0 0.149057)
(9.73544 0 0.173259)
(9.78639 0 0.183952)
(9.62422 0 0.205125)
(9.68553 0 0.220508)
(9.49395 0 0.239118)
(9.56644 0 0.259185)
(9.34418 0 0.275714)
(9.42858 0 0.300578)
(9.1742 0 0.315347)
(9.27138 0 0.345242)
(8.98309 0 0.358411)
(9.09414 0 0.393683)
(8.76978 0 0.405259)
(8.89598 0 0.446373)
(8.53302 0 0.45619)
(8.67584 0 0.50374)
(8.27146 0 0.511411)
(8.43254 0 0.566139)
(7.98368 0 0.570994)
(8.16476 0 0.633809)
(7.66825 0 0.634823)
(7.87114 0 0.706822)
(7.32381 0 0.702526)
(7.55029 0 0.785006)
(6.94915 0 0.773398)
(7.20086 0 0.867873)
(6.54339 0 0.846319)
(6.82166 0 0.954515)
(6.10609 0 0.919664)
(6.4117 0 1.0435)
(5.63744 0 0.991228)
(5.97042 0 1.13279)
(5.13848 0 1.05817)
(5.49778 0 1.21959)
(4.61127 0 1.11698)
(4.99448 0 1.30037)
(4.05907 0 1.16359)
(4.46214 0 1.3708)
(3.4865 0 1.19349)
(3.90352 0 1.4259)
(2.8995 0 1.20207)
(3.32264 0 1.46025)
(2.30515 0 1.18517)
(2.7248 0 1.46851)
(1.71115 0 1.13994)
(2.11631 0 1.44624)
(1.1249 0 1.0673)
(1.50598 0 1.39095)
(0.551455 0 0.955689)
(0.883407 0 1.30676)
(0.366199 0 1.16317)
(9.98585 0 0.0697015)
(9.99394 0 0.0517499)
(9.95252 0 0.110295)
(9.97209 0 0.0993501)
(9.89869 0 0.149237)
(9.92988 0 0.143318)
(9.82613 0 0.188975)
(9.86739 0 0.187233)
(9.73551 0 0.230365)
(9.78636 0 0.23278)
(9.62682 0 0.273877)
(9.68771 0 0.280494)
(9.49986 0 0.32011)
(9.57142 0 0.330949)
(9.35428 0 0.369715)
(9.43709 0 0.384852)
(9.18956 0 0.423314)
(9.28423 0 0.442906)
(9.00498 0 0.481486)
(9.11228 0 0.505772)
(8.79965 0 0.54477)
(8.92049 0 0.574073)
(8.57257 0 0.613645)
(8.70798 0 0.648391)
(8.32257 0 0.688492)
(8.47374 0 0.729234)
(8.04841 0 0.769542)
(8.21663 0 0.816995)
(7.74876 0 0.85681)
(7.9354 0 0.911886)
(7.42224 0 0.950009)
(7.62876 0 1.01386)
(7.06749 0 1.04845)
(7.29533 0 1.12253)
(6.68324 0 1.15095)
(6.93372 0 1.23702)
(6.26838 0 1.25567)
(6.54258 0 1.35589)
(5.82211 0 1.36004)
(6.12069 0 1.47695)
(5.34412 0 1.46066)
(5.66702 0 1.59714)
(4.83472 0 1.55322)
(5.18093 0 1.71247)
(4.29506 0 1.63262)
(4.66235 0 1.81793)
(3.72738 0 1.69311)
(4.11197 0 1.90763)
(3.13506 0 1.72872)
(3.53154 0 1.97504)
(2.52277 0 1.73401)
(2.92406 0 2.01354)
(1.8962 0 1.70514)
(2.29372 0 2.01746)
(1.26187 0 1.64313)
(1.64884 0 1.98324)
(0.625532 0 1.53351)
(0.975019 0 1.9153)
(0.40292 0 1.77584)
(9.98406 0 0.0819656)
(9.99343 0 0.0595557)
(9.95031 0 0.13258)
(9.97078 0 0.116277)
(9.89741 0 0.181789)
(9.92868 0 0.170492)
(9.82627 0 0.231768)
(9.86745 0 0.224664)
(9.73755 0 0.283734)
(9.7884 0 0.280583)
(9.63134 0 0.33842)
(9.69223 0 0.339114)
(9.50744 0 0.396547)
(9.57896 0 0.40098)
(9.36555 0 0.45888)
(9.44824 0 0.466994)
(9.2052 0 0.526166)
(9.29965 0 0.53798)
(9.02576 0 0.599115)
(9.13268 0 0.614735)
(8.82647 0 0.678396)
(8.94666 0 0.698018)
(8.60644 0 0.764623)
(8.74079 0 0.788548)
(8.36466 0 0.858316)
(8.51416 0 0.886975)
(8.1 0 0.959848)
(8.26571 0 0.993835)
(7.81124 0 1.06937)
(7.99431 0 1.10949)
(7.49708 0 1.18674)
(7.6987 0 1.23405)
(7.15612 0 1.31138)
(7.3775 0 1.36729)
(6.7869 0 1.44219)
(7.02923 0 1.50848)
(6.38794 0 1.57737)
(6.65228 0 1.65631)
(5.95779 0 1.71428)
(6.24498 0 1.80868)
(5.49515 0 1.84931)
(5.8056 0 1.96257)
(4.99898 0 1.9778)
(5.33246 0 2.11385)
(4.46876 0 2.09402)
(4.82412 0 2.25724)
(3.90473 0 2.19133)
(4.27959 0 2.38626)
(3.3082 0 2.2626)
(3.69869 0 2.49349)
(2.68186 0 2.30102)
(3.0825 0 2.57106)
(2.0301 0 2.30119)
(2.43349 0 2.61164)
(1.35923 0 2.26294)
(1.76013 0 2.60965)
(0.676799 0 2.16684)
(1.04438 0 2.56791)
(0.429116 0 2.43872)
(9.98332 0 0.094534)
(9.99326 0 0.0677241)
(9.94951 0 0.154612)
(9.97043 0 0.133235)
(9.89775 0 0.213784)
(9.92885 0 0.197083)
(9.82843 0 0.273929)
(9.86918 0 0.261133)
(9.74209 0 0.336388)
(9.79247 0 0.327107)
(9.63884 0 0.402072)
(9.69926 0 0.396096)
(9.51853 0 0.47182)
(9.58953 0 0.468985)
(9.38086 0 0.546504)
(9.46302 0 0.546692)
(9.2254 0 0.626989)
(9.31934 0 0.630155)
(9.05157 0 0.714119)
(9.158 0 0.720293)
(8.85867 0 0.808699)
(8.97839 0 0.817995)
(8.64585 0 0.91148)
(8.77975 0 0.924111)
(8.41216 0 1.02313)
(8.5612 0 1.03943)
(8.15655 0 1.14417)
(8.32175 0 1.16463)
(7.87781 0 1.27492)
(8.06026 0 1.30024)
(7.57462 0 1.4154)
(7.77546 0 1.44655)
(7.24553 0 1.56524)
(7.46591 0 1.60352)
(6.88891 0 1.72352)
(7.13001 0 1.77068)
(6.50295 0 1.88862)
(6.76589 0 1.94694)
(6.08569 0 2.05809)
(6.37148 0 2.13048)
(5.63504 0 2.22838)
(5.94444 0 2.31852)
(5.1489 0 2.3948)
(5.4822 0 2.50713)
(4.62533 0 2.55134)
(4.98214 0 2.69104)
(4.06288 0 2.69075)
(4.44176 0 2.86354)
(3.4611 0 2.80487)
(3.85915 0 3.01652)
(2.82105 0 2.88529)
(3.23362 0 3.14079)
(2.14608 0 2.92442)
(2.56594 0 3.22699)
(1.44263 0 2.91959)
(1.86499 0 3.26648)
(0.720236 0 2.84459)
(1.10927 0 3.25874)
(0.452987 0 3.14415)
(9.98317 0 0.107149)
(9.99327 0 0.0759649)
(9.94974 0 0.176269)
(9.9707 0 0.150001)
(9.89936 0 0.244953)
(9.93006 0 0.222965)
(9.83222 0 0.31487)
(9.87225 0 0.296459)
(9.74869 0 0.387407)
(9.79824 0 0.372113)
(9.64893 0 0.463631)
(9.70843 0 0.451156)
(9.53279 0 0.544515)
(9.60281 0 0.534627)
(9.40002 0 0.631044)
(9.48113 0 0.623552)
(9.25022 0 0.724204)
(9.34307 0 0.718977)
(9.08283 0 0.824961)
(9.18817 0 0.821939)
(8.89719 0 0.934249)
(9.01585 0 0.933451)
(8.6925 0 1.05296)
(8.8254 0 1.0545)
(8.46782 0 1.18189)
(8.61597 0 1.18601)
(8.2221 0 1.32174)
(8.38657 0 1.32882)
(7.95411 0 1.47299)
(8.13605 0 1.48364)
(7.66248 0 1.63588)
(7.86309 0 1.65096)
(7.34562 0 1.81027)
(7.56618 0 1.83098)
(7.00169 0 1.99553)
(7.24351 0 2.02354)
(6.62855 0 2.19038)
(6.89298 0 2.22791)
(6.22373 0 2.39269)
(6.51208 0 2.44268)
(5.78441 0 2.59928)
(6.09786 0 2.66552)
(5.30749 0 2.80567)
(5.64692 0 2.89295)
(4.78972 0 3.00592)
(5.15546 0 3.12004)
(4.22806 0 3.19245)
(4.61948 0 3.34015)
(3.62026 0 3.35616)
(4.03522 0 3.54476)
(2.96571 0 3.48685)
(3.40002 0 3.72342)
(2.2666 0 3.57405)
(2.71254 0 3.86435)
(1.52934 0 3.6112)
(1.98172 0 3.95487)
(0.765409 0 3.56348)
(1.18244 0 3.98929)
(0.480234 0 3.89382)
(9.98339 0 0.119598)
(9.99342 0 0.0840987)
(9.95073 0 0.197377)
(9.9714 0 0.166382)
(9.902 0 0.275112)
(9.93205 0 0.247997)
(9.83736 0 0.354368)
(9.87642 0 0.330472)
(9.75707 0 0.436561)
(9.80546 0 0.415374)
(9.66128 0 0.52288)
(9.71949 0 0.50402)
(9.54991 0 0.614423)
(9.61848 0 0.59758)
(9.42271 0 0.712282)
(9.50224 0 0.697189)
(9.27932 0 0.817554)
(9.37049 0 0.803996)
(9.11924 0 0.931323)
(9.22282 0 0.919149)
(8.94183 0 1.05465)
(9.0587 0 1.04379)
(8.74633 0 1.18857)
(8.87745 0 1.17903)
(8.53183 0 1.33404)
(8.67826 0 1.32595)
(8.29726 0 1.49192)
(8.46016 0 1.48555)
(8.04138 0 1.66291)
(8.222 0 1.65875)
(7.76273 0 1.84748)
(7.96243 0 1.84626)
(7.45957 0 2.04581)
(7.67983 0 2.04861)
(7.12983 0 2.25764)
(7.37223 0 2.26597)
(6.77104 0 2.48212)
(7.03726 0 2.49808)
(6.3802 0 2.71765)
(6.67202 0 2.7441)
(5.95376 0 2.96162)
(6.27296 0 3.00235)
(5.48759 0 3.21011)
(5.83581 0 3.27007)
(4.97707 0 3.45755)
(5.35555 0 3.54303)
(4.41739 0 3.69638)
(4.82652 0 3.81509)
(3.8042 0 3.91677)
(4.24278 0 4.07769)
(3.13466 0 4.10669)
(3.59908 0 4.3194)
(2.40908 0 4.25209)
(2.89098 0 4.52584)
(1.63318 0 4.34108)
(2.12631 0 4.67934)
(0.820102 0 4.32785)
(1.27547 0 4.76685)
(0.516093 0 4.69706)
(9.98385 0 0.131724)
(9.99364 0 0.0920053)
(9.95229 0 0.217779)
(9.97243 0 0.182216)
(9.90549 0 0.304104)
(9.93466 0 0.272033)
(9.84366 0 0.392239)
(9.88151 0 0.363008)
(9.767 0 0.483625)
(9.81393 0 0.45668)
(9.67566 0 0.579544)
(9.7322 0 0.554431)
(9.56958 0 0.681206)
(9.63628 0 0.657538)
(9.44858 0 0.789808)
(9.52605 0 0.76724)
(9.31232 0 0.90655)
(9.40125 0 0.884784)
(9.16036 0 1.03263)
(9.26155 0 1.01143)
(8.99213 0 1.16925)
(9.10647 0 1.14842)
(8.80689 0 1.31757)
(8.93539 0 1.29702)
(8.60379 0 1.47872)
(8.74756 0 1.45845)
(8.38176 0 1.65374)
(8.54205 0 1.63391)
(8.13955 0 1.84357)
(8.31774 0 1.8245)
(7.87565 0 2.04899)
(8.07326 0 2.03123)
(7.58821 0 2.2705)
(7.80696 0 2.25495)
(7.27496 0 2.50831)
(7.51675 0 2.49627)
(6.9331 0 2.76216)
(7.20006 0 2.7555)
(6.55917 0 3.03112)
(6.85363 0 3.03248)
(6.14887 0 3.31343)
(6.47341 0 3.32642)
(5.69703 0 3.60602)
(6.05428 0 3.63559)
(5.19752 0 3.90418)
(5.58998 0 3.95689)
(4.64346 0 4.20085)
(5.073 0 4.28526)
(4.02775 0 4.48598)
(4.49474 0 4.61281)
(3.34427 0 4.74589)
(3.84637 0 4.92779)
(2.58993 0 4.96257)
(3.11872 0 5.21355)
(1.76809 0 5.11706)
(2.31607 0 5.4467)
(0.89261 0 5.14919)
(1.40191 0 5.60408)
(0.567075 0 5.57131)
(9.98449 0 0.143403)
(9.99393 0 0.0995984)
(9.95428 0 0.237334)
(9.9737 0 0.197371)
(9.90969 0 0.33178)
(9.93778 0 0.294938)
(9.85095 0 0.428303)
(9.88739 0 0.393911)
(9.77828 0 0.528371)
(9.82349 0 0.495839)
(9.69181 0 0.633346)
(9.74636 0 0.602153)
(9.59153 0 0.744536)
(9.65598 0 0.71422)
(9.4773 0 0.863231)
(9.55225 0 0.833371)
(9.34884 0 0.990735)
(9.435 0 0.960946)
(9.20578 0 1.12836)
(9.30395 0 1.0983)
(9.0476 0 1.27741)
(9.15869 0 1.2468)
(8.87364 0 1.43921)
(8.99869 0 1.40783)
(8.68311 0 1.61505)
(8.82327 0 1.58276)
(8.475 0 1.80618)
(8.63159 0 1.77296)
(8.24808 0 2.01378)
(8.42258 0 1.97978)
(8.00085 0 2.23894)
(8.19495 0 2.20451)
(7.7314 0 2.4826)
(7.94704 0 2.44837)
(7.43736 0 2.74549)
(7.67677 0 2.71245)
(7.1157 0 3.02803)
(7.38146 0 2.99771)
(6.76256 0 3.33019)
(7.05767 0 3.30483)
(6.37305 0 3.65127)
(6.70096 0 3.63409)
(5.94095 0 3.98953)
(6.30555 0 3.98514)
(5.45859 0 4.34165)
(5.86402 0 4.35655)
(4.91666 0 4.70188)
(5.36697 0 4.74513)
(4.30456 0 5.06089)
(4.80272 0 5.1448)
(3.6113 0 5.40424)
(4.15777 0 5.54488)
(2.82781 0 5.71014)
(3.41578 0 5.92783)
(1.95161 0 5.95088)
(2.57338 0 6.26483)
(0.994291 0 6.04678)
(1.58141 0 6.51957)
(0.643494 0 6.54516)
(9.98527 0 0.154538)
(9.99426 0 0.106813)
(9.95662 0 0.255919)
(9.97516 0 0.211741)
(9.91448 0 0.358)
(9.9413 0 0.316586)
(9.85911 0 0.462391)
(9.89392 0 0.423039)
(9.79075 0 0.570595)
(9.83399 0 0.532677)
(9.70953 0 0.684041)
(9.76179 0 0.646974)
(9.6155 0 0.804118)
(9.67732 0 0.767372)
(9.50855 0 0.932206)
(9.58056 0 0.895282)
(9.3885 0 1.0697)
(9.47138 0 1.03213)
(9.25502 0 1.21801)
(9.34958 0 1.17935)
(9.1077 0 1.37856)
(9.21485 0 1.33843)
(8.94597 0 1.55281)
(9.06676 0 1.51085)
(8.76912 0 1.74221)
(8.90472 0 1.69814)
(8.57624 0 1.94822)
(8.728 0 1.90184)
(8.3662 0 2.17229)
(8.53569 0 2.12353)
(8.13755 0 2.41583)
(8.32658 0 2.36477)
(7.88845 0 2.68022)
(8.09914 0 2.62718)
(7.61654 0 2.9668)
(7.8514 0 2.91237)
(7.31872 0 3.27676)
(7.58076 0 3.22197)
(6.99095 0 3.61112)
(7.28379 0 3.55761)
(6.62791 0 3.97055)
(6.95593 0 3.92084)
(6.22262 0 4.35505)
(6.59108 0 4.31301)
(5.76596 0 4.76343)
(6.18103 0 4.73492)
(5.24614 0 5.19243)
(5.71478 0 5.18624)
(4.64835 0 5.63505)
(5.17758 0 5.66434)
(3.95491 0 6.07817)
(4.55042 0 6.16214)
(3.14693 0 6.49804)
(3.80718 0 6.66444)
(2.20951 0 6.85772)
(2.93049 0 7.14012)
(1.14388 0 7.05057)
(1.84655 0 7.53864)
(0.764681 0 7.66552)
(9.98614 0 0.165053)
(9.99463 0 0.1136)
(9.95923 0 0.273427)
(9.97677 0 0.225238)
(9.91975 0 0.382638)
(9.94515 0 0.336869)
(9.868 0 0.494353)
(9.901 0 0.450266)
(9.80423 0 0.610116)
(9.84528 0 0.567041)
(9.7286 0 0.731409)
(9.77829 0 0.688709)
(9.64121 0 0.859693)
(9.70009 0 0.816771)
(9.54201 0 0.996423)
(9.61068 0 0.952708)
(9.43089 0 1.14307)
(9.51002 0 1.09801)
(9.30762 0 1.30115)
(9.39801 0 1.25421)
(9.17188 0 1.47218)
(9.27442 0 1.42285)
(9.02322 0 1.65774)
(9.13895 0 1.60554)
(8.86105 0 1.85944)
(8.99114 0 1.80394)
(8.68461 0 2.07893)
(8.83043 0 2.01973)
(8.49291 0 2.31791)
(8.65604 0 2.25471)
(8.28468 0 2.57814)
(8.467 0 2.51072)
(8.05824 0 2.86144)
(8.26198 0 2.78973)
(7.81139 0 3.16974)
(8.03926 0 3.09385)
(7.54119 0 3.50509)
(7.79652 0 3.42543)
(7.24371 0 3.86966)
(7.53061 0 3.78703)
(6.91358 0 4.26569)
(7.23726 0 4.1816)
(6.54352 0 4.69536)
(6.91055 0 4.61238)
(6.12348 0 5.16045)
(6.54221 0 5.08293)
(5.63965 0 5.66156)
(6.1205 0 5.59681)
(5.073 0 6.19657)
(5.62857 0 6.15682)
(4.39779 0 6.75758)
(5.04238 0 6.76316)
(3.58067 0 7.32417)
(4.32451 0 7.40938)
(2.58331 0 7.85444)
(3.43613 0 8.07138)
(1.37673 0 8.20752)
(2.25652 0 8.6925)
(0.971668 0 9.01394)
(9.9871 0 0.174886)
(9.99503 0 0.119919)
(9.96207 0 0.289769)
(9.9785 0 0.23779)
(9.92542 0 0.405586)
(9.94926 0 0.355695)
(9.8775 0 0.52406)
(9.90853 0 0.47548)
(9.81856 0 0.646775)
(9.85723 0 0.598798)
(9.74882 0 0.775259)
(9.7957 0 0.727198)
(9.6684 0 0.911031)
(9.72404 0 0.862227)
(9.57735 0 1.05561)
(9.64231 0 1.00542)
(9.47561 0 1.21054)
(9.55056 0 1.15833)
(9.36307 0 1.37739)
(9.44877 0 1.32255)
(9.23952 0 1.55779)
(9.33684 0 1.49969)
(9.10466 0 1.75342)
(9.21459 0 1.69145)
(8.95804 0 1.96602)
(9.08173 0 1.89959)
(8.7991 0 2.19742)
(8.93788 0 2.12594)
(8.62706 0 2.44954)
(8.78249 0 2.37245)
(8.44089 0 2.72444)
(8.61485 0 2.6412)
(8.23922 0 3.02436)
(8.43395 0 2.93449)
(8.0202 0 3.35181)
(8.23847 0 3.25489)
(7.78129 0 3.70966)
(8.02657 0 3.60533)
(7.51901 0 4.10122)
(7.79571 0 3.98931)
(7.22851 0 4.53041)
(7.54236 0 4.41105)
(6.90291 0 5.00187)
(7.26148 0 4.87577)
(6.53234 0 5.52096)
(6.94579 0 5.38997)
(6.10229 0 6.09364)
(6.58449 0 5.96175)
(5.59104 0 6.72568)
(6.16102 0 6.60115)
(4.96556 0 7.42053)
(5.64959 0 7.31992)
(4.17513 0 8.17253)
(5.00472 0 8.12999)
(3.14331 0 8.9527)
(4.16386 0 9.03481)
(1.7676 0 9.59489)
(2.92758 0 10.0081)
(1.36194 0 10.7452)
(9.98812 0 0.183986)
(9.99545 0 0.125739)
(9.96509 0 0.304871)
(9.98032 0 0.249341)
(9.93142 0 0.42675)
(9.95359 0 0.372987)
(9.8875 0 0.5514)
(9.91642 0 0.498591)
(9.8336 0 0.68044)
(9.86972 0 0.627839)
(9.76999 0 0.815437)
(9.81384 0 0.762308)
(9.69682 0 0.957953)
(9.74894 0 0.903583)
(9.61422 0 1.10956)
(9.67516 0 1.05324)
(9.52223 0 1.27184)
(9.59262 0 1.21287)
(9.42085 0 1.44644)
(9.5014 0 1.38411)
(9.31 0 1.63505)
(9.40153 0 1.56863)
(9.18952 0 1.83943)
(9.29296 0 1.7682)
(9.05917 0 2.06143)
(9.17562 0 1.98463)
(8.91859 0 2.30301)
(9.0493 0 2.21987)
(8.76729 0 2.56628)
(8.91376 0 2.47599)
(8.60457 0 2.85354)
(8.76857 0 2.75525)
(8.42947 0 3.16738)
(8.61316 0 3.06019)
(8.24066 0 3.5108)
(8.44672 0 3.3937)
(8.03627 0 3.88735)
(8.26808 0 3.75923)
(7.81369 0 4.30138)
(8.07562 0 4.16097)
(7.56916 0 4.75835)
(7.86699 0 4.6042)
(7.29723 0 5.26524)
(7.63881 0 5.09576)
(6.98972 0 5.83117)
(7.38608 0 5.64475)
(6.63398 0 6.46823)
(7.10116 0 6.26363)
(6.20961 0 7.19256)
(6.77184 0 6.96998)
(5.68202 0 8.02579)
(6.37803 0 7.78955)
(4.98887 0 8.99532)
(5.88006 0 8.76192)
(4.00955 0 10.1328)
(5.21509 0 9.94921)
(2.49513 0 11.3509)
(4.11133 0 11.4563)
(2.2009 0 13.189)
(9.98918 0 0.192315)
(9.99589 0 0.131038)
(9.96824 0 0.318672)
(9.98221 0 0.259844)
(9.93768 0 0.446049)
(9.95808 0 0.388685)
(9.89789 0 0.57627)
(9.92459 0 0.519524)
(9.8492 0 0.71098)
(9.88263 0 0.654075)
(9.79189 0 0.851774)
(9.83257 0 0.793937)
(9.7262 0 1.00025)
(9.77464 0 0.940718)
(9.6523 0 1.158)
(9.70903 0 1.09602)
(9.57035 0 1.32667)
(9.63597 0 1.26146)
(9.48044 0 1.50792)
(9.55564 0 1.4387)
(9.38266 0 1.7035)
(9.46819 0 1.62945)
(9.277 0 1.91522)
(9.37376 0 1.8355)
(9.16344 0 2.145)
(9.27244 0 2.05871)
(9.04188 0 2.39489)
(9.16428 0 2.30109)
(8.91213 0 2.66713)
(9.04932 0 2.56478)
(8.77389 0 2.96417)
(8.92752 0 2.85214)
(8.62672 0 3.28886)
(8.79877 0 3.16584)
(8.46994 0 3.64451)
(8.66288 0 3.50897)
(8.30259 0 4.03517)
(8.51952 0 3.88524)
(8.12326 0 4.46592)
(8.36817 0 4.29927)
(7.92988 0 4.94332)
(8.20807 0 4.75694)
(7.71942 0 5.47613)
(8.03814 0 5.26602)
(7.4872 0 6.07644)
(7.85678 0 5.83715)
(7.22583 0 6.76155)
(7.66173 0 6.48543)
(6.92281 0 7.5574)
(7.44969 0 7.23333)
(6.55532 0 8.5057)
(7.21655 0 8.11667)
(6.07647 0 9.68038)
(6.95507 0 9.19847)
(5.37061 0 11.2482)
(6.68776 0 10.6083)
(4.05184 0 13.7479)
(6.48931 0 12.7175)
(5.59486 0 17.1576)
(-0.643864 0 0.456648)
(-0.430815 0 0.630625)
(-1.43529 0 0.507873)
(-1.10682 0 0.756848)
(-2.3155 0 0.525804)
(-1.98771 0 0.821863)
(-3.25887 0 0.526584)
(-2.91679 0 0.860045)
(-4.2416 0 0.514002)
(-3.88876 0 0.874757)
(-5.24218 0 0.491022)
(-4.88449 0 0.869623)
(-6.23975 0 0.459324)
(-5.88484 0 0.846515)
(-7.2128 0 0.419836)
(-6.86957 0 0.806214)
(-8.13853 0 0.373083)
(-7.8169 0 0.748897)
(-8.99247 0 0.319439)
(-8.7031 0 0.674495)
(-9.74848 0 0.259278)
(-9.50252 0 0.583046)
(-10.3792 0 0.193129)
(-10.1879 0 0.474958)
(-10.8572 0 0.121716)
(-10.7309 0 0.351426)
(-11.1564 0 0.045748)
(-11.1039 0 0.214763)
(-11.2518 0 -0.0344501)
(-11.2808 0 0.0668629)
(-11.1275 0 -0.117755)
(-11.2406 0 -0.0850352)
(-10.7706 0 -0.200365)
(-10.9733 0 -0.238476)
(-10.1843 0 -0.277304)
(-10.4761 0 -0.382498)
(-9.38442 0 -0.344531)
(-9.75975 0 -0.509541)
(-8.39687 0 -0.399117)
(-8.84596 0 -0.614199)
(-7.25526 0 -0.439278)
(-7.76553 0 -0.693247)
(-5.99778 0 -0.464251)
(-6.55553 0 -0.745578)
(-4.66453 0 -0.474021)
(-5.25649 0 -0.771826)
(-3.29533 0 -0.46927)
(-3.90891 0 -0.77392)
(-1.9266 0 -0.452548)
(-2.54818 0 -0.755382)
(-0.578539 0 -0.424338)
(-1.17507 0 -0.726403)
(0.721577 0 -0.388686)
(0.189478 0 -0.684022)
(1.96021 0 -0.357006)
(1.41888 0 -0.636285)
(3.15943 0 -0.351796)
(2.62481 0 -0.601486)
(4.11721 0 -0.631404)
(-0.802961 0 1.08808)
(-0.502095 0 1.41708)
(-1.66047 0 1.19504)
(-1.23327 0 1.57689)
(-2.56859 0 1.25773)
(-2.13957 0 1.66979)
(-3.52003 0 1.29177)
(-3.06839 0 1.72744)
(-4.50048 0 1.29807)
(-4.02876 0 1.74749)
(-5.49291 0 1.2784)
(-5.0059 0 1.73215)
(-6.4784 0 1.23356)
(-5.98371 0 1.68279)
(-7.43634 0 1.16363)
(-6.94375 0 1.5999)
(-8.34415 0 1.06831)
(-7.86533 0 1.48329)
(-9.17725 0 0.947299)
(-8.72533 0 1.33254)
(-9.90921 0 0.800761)
(-9.49832 0 1.14754)
(-10.5123 0 0.629773)
(-10.1568 0 0.929103)
(-10.9587 0 0.436696)
(-10.6722 0 0.6796)
(-11.2213 0 0.225273)
(-11.0162 0 0.403289)
(-11.2786 0 0.000537144)
(-11.1625 0 0.107037)
(-11.1133 0 -0.229142)
(-11.0896 0 -0.198194)
(-10.7202 0 -0.451395)
(-10.7937 0 -0.501134)
(-10.1041 0 -0.654103)
(-10.273 0 -0.784447)
(-9.2809 0 -0.828039)
(-9.5392 0 -1.03389)
(-8.2764 0 -0.966923)
(-8.61474 0 -1.23895)
(-7.12365 0 -1.06757)
(-7.53016 0 -1.39325)
(-5.86013 0 -1.12968)
(-6.32188 0 -1.49473)
(-4.5245 0 -1.15538)
(-5.02942 0 -1.54504)
(-3.15307 0 -1.14901)
(-3.69219 0 -1.5491)
(-1.77618 0 -1.11781)
(-2.34459 0 -1.51527)
(-0.421942 0 -1.06298)
(-0.974396 0 -1.45613)
(0.877969 0 -0.99153)
(0.350088 0 -1.36794)
(2.1176 0 -0.928108)
(1.57057 0 -1.27308)
(3.32238 0 -0.913156)
(2.75 0 -1.20576)
(4.2045 0 -1.21968)
(-0.842181 0 1.89898)
(-0.511047 0 2.24194)
(-1.71638 0 2.03382)
(-1.24684 0 2.41289)
(-2.62121 0 2.11604)
(-2.14623 0 2.51465)
(-3.55453 0 2.15835)
(-3.05045 0 2.57831)
(-4.50727 0 2.15828)
(-3.97864 0 2.59556)
(-5.46652 0 2.11646)
(-4.91864 0 2.56584)
(-6.41638 0 2.03312)
(-5.85759 0 2.48883)
(-7.33836 0 1.90795)
(-6.77946 0 2.3638)
(-8.21137 0 1.74033)
(-7.66521 0 2.18953)
(-9.01179 0 1.52982)
(-8.4927 0 1.96476)
(-9.71363 0 1.27686)
(-9.23677 0 1.68881)
(-10.2892 0 0.983548)
(-9.86957 0 1.36247)
(-10.7101 0 0.654339)
(-10.3615 0 0.989077)
(-10.9496 0 0.296791)
(-10.6828 0 0.575194)
(-10.9841 0 -0.0780545)
(-10.8056 0 0.131259)
(-10.7989 0 -0.456472)
(-10.7087 0 -0.324936)
(-10.3881 0 -0.820487)
(-10.393 0 -0.775628)
(-9.75897 0 -1.15068)
(-9.85689 0 -1.19489)
(-8.92927 0 -1.43187)
(-9.11456 0 -1.5624)
(-7.92572 0 -1.65371)
(-8.1895 0 -1.8631)
(-6.78179 0 -1.81111)
(-7.11269 0 -2.08791)
(-5.53471 0 -1.90402)
(-5.92023 0 -2.23414)
(-4.2224 0 -1.93707)
(-4.65096 0 -2.30474)
(-2.87967 0 -1.91935)
(-3.34355 0 -2.30806)
(-1.53414 0 -1.8608)
(-2.02974 0 -2.25785)
(-0.222667 0 -1.76576)
(-0.693636 0 -2.16282)
(1.03352 0 -1.65044)
(0.55883 0 -2.02885)
(2.23638 0 -1.54941)
(1.74793 0 -1.89099)
(3.40002 0 -1.50658)
(2.87496 0 -1.7894)
(4.26688 0 -1.77261)
(-0.827384 0 2.72835)
(-0.490157 0 3.05231)
(-1.68148 0 2.87146)
(-1.19772 0 3.22967)
(-2.55761 0 2.95736)
(-2.06261 0 3.33271)
(-3.45452 0 2.99786)
(-2.92168 0 3.39599)
(-4.36602 0 2.98708)
(-3.80232 0 3.40691)
(-5.28241 0 2.92367)
(-4.69357 0 3.36229)
(-6.19053 0 2.80629)
(-5.58525 0 3.25945)
(-7.0739 0 2.6333)
(-6.46333 0 3.09571)
(-7.91263 0 2.40283)
(-7.31006 0 2.86805)
(-8.68345 0 2.11339)
(-8.1038 0 2.57361)
(-9.35989 0 1.76468)
(-8.81905 0 2.21049)
(-9.91299 0 1.3587)
(-9.42685 0 1.77895)
(-10.3128 0 0.900901)
(-9.89583 0 1.28299)
(-10.5309 0 0.401424)
(-10.1939 0 0.731752)
(-10.5429 0 -0.124438)
(-10.2911 0 0.139719)
(-10.3347 0 -0.654233)
(-10.1682 0 -0.467405)
(-9.90482 0 -1.16027)
(-9.83148 0 -1.06289)
(-9.26311 0 -1.61683)
(-9.28097 0 -1.61355)
(-8.4292 0 -2.00377)
(-8.53328 0 -2.09358)
(-7.43068 0 -2.30737)
(-7.61286 0 -2.48412)
(-6.30117 0 -2.52104)
(-6.55073 0 -2.7738)
(-5.07738 0 -2.64527)
(-5.38242 0 -2.95974)
(-3.79612 0 -2.6872)
(-4.14595 0 -3.04647)
(-2.49062 0 -2.65977)
(-2.87903 0 -3.04597)
(-1.19016 0 -2.57276)
(-1.60717 0 -2.97555)
(0.066507 0 -2.43553)
(-0.326105 0 -2.83998)
(1.26788 0 -2.27668)
(0.851649 0 -2.66092)
(2.41987 0 -2.13702)
(1.99504 0 -2.48276)
(3.52739 0 -2.05842)
(3.06045 0 -2.3449)
(4.37319 0 -2.28809)
(-0.780017 0 3.52481)
(-0.450913 0 3.81629)
(-1.58464 0 3.66974)
(-1.10465 0 3.99914)
(-2.40864 0 3.75445)
(-1.90996 0 4.10209)
(-3.2512 0 3.79078)
(-2.70389 0 4.16413)
(-4.10789 0 3.76964)
(-3.52103 0 4.16948)
(-4.97113 0 3.68704)
(-4.35046 0 4.11254)
(-5.82966 0 3.53919)
(-5.18412 0 3.98798)
(-6.66831 0 3.32215)
(-6.00939 0 3.79057)
(-7.46783 0 3.03195)
(-6.80943 0 3.51484)
(-8.20479 0 2.66535)
(-7.56285 0 3.15571)
(-8.85184 0 2.22096)
(-8.24366 0 2.7095)
(-9.3785 0 1.70083)
(-8.82161 0 2.17553)
(-9.75299 0 1.11229)
(-9.26323 0 1.55832)
(-9.94535 0 0.469779)
(-9.5336 0 0.869832)
(-9.93276 0 -0.204486)
(-9.60046 0 0.130899)
(-9.70089 0 -0.879794)
(-9.44991 0 -0.626087)
(-9.25302 0 -1.52077)
(-9.0928 0 -1.36214)
(-8.60252 0 -2.09564)
(-8.53182 0 -2.03794)
(-7.77067 0 -2.58003)
(-7.78565 0 -2.62346)
(-6.78526 0 -2.95745)
(-6.87894 0 -3.09699)
(-5.67962 0 -3.22027)
(-5.84211 0 -3.44521)
(-4.4893 0 -3.36986)
(-4.7096 0 -3.6655)
(-3.24988 0 -3.41608)
(-3.51815 0 -3.76398)
(-1.99374 0 -3.37465)
(-2.30359 0 -3.75599)
(-0.751931 0 -3.25455)
(-1.08204 0 -3.66089)
(0.441068 0 -3.07355)
(0.116862 0 -3.48283)
(1.5781 0 -2.87324)
(1.22503 0 -3.25913)
(2.66834 0 -2.69556)
(2.30927 0 -3.04282)
(3.70891 0 -2.57687)
(3.30629 0 -2.86682)
(4.52657 0 -2.76415)
(-0.706152 0 4.26124)
(-0.397514 0 4.50792)
(-1.43692 0 4.40854)
(-0.974977 0 4.69797)
(-2.1872 0 4.49281)
(-1.69778 0 4.80265)
(-2.95698 0 4.52671)
(-2.40686 0 4.86591)
(-3.74316 0 4.49832)
(-3.14316 0 4.86929)
(-4.53969 0 4.40099)
(-3.89518 0 4.80482)
(-5.33669 0 4.22812)
(-4.65675 0 4.6643)
(-6.12003 0 3.97305)
(-5.41643 0 4.4396)
(-6.87099 0 3.62925)
(-6.15831 0 4.12234)
(-7.56602 0 3.19124)
(-6.86136 0 3.70469)
(-8.17696 0 2.656)
(-7.49933 0 3.18066)
(-8.67175 0 2.0252)
(-8.0407 0 2.5481)
(-9.01659 0 1.30781)
(-8.44941 0 1.81185)
(-9.1799 0 0.52293)
(-8.68695 0 0.987059)
(-9.13894 0 -0.299059)
(-8.71804 0 0.102196)
(-8.88296 0 -1.11715)
(-8.53828 0 -0.801269)
(-8.42029 0 -1.88753)
(-8.1637 0 -1.67128)
(-7.76787 0 -2.57362)
(-7.59933 0 -2.46357)
(-6.94786 0 -3.14821)
(-6.86521 0 -3.14579)
(-5.98708 0 -3.59271)
(-5.98485 0 -3.69455)
(-4.91792 0 -3.89888)
(-4.98714 0 -4.09446)
(-3.77391 0 -4.0693)
(-3.90477 0 -4.34379)
(-2.58881 0 -4.11613)
(-2.77263 0 -4.45004)
(-1.39348 0 -4.05503)
(-1.62206 0 -4.43163)
(-0.227188 0 -3.89832)
(-0.465725 0 -4.30455)
(0.889857 0 -3.67537)
(0.629401 0 -4.08475)
(1.95836 0 -3.43536)
(1.67286 0 -3.8213)
(2.97872 0 -3.21907)
(2.68635 0 -3.56697)
(3.94403 0 -3.05689)
(3.60932 0 -3.35098)
(4.72675 0 -3.19889)
(-0.608851 0 4.91529)
(-0.332316 0 5.10425)
(-1.24387 0 5.0681)
(-0.812857 0 5.30525)
(-1.89994 0 5.15522)
(-1.43188 0 5.41523)
(-2.57796 0 5.19067)
(-2.03661 0 5.48404)
(-3.27612 0 5.16003)
(-2.67375 0 5.49075)
(-3.98973 0 5.05393)
(-3.33085 0 5.42503)
(-4.7102 0 4.86275)
(-4.00375 0 5.27568)
(-5.42449 0 4.57673)
(-4.68227 0 5.03142)
(-6.11457 0 4.18625)
(-5.35161 0 4.6806)
(-6.75701 0 3.683)
(-5.99148 0 4.21213)
(-7.32296 0 3.06178)
(-6.57571 0 3.61713)
(-7.7787 0 2.32339)
(-7.07171 0 2.89128)
(-8.08808 0 1.47876)
(-7.4405 0 2.03932)
(-8.21763 0 0.552918)
(-7.63908 0 1.08006)
(-8.146 0 -0.413584)
(-7.62878 0 0.0519908)
(-7.86701 0 -1.36783)
(-7.42046 0 -0.992191)
(-7.39565 0 -2.2582)
(-7.0342 0 -1.98623)
(-6.75183 0 -3.04543)
(-6.47718 0 -2.8836)
(-5.9571 0 -3.70113)
(-5.7693 0 -3.65202)
(-5.03559 0 -4.20509)
(-4.93095 0 -4.26768)
(-4.01814 0 -4.54862)
(-3.9889 0 -4.71231)
(-2.93541 0 -4.73556)
(-2.97278 0 -4.98575)
(-1.81931 0 -4.77878)
(-1.91509 0 -5.09616)
(-0.701532 0 -4.69199)
(-0.838832 0 -5.06344)
(0.376867 0 -4.4975)
(0.217789 0 -4.8997)
(1.4091 0 -4.23742)
(1.2176 0 -4.64097)
(2.40363 0 -3.95989)
(2.18869 0 -4.34455)
(3.34685 0 -3.70395)
(3.1217 0 -4.0515)
(4.23021 0 -3.49608)
(3.96522 0 -3.79405)
(4.9719 0 -3.59086)
(-0.490631 0 5.46623)
(-0.257355 0 5.5848)
(-1.00987 0 5.62888)
(-0.62191 0 5.80179)
(-1.55206 0 5.72334)
(-1.11767 0 5.92149)
(-2.11922 0 5.76568)
(-1.59918 0 6.00109)
(-2.71079 0 5.73904)
(-2.11861 0 6.01732)
(-3.32351 0 5.63135)
(-2.66229 0 5.95755)
(-3.95017 0 5.42977)
(-3.22838 0 5.80745)
(-4.57906 0 5.12117)
(-3.80808 0 5.55249)
(-5.19315 0 4.69242)
(-4.38809 0 5.17738)
(-5.76946 0 4.13182)
(-4.94939 0 4.66733)
(-6.27885 0 3.4313)
(-5.46667 0 4.00998)
(-6.6865 0 2.59016)
(-5.90704 0 3.19824)
(-6.95368 0 1.62125)
(-6.22817 0 2.23575)
(-7.04665 0 0.557498)
(-6.38084 0 1.1468)
(-6.94303 0 -0.547754)
(-6.32233 0 -0.0206357)
(-6.64435 0 -1.6283)
(-6.0895 0 -1.19659)
(-6.17381 0 -2.62594)
(-5.70116 0 -2.30064)
(-5.55268 0 -3.50188)
(-5.16601 0 -3.28882)
(-4.79976 0 -4.22867)
(-4.50168 0 -4.13163)
(-3.93444 0 -4.78455)
(-3.72299 0 -4.80586)
(-2.98568 0 -5.15989)
(-2.85521 0 -5.28844)
(-1.98016 0 -5.35908)
(-1.92114 0 -5.58194)
(-0.947626 0 -5.39225)
(-0.951496 0 -5.6939)
(0.0690669 0 -5.27757)
(0.0244171 0 -5.63811)
(1.04927 0 -5.04947)
(0.965586 0 -5.44066)
(1.99845 0 -4.75609)
(1.88075 0 -5.15244)
(2.90954 0 -4.44292)
(2.76621 0 -4.82389)
(3.76801 0 -4.14674)
(3.6102 0 -4.4925)
(4.56377 0 -3.8923)
(4.36884 0 -4.19317)
(5.25883 0 -3.93905)
(-0.354089 0 5.89517)
(-0.174876 0 5.9316)
(-0.739627 0 6.0727)
(-0.406229 0 6.17049)
(-1.14973 0 6.17948)
(-0.761743 0 6.30441)
(-1.58755 0 6.23461)
(-1.10259 0 6.40024)
(-2.05384 0 6.21889)
(-1.48662 0 6.43239)
(-2.5469 0 6.11749)
(-1.89852 0 6.38607)
(-3.06107 0 5.91429)
(-2.33918 0 6.24377)
(-3.58628 0 5.59258)
(-2.8013 0 5.98765)
(-4.10701 0 5.1353)
(-3.27347 0 5.59864)
(-4.60143 0 4.52678)
(-3.73864 0 5.05786)
(-5.04093 0 3.75536)
(-4.1736 0 4.34892)
(-5.39048 0 2.818)
(-4.54671 0 3.46145)
(-5.61016 0 1.72964)
(-4.81195 0 2.39726)
(-5.66108 0 0.533766)
(-4.9097 0 1.18335)
(-5.52595 0 -0.70068)
(-4.79438 0 -0.115348)
(-5.21407 0 -1.89308)
(-4.54712 0 -1.41002)
(-4.75767 0 -2.9815)
(-4.17128 0 -2.60559)
(-4.17635 0 -3.93195)
(-3.67611 0 -3.66808)
(-3.48401 0 -4.71936)
(-3.07462 0 -4.57263)
(-2.69299 0 -5.32008)
(-2.37326 0 -5.29783)
(-1.83005 0 -5.7223)
(-1.59895 0 -5.81247)
(-0.917204 0 -5.92802)
(-0.759568 0 -6.12318)
(0.00601987 0 -5.94667)
(0.0965927 0 -6.22836)
(0.909863 0 -5.80666)
(0.950571 0 -6.149)
(1.79284 0 -5.55144)
(1.78837 0 -5.92796)
(2.65117 0 -5.22828)
(2.60939 0 -5.61495)
(3.47014 0 -4.88018)
(3.39856 0 -5.25477)
(4.23664 0 -4.5442)
(4.14562 0 -4.88624)