/*--------------------------------*- C++ -*----------------------------------*\
  =========                 |
  \\      /  F ield         | OpenFOAM: The Open Source CFD Toolbox
   \\    /   O peration     | Website:  https://openfoam.org
    \\  /    A nd           | Version:  dev
     \\/     M anipulation  |
\*---------------------------------------------------------------------------*/
FoamFile
{
    version     2.0;
    format      ascii;
    class       surfaceScalarField;
    location    "4";
    object      phi;
}
// * * * * * * * * * * * * * * * * * * * * * * * * * * * * * * * * * * * * * //

dimensions      [0 3 -1 0 0 0 0];

internalField   nonuniform List<scalar> 
5457
(
0.198418
0.00158236
0.19648
0.00193733
0.194192
0.00228803
0.191509
0.0026835
0.188428
0.0030811
0.184951
0.00347664
0.181073
0.00387843
0.176779
0.00429384
0.172051
0.00472802
0.166866
0.005185
0.161197
0.00566826
0.155017
0.00618076
0.148292
0.00672467
0.140991
0.00730102
0.133082
0.00790917
0.124536
0.00854611
0.11533
0.00920555
0.105453
0.00987685
0.0949096
0.0105438
0.0837263
0.0111833
0.0719619
0.0117644
0.0597137
0.0122482
0.0471249
0.0125887
0.0343846
0.0127403
0.0216894
0.0126953
0.00903901
0.0126504
-0.00291534
0.0119543
-0.00847188
0.00555654
-0.00804294
-0.000428938
-0.00804294
0.199928
0.00165419
0.199176
0.00268974
0.197965
0.00349891
0.196332
0.00431661
0.194272
0.00514105
0.191782
0.0059666
0.188855
0.00680527
0.185478
0.00767054
0.181634
0.00857275
0.177298
0.00952019
0.172447
0.0105201
0.167048
0.0115788
0.161072
0.0127011
0.154483
0.0138897
0.147249
0.0151439
0.139336
0.0164589
0.130718
0.0178231
0.121378
0.0192167
0.111314
0.0206083
0.100544
0.0219529
0.08912
0.0231887
0.0771325
0.0242358
0.0647265
0.0249947
0.0521189
0.0253479
0.0396583
0.0251559
0.0281077
0.0242009
0.0185969
0.0214651
0.00879891
0.0153546
0.00118434
0.00718564
-0.00685861
0.199781
0.00187361
0.199087
0.00338355
0.197946
0.00463979
0.196409
0.00585316
0.194483
0.0070671
0.192164
0.00828554
0.189447
0.00952257
0.186322
0.0107959
0.182774
0.0121205
0.178785
0.0135089
0.174333
0.014972
0.169393
0.0165196
0.163934
0.0181595
0.157927
0.0198965
0.151339
0.0217318
0.144138
0.0236603
0.136293
0.0256683
0.127779
0.0277303
0.118583
0.0298049
0.108705
0.0318305
0.0981734
0.0337204
0.0870512
0.035358
0.0754544
0.0365914
0.0635772
0.0372252
0.051735
0.036998
0.0403994
0.0355366
0.0297408
0.0321237
0.0191673
0.025928
0.00959839
0.0167546
0.00273978
0.199703
0.00217053
0.199008
0.00407882
0.197887
0.00576027
0.196376
0.007364
0.194488
0.00895513
0.192223
0.0105514
0.189575
0.0121701
0.186539
0.0138317
0.183105
0.0155548
0.179259
0.0173552
0.174984
0.0192468
0.170261
0.021242
0.16507
0.0233509
0.159386
0.0255805
0.153185
0.0279333
0.14644
0.0304052
0.139126
0.0329824
0.131219
0.0356373
0.1227
0.0383238
0.113559
0.0409712
0.103802
0.0434771
0.0934599
0.0457004
0.0825986
0.0474527
0.0713357
0.0484881
0.0598435
0.0484902
0.0483191
0.047061
0.0368127
0.0436301
0.0251891
0.0375517
0.0133362
0.0286075
0.0160759
0.199667
0.0025031
0.198964
0.00478206
0.197863
0.00686154
0.196381
0.00884563
0.194533
0.0108038
0.192318
0.012766
0.189734
0.0147538
0.186776
0.0167902
0.183434
0.0188963
0.179699
0.0210907
0.175556
0.0233896
0.170991
0.0258069
0.165988
0.0283544
0.160528
0.0310404
0.154592
0.0338685
0.148162
0.0368354
0.141217
0.0399279
0.133735
0.0431185
0.125699
0.0463604
0.11709
0.0495803
0.107896
0.0526704
0.0981176
0.0554793
0.0877676
0.0578026
0.0768815
0.0593742
0.0655113
0.0598604
0.0537102
0.0588621
0.0414557
0.0558846
0.028589
0.0504185
0.014853
0.0423435
0.0309289
0.199653
0.00285029
0.198949
0.00548609
0.197871
0.00793945
0.196427
0.0102897
0.194627
0.0126037
0.192473
0.0149194
0.189964
0.0172634
0.187093
0.0196609
0.183854
0.0221355
0.180237
0.0247078
0.176231
0.0273959
0.171822
0.0302153
0.166998
0.033179
0.161742
0.0362961
0.156039
0.0395712
0.149873
0.0430018
0.143225
0.0465758
0.136076
0.0502676
0.128404
0.0540324
0.120185
0.0577997
0.11139
0.0614646
0.101992
0.064878
0.0919576
0.0678368
0.0812568
0.0700751
0.0698568
0.0712604
0.0577191
0.0709997
0.0447624
0.0688412
0.0308504
0.0643305
0.0158738
0.05732
0.0468027
0.19965
0.00320023
0.198954
0.00618206
0.197905
0.00898904
0.196505
0.0116894
0.194763
0.0143459
0.192681
0.0170013
0.190257
0.0196869
0.187488
0.0224304
0.184366
0.0252574
0.180883
0.0281905
0.177029
0.0312496
0.172793
0.0344517
0.168161
0.0378108
0.16312
0.0413374
0.157654
0.0450371
0.151746
0.048909
0.145379
0.052943
0.13853
0.0571168
0.131172
0.0613904
0.123271
0.0657003
0.114785
0.0699511
0.105657
0.0740057
0.0958196
0.0776745
0.085189
0.0807057
0.0736709
0.0827785
0.0611639
0.0835068
0.0475572
0.0824479
0.03276
0.0791277
0.0167836
0.0732965
0.0635863
0.199655
0.00354557
0.198975
0.00686215
0.197959
0.0100048
0.19661
0.0130381
0.194934
0.0160219
0.192934
0.0190018
0.190608
0.0220129
0.187953
0.0250855
0.184963
0.0282472
0.181631
0.0315225
0.177948
0.0349329
0.173902
0.0384969
0.169483
0.0422301
0.164676
0.0461446
0.159465
0.0502477
0.153833
0.054541
0.147758
0.059018
0.141214
0.0636612
0.134166
0.0684383
0.12657
0.0732967
0.118365
0.078156
0.109472
0.0828982
0.0997895
0.0873571
0.0891904
0.0913048
0.0775281
0.0944408
0.0646501
0.0963848
0.0504198
0.0966783
0.0347698
0.0947776
0.0177907
0.0902756
0.081377
0.199664
0.00388139
0.199006
0.00751994
0.19803
0.010981
0.196739
0.0143295
0.195137
0.0176239
0.193227
0.0209116
0.191009
0.0242306
0.188481
0.027614
0.185637
0.0310911
0.182471
0.034688
0.178976
0.0384281
0.175141
0.0423316
0.170956
0.0464158
0.166406
0.0506948
0.161475
0.0551785
0.156144
0.0598721
0.150388
0.0647739
0.144175
0.0698737
0.137464
0.0751495
0.130198
0.0805629
0.122301
0.0860533
0.11367
0.0915291
0.104172
0.0968553
0.0936373
0.101839
0.0818681
0.10621
0.0686527
0.1096
0.0538049
0.111526
0.0372387
0.111344
0.0190846
0.10843
0.100462
0.199677
0.00420416
0.199047
0.00815017
0.198116
0.0119123
0.196887
0.0155577
0.195367
0.0191448
0.193556
0.0227221
0.191456
0.0263304
0.189066
0.0300047
0.18638
0.0337762
0.183396
0.0376727
0.180105
0.0417192
0.176499
0.0459376
0.172567
0.0503472
0.168297
0.0549646
0.163673
0.0598031
0.158673
0.064872
0.153271
0.0701762
0.14743
0.0757142
0.141103
0.0814767
0.134223
0.0874431
0.126699
0.0935772
0.118408
0.0998195
0.109187
0.106077
0.0988234
0.112203
0.0870566
0.117977
0.0735939
0.123063
0.0581522
0.126968
0.0405549
0.128941
0.020903
0.128082
0.121365
0.199693
0.00451123
0.199095
0.00874855
0.198213
0.0127939
0.197053
0.0167174
0.19562
0.0205781
0.193916
0.0244259
0.191943
0.0283034
0.1897
0.0322475
0.187185
0.0362911
0.184395
0.0404636
0.181323
0.0447912
0.177962
0.0492979
0.174305
0.054005
0.170337
0.0589317
0.166046
0.0640948
0.161409
0.069509
0.156399
0.0751861
0.150978
0.0811348
0.145095
0.0873602
0.138676
0.0938618
0.131622
0.100631
0.123793
0.107648
0.115
0.11487
0.104987
0.122215
0.093424
0.12954
0.0799032
0.136584
0.063973
0.142898
0.045239
0.147675
0.0236141
0.149706
0.144979
0.199711
0.00480054
0.199148
0.00931156
0.19832
0.0136215
0.197234
0.0178037
0.195894
0.0219182
0.194303
0.0260162
0.192465
0.0301418
0.190379
0.0343336
0.188044
0.0386258
0.185459
0.043049
0.182619
0.0476311
0.179519
0.0523975
0.176153
0.0573715
0.172509
0.062575
0.168576
0.0680286
0.164333
0.0737519
0.159755
0.0797642
0.154805
0.0860848
0.149431
0.0927335
0.143562
0.0997311
0.137094
0.107099
0.129882
0.11486
0.12172
0.123032
0.11232
0.131616
0.101279
0.14058
0.088052
0.149811
0.07193
0.15902
0.0520924
0.167513
0.0278895
0.173909
0.172868
0.19973
0.00507047
0.199205
0.00983634
0.198435
0.0143915
0.197427
0.0188123
0.196185
0.0231603
0.194713
0.0274874
0.193016
0.0318392
0.191094
0.0362555
0.188948
0.0407716
0.186578
0.0454193
0.183982
0.0502276
0.181156
0.0552232
0.178096
0.0604313
0.174795
0.065876
0.171242
0.0715813
0.167422
0.0775717
0.163314
0.0838731
0.158884
0.0905145
0.154088
0.0975297
0.148859
0.10496
0.143104
0.112855
0.136683
0.121281
0.129397
0.130318
0.120948
0.140065
0.11089
0.150638
0.0985519
0.162149
0.0829109
0.174661
0.0624451
0.187978
0.0351314
0.201223
0.208
0.199751
0.00531977
0.199266
0.0103206
0.198557
0.0151009
0.197629
0.0197398
0.19649
0.0243001
0.195142
0.0288347
0.193591
0.03339
0.19184
0.0380069
0.18989
0.0427216
0.187743
0.0475665
0.185399
0.0525716
0.182858
0.0577645
0.180117
0.0631717
0.177174
0.0688193
0.174021
0.0747338
0.17065
0.0809436
0.167043
0.0874799
0.163178
0.0943796
0.15902
0.101688
0.154518
0.109462
0.149597
0.117776
0.144146
0.126732
0.137997
0.136466
0.130892
0.14717
0.122415
0.159115
0.111871
0.172693
0.0980309
0.188502
0.078552
0.207457
0.0486764
0.231099
0.256676
0.199772
0.00554747
0.19933
0.0107625
0.198684
0.0157474
0.19784
0.0205834
0.196806
0.0253345
0.195586
0.0300544
0.194186
0.0347901
0.19261
0.0395832
0.190861
0.0444703
0.188943
0.0494845
0.186859
0.0546561
0.18461
0.0600132
0.182198
0.0655832
0.179625
0.0713932
0.176887
0.0774714
0.173982
0.0838484
0.170903
0.0905591
0.167637
0.0976453
0.164166
0.105159
0.16046
0.113167
0.156476
0.12176
0.152149
0.13106
0.147376
0.141238
0.142001
0.152545
0.135761
0.165356
0.128184
0.18027
0.11833
0.198355
0.103947
0.22184
0.0777176
0.257328
0.334394
0.0040566
-0.0040566
0.00791956
-0.00386296
0.011152
-0.00323244
0.0137691
-0.00261712
0.0158761
-0.00210694
0.0175764
-0.00170036
0.0189587
-0.00138224
0.0200972
-0.00113851
0.0210531
-0.000955977
0.0218754
-0.000822284
0.0226015
-0.000726086
0.0232582
-0.000656732
0.0238621
-0.000603848
0.0244196
-0.000557469
0.0249286
-0.000509038
0.0253816
-0.000453035
0.0257698
-0.00038816
0.0260862
-0.000316386
0.0263252
-0.000238972
0.0264777
-0.000152528
0.0265313
-5.35949e-05
0.0264696
6.16883e-05
0.0262965
0.000173055
0.0260467
0.00024984
0.0257775
0.000269166
0.0255407
0.000236779
0.0253627
0.000178012
0.0252581
0.000104685
0.0252376
2.04943e-05
-8.24735e-05
0.00361544
-0.00767204
0.00713041
-0.00737793
0.0101306
-0.00623264
0.012624
-0.00511053
0.0147067
-0.00418963
0.0164673
-0.00346099
0.0179783
-0.00289324
0.0192982
-0.00245841
0.020474
-0.00213172
0.0215427
-0.00189103
0.0225333
-0.0017166
0.0234668
-0.00159025
0.0243574
-0.00149446
0.0252123
-0.00141243
0.0260327
-0.00132937
0.0268149
-0.00123523
0.0275541
-0.00112736
0.0282479
-0.00101019
0.0288978
-0.000888915
0.0295051
-0.000759772
0.0300582
-0.000606697
0.0305373
-0.000417453
0.0309284
-0.00021808
0.0312443
-6.60077e-05
0.0315227
-9.23462e-06
0.0317997
-4.02667e-05
0.0320949
-0.000117152
0.032417
-0.000217393
0.0327582
-0.000320711
-0.000359333
0.00294009
-0.0106121
0.00571079
-0.0101486
0.00803338
-0.00855523
0.00994946
-0.00702661
0.0115515
-0.00579171
0.0129108
-0.00482027
0.014083
-0.00406547
0.0151114
-0.00348681
0.01603
-0.00305032
0.016866
-0.00272701
0.0176408
-0.00249141
0.0183707
-0.00232015
0.019067
-0.00219067
0.0197356
-0.0020811
0.0203778
-0.00197155
0.0209902
-0.00184766
0.0215678
-0.00170491
0.0221079
-0.00155029
0.0226144
-0.00139543
0.0230956
-0.00124101
0.0235545
-0.00106553
0.0239824
-0.000845408
0.0243612
-0.000596859
0.0246814
-0.00038621
0.0249494
-0.000277213
0.025182
-0.000272862
0.02538
-0.00031519
0.0255521
-0.000389457
0.0257233
-0.000491912
-0.000510292
0.00221211
-0.0128242
0.00411417
-0.0120507
0.0056225
-0.0100636
0.0068304
-0.00823451
0.00782538
-0.00678669
0.00865728
-0.00565217
0.0093626
-0.00477079
0.00996804
-0.00409226
0.0104946
-0.0035769
0.0109595
-0.00319188
0.0113766
-0.00290856
0.0117572
-0.00270073
0.0121098
-0.00254324
0.0124403
-0.00241157
0.0127514
-0.00228267
0.0130416
-0.00213793
0.0133052
-0.00196846
0.0135346
-0.00177972
0.0137288
-0.00158964
0.0139005
-0.00141271
0.0140673
-0.00123229
0.01423
-0.00100809
0.0143486
-0.000715512
0.0143675
-0.000405066
0.0142539
-0.000163605
0.0140225
-4.14358e-05
0.013712
-4.71395e-06
0.013346
-2.34829e-05
0.0129671
-0.00011296
-0.000354259
0.00138005
-0.0142043
0.00232386
-0.0129945
0.00295266
-0.0106924
0.00337067
-0.00865251
0.00367244
-0.00708846
0.00388082
-0.00586055
0.00401525
-0.00490521
0.00408981
-0.00416682
0.00411633
-0.00360342
0.00410442
-0.00317996
0.00406208
-0.00286622
0.0039963
-0.00263496
0.00391323
-0.00246016
0.00381842
-0.00231676
0.00371717
-0.00218142
0.00361299
-0.00203374
0.00350379
-0.00185926
0.00337663
-0.00165256
0.00320497
-0.00141798
0.00295876
-0.0011665
0.00262955
-0.000903075
0.00223887
-0.00061742
0.0018511
-0.000327738
0.00151882
-7.27872e-05
0.00128439
7.08198e-05
0.00114476
9.82024e-05
0.0010544
8.56385e-05
0.000970993
5.99279e-05
0.000868067
-1.00326e-05
-0.000256519
0.00042474
-0.014629
0.00035065
-0.0129204
9.00316e-06
-0.0103507
-0.000357674
-0.00828584
-0.000809495
-0.00663664
-0.00130126
-0.00536878
-0.00181596
-0.00439052
-0.00233982
-0.00364296
-0.00286445
-0.00307879
-0.00338423
-0.00266019
-0.00389502
-0.00235543
-0.00439332
-0.00213666
-0.00487619
-0.00197729
-0.00534087
-0.00185208
-0.00578338
-0.00173891
-0.00619734
-0.00161979
-0.0065747
-0.0014819
-0.00690911
-0.00131815
-0.00720061
-0.00112648
-0.00745818
-0.000908936
-0.00769174
-0.000669512
-0.00789787
-0.000411287
-0.00807462
-0.000150991
-0.00820601
5.8605e-05
-0.00832034
0.000185148
-0.00844143
0.000219294
-0.0085667
0.000210909
-0.00868492
0.000178145
-0.00876608
7.11276e-05
-0.000156269
-0.000621687
-0.0140074
-0.00173688
-0.0118052
-0.00297002
-0.00911759
-0.0042407
-0.00701515
-0.00548359
-0.00539375
-0.00667391
-0.00417846
-0.0077892
-0.00327523
-0.00881952
-0.00261264
-0.00976004
-0.00213827
-0.0106109
-0.00180932
-0.0113769
-0.00158945
-0.0120656
-0.00144799
-0.0126855
-0.00135732
-0.0132451
-0.00129247
-0.0137501
-0.00123396
-0.0142021
-0.00116781
-0.0145994
-0.00108458
-0.0149402
-0.000977335
-0.0152266
-0.000840114
-0.0154666
-0.000668866
-0.0156724
-0.000463743
-0.0158507
-0.000232972
-0.0160064
4.72572e-06
-0.0161367
0.000188876
-0.0162576
0.000306022
-0.0163893
0.000351061
-0.0165261
0.0003477
-0.0166502
0.000302166
-0.0167468
0.000167791
-2.71673e-05
-0.00174883
-0.0122585
-0.00390867
-0.00964536
-0.00607184
-0.00695442
-0.00815189
-0.0049351
-0.0100712
-0.00347443
-0.0117961
-0.00245356
-0.013315
-0.00175634
-0.0146382
-0.00128941
-0.0157857
-0.00099077
-0.016781
-0.000814082
-0.0176473
-0.000723094
-0.0184055
-0.000689854
-0.0190726
-0.000690135
-0.0196647
-0.000700387
-0.0201933
-0.000705375
-0.0206646
-0.000696566
-0.0210795
-0.000669592
-0.0214373
-0.000619609
-0.0217393
-0.000538097
-0.0219929
-0.000415283
-0.0222096
-0.000247035
-0.0224008
-4.17358e-05
-0.0225632
0.000167065
-0.0227081
0.000333799
-0.0228474
0.000445387
-0.0229898
0.000493388
-0.023134
0.000491892
-0.0232712
0.000439375
-0.0234112
0.000307849
0.000149658
-0.00300363
-0.0092549
-0.00627198
-0.00637701
-0.00933246
-0.00389394
-0.0120959
-0.0021717
-0.0145103
-0.00105996
-0.0165875
-0.000376388
-0.0183524
8.60187e-06
-0.0198229
0.000181054
-0.0210408
0.000227171
-0.0220629
0.000207957
-0.0229383
0.000152345
-0.0237036
7.53782e-05
-0.0243811
-1.25594e-05
-0.0249856
-9.59121e-05
-0.0255261
-0.00016485
-0.0260105
-0.000212213
-0.0264402
-0.000239842
-0.0268132
-0.000246617
-0.0271298
-0.000221495
-0.0273981
-0.000147003
-0.0276314
-1.37086e-05
-0.0278343
0.000161146
-0.0280136
0.000346395
-0.0281864
0.000506549
-0.028354
0.000612986
-0.0285195
0.00065894
-0.0286836
0.000655901
-0.028847
0.000602855
-0.0290245
0.000485342
0.000357246
-0.00456451
-0.00469039
-0.00937268
-0.00156883
-0.0135594
0.000292807
-0.0169623
0.00123116
-0.0196573
0.00163509
-0.0217759
0.00174217
-0.0234523
0.00168496
-0.0248097
0.00153845
-0.0259361
0.00135363
-0.0268849
0.00115678
-0.0276961
0.000963469
-0.0283979
0.00077726
-0.0290129
0.000602437
-0.0295607
0.000451815
-0.0300599
0.000334358
-0.0305189
0.00024684
-0.0309366
0.00017786
-0.0313063
0.000123009
-0.0316238
9.60509e-05
-0.0318934
0.000122606
-0.0321256
0.000218449
-0.032339
0.000374533
-0.0325482
0.000555608
-0.032755
0.000713388
-0.0329558
0.000813762
-0.0331475
0.000850644
-0.0333299
0.00083828
-0.0335096
0.000782621
-0.0337041
0.00067982
0.000579682
-0.00652271
0.00183232
-0.0122202
0.00412868
-0.0166684
0.00474101
-0.0201425
0.00470518
-0.0229006
0.00439326
-0.0250989
0.00394045
-0.0268631
0.00344912
-0.0282928
0.0029682
-0.0294629
0.00252373
-0.0304402
0.00213406
-0.0312773
0.00180058
-0.0320069
0.00150682
-0.032647
0.0012426
-0.0332132
0.00101798
-0.0337241
0.000845261
-0.0341935
0.000716264
-0.034621
0.000605356
-0.0349954
0.000497433
-0.0353099
0.000410507
-0.0355738
0.000386535
-0.0358108
0.000455458
-0.0360435
0.000607229
-0.0362818
0.000793887
-0.0365227
0.000954295
-0.0367554
0.00104644
-0.0369703
0.00106553
-0.0371668
0.00103485
-0.0373575
0.000973304
-0.0375632
0.00088548
0.000811933
-0.00775471
0.00958703
-0.0141743
0.0105483
-0.019159
0.00972571
-0.0229807
0.00852686
-0.0258949
0.00730745
-0.0281365
0.0061821
-0.0298953
0.00520788
-0.0313025
0.00437542
-0.0324427
0.00366393
-0.0333901
0.0030814
-0.0342087
0.00261921
-0.0349324
0.00223056
-0.03557
0.00188016
-0.0361322
0.00158021
-0.0366436
0.00135662
-0.037125
0.00119768
-0.0375739
0.00105427
-0.0379678
0.000891399
-0.0382902
0.000732895
-0.0385522
0.00064848
-0.0387882
0.000691447
-0.0390313
0.000850313
-0.0392942
0.00105679
-0.0395681
0.00122826
-0.0398325
0.00131081
-0.0400694
0.00130242
-0.0402774
0.0012429
-0.0404751
0.001171
-0.0406877
0.0010981
0.00105
-0.00929421
0.0188812
-0.0169335
0.0181875
-0.0223406
0.0151328
-0.026174
0.0123603
-0.0289866
0.01012
-0.0310763
0.00827179
-0.0326852
0.00681676
-0.0339736
0.00566383
-0.0350108
0.00470115
-0.0358677
0.00393832
-0.0366274
0.0033789
-0.0373254
0.00292858
-0.0379469
0.00250165
-0.0384876
0.0021209
-0.0389817
0.00185072
-0.0394658
0.00168176
-0.0399354
0.00152385
-0.0403482
0.00130423
-0.0406693
0.00105394
-0.0409117
0.00089085
-0.0411297
0.000909529
-0.0413742
0.00109478
-0.0416608
0.00134343
-0.0419717
0.00153912
-0.0422719
0.00161103
-0.0425317
0.00156223
-0.0427477
0.00145891
-0.0429469
0.00137018
-0.0431617
0.00131287
0.00129009
-0.0121488
0.0310301
-0.0213088
0.0273475
-0.0266378
0.0204618
-0.0299027
0.0156252
-0.0322944
0.0125117
-0.0339928
0.00997017
-0.035269
0.00809298
-0.0363409
0.0067357
-0.0372129
0.00557316
-0.0379152
0.00464063
-0.0385732
0.00403694
-0.0392362
0.00359153
-0.0398364
0.00310187
-0.0403335
0.00261801
-0.0407828
0.00230003
-0.0412566
0.00215558
-0.0417511
0.00201833
-0.0421891
0.0017422
-0.0425009
0.00136573
-0.0427008
0.00109079
-0.0428787
0.00108744
-0.0431153
0.00133134
-0.0434284
0.00165658
-0.0437845
0.00189518
-0.044128
0.00195454
-0.0444122
0.00184641
-0.04463
0.0016767
-0.0448217
0.00156195
-0.0450331
0.00152426
0.00152822
-0.0171774
0.0482075
-0.0282144
0.0383845
-0.032722
0.0249693
-0.0341959
0.0170992
-0.0358291
0.0141449
-0.0368542
0.0109953
-0.0375561
0.00879486
-0.0383664
0.00754599
-0.0390849
0.00629171
-0.0395573
0.00511298
-0.0400435
0.00452317
-0.040672
0.00422
-0.0412615
0.00369145
-0.0416902
0.00304673
-0.0420539
0.00266366
-0.0425052
0.00260689
-0.0430456
0.00255872
-0.0435327
0.00222932
-0.0438327
0.0016657
-0.0439562
0.00121428
-0.0440606
0.00119189
-0.0442784
0.00154913
-0.0446254
0.00200357
-0.0450404
0.00231016
-0.0454385
0.00235266
-0.0457493
0.0021572
-0.045959
0.00188638
-0.0461292
0.00173223
-0.0463314
0.0017264
0.00176145
0.207447
0.00576025
0.207034
0.0111751
0.206432
0.0163499
0.205647
0.0213679
0.204688
0.0262938
0.20356
0.0311819
0.202271
0.0360797
0.200825
0.0410289
0.199229
0.0460666
0.197487
0.0512259
0.195607
0.0565369
0.193592
0.062028
0.191448
0.0677266
0.189181
0.07366
0.186796
0.0798569
0.184296
0.0863484
0.181685
0.0931705
0.178964
0.100366
0.176134
0.107989
0.173192
0.116109
0.170136
0.124816
0.16696
0.134236
0.163659
0.144539
0.160236
0.155969
0.156713
0.168879
0.153185
0.183798
0.150019
0.201521
0.148896
0.222963
0.160623
0.245601
0.25873
0.236286
0.21249
0.00595268
0.212118
0.011548
0.211574
0.0168936
0.210868
0.0220739
0.210007
0.0271543
0.209
0.0321895
0.207853
0.0372268
0.206574
0.0423082
0.20517
0.0474703
0.20365
0.052746
0.202022
0.058165
0.200295
0.063755
0.198479
0.0695427
0.196584
0.0755547
0.194622
0.0818185
0.192607
0.0883642
0.190551
0.0952257
0.188474
0.102444
0.186396
0.110067
0.184346
0.118159
0.182364
0.126798
0.180511
0.136088
0.178887
0.146163
0.177663
0.157193
0.177162
0.16938
0.178038
0.182922
0.181709
0.19785
0.190782
0.213891
0.206264
0.230118
0.245604
0.219391
0.217658
0.00612263
0.217329
0.011877
0.21685
0.0173723
0.21623
0.0226936
0.215478
0.0279068
0.214601
0.0330662
0.213609
0.0382191
0.21251
0.0434069
0.211315
0.0486658
0.210033
0.0540277
0.208677
0.0595213
0.207258
0.0651732
0.205793
0.0710085
0.204295
0.0770519
0.202785
0.0833284
0.201285
0.089865
0.199819
0.0966912
0.198421
0.103841
0.197134
0.111355
0.196012
0.119281
0.195134
0.127676
0.194614
0.136609
0.194621
0.146156
0.195419
0.156394
0.197419
0.16738
0.201232
0.179109
0.207627
0.191455
0.217264
0.204253
0.22986
0.217522
0.228683
0.246782
0.222951
0.0062681
0.22267
0.0121583
0.222262
0.0177805
0.221735
0.02322
0.2211
0.0285424
0.220364
0.0338018
0.219538
0.0390448
0.218633
0.0443121
0.21766
0.0496386
0.216633
0.0550551
0.215565
0.0605889
0.214474
0.0662645
0.213378
0.0721048
0.212298
0.0781314
0.211261
0.084366
0.210295
0.0908303
0.209439
0.0975475
0.208737
0.104543
0.208249
0.111843
0.20805
0.119479
0.208244
0.127482
0.208971
0.135882
0.210423
0.144704
0.212865
0.153952
0.216643
0.163602
0.222176
0.173576
0.229912
0.183719
0.240421
0.193744
0.254621
0.203323
0.210201
0.273102
0.228374
0.00638724
0.228144
0.0123884
0.227812
0.0181131
0.227385
0.0236464
0.226874
0.0290533
0.226289
0.0343871
0.22564
0.0396935
0.22494
0.045012
0.224203
0.0503761
0.223443
0.0558149
0.222678
0.0613536
0.221929
0.0670144
0.221216
0.072817
0.220568
0.0787795
0.220015
0.0849187
0.219595
0.0912504
0.219353
0.0977899
0.219344
0.104552
0.219637
0.11155
0.220321
0.118795
0.221509
0.126294
0.223345
0.134046
0.226014
0.142034
0.229747
0.150219
0.234824
0.158526
0.241573
0.166828
0.250371
0.17492
0.261665
0.18245
0.275926
0.189061
0.193669
0.292459
0.233929
0.00647836
0.233754
0.0125639
0.233502
0.0183654
0.233181
0.0239668
0.232802
0.0294322
0.232376
0.0348138
0.231913
0.040156
0.231428
0.0454967
0.230937
0.0508678
0.230455
0.0562963
0.230004
0.0618048
0.229606
0.0674126
0.229287
0.0731361
0.229077
0.078989
0.229013
0.0849828
0.229137
0.0911268
0.229499
0.0974279
0.23016
0.10389
0.231196
0.110514
0.232697
0.117294
0.234775
0.124217
0.237566
0.131255
0.241233
0.138367
0.24597
0.145483
0.251995
0.1525
0.259551
0.159272
0.268879
0.165592
0.280158
0.171171
0.293482
0.175738
0.178779
0.308372
0.23962
0.00653997
0.239502
0.0126821
0.239334
0.0185332
0.239124
0.024176
0.238884
0.029673
0.238622
0.035075
0.238354
0.0404248
0.238092
0.0457585
0.237854
0.0511058
0.237659
0.0564914
0.237528
0.0619353
0.237487
0.0674535
0.237565
0.0730585
0.237794
0.0787597
0.238214
0.0845631
0.238869
0.0904713
0.239814
0.0964835
0.24111
0.102594
0.242833
0.108792
0.245069
0.115058
0.247922
0.121363
0.251512
0.127666
0.255973
0.133906
0.261455
0.140001
0.268114
0.145842
0.2761
0.151286
0.285531
0.15616
0.296454
0.160248
0.308857
0.163335
0.165155
0.32248
0.245448
0.00657081
0.24539
0.0127404
0.24531
0.0186132
0.245216
0.0242697
0.245119
0.0297707
0.245028
0.0351653
0.244959
0.0404943
0.244926
0.0457916
0.244947
0.0510848
0.245042
0.0563959
0.245235
0.0617422
0.245553
0.0671362
0.246025
0.0725866
0.246686
0.0780984
0.247577
0.0836724
0.248743
0.0893052
0.250237
0.0949889
0.252121
0.10071
0.254465
0.106448
0.257348
0.112175
0.260859
0.117852
0.265097
0.123428
0.270165
0.128837
0.276171
0.133995
0.283215
0.138798
0.291376
0.143125
0.300701
0.146834
0.31118
0.149769
0.322745
0.151771
0.152707
0.335193
0.251418
0.00656985
0.251422
0.012737
0.251432
0.0186026
0.251457
0.0242446
0.251506
0.0297216
0.251591
0.0350807
0.251725
0.0403605
0.251924
0.0455926
0.252206
0.0508023
0.252593
0.0560088
0.253109
0.0612264
0.253781
0.0664646
0.254639
0.0717283
0.255719
0.0770182
0.257061
0.0823306
0.258709
0.0876571
0.260714
0.092984
0.263132
0.0982918
0.266026
0.103554
0.269464
0.108737
0.273519
0.113797
0.278267
0.11868
0.283784
0.12332
0.290139
0.12764
0.297388
0.131549
0.305565
0.134948
0.314671
0.137728
0.324661
0.139779
0.335436
0.140996
0.141319
0.346824
0.257532
0.00653635
0.257599
0.0126704
0.257702
0.0184995
0.257848
0.0240983
0.258047
0.0295233
0.258308
0.034819
0.258647
0.0400217
0.259079
0.0451608
0.259622
0.0502588
0.260299
0.0553324
0.261132
0.0603931
0.26215
0.0654471
0.263382
0.0704962
0.264862
0.0755375
0.26663
0.0805635
0.268725
0.0855616
0.271195
0.0905142
0.274089
0.0953979
0.27746
0.100183
0.281365
0.104832
0.28586
0.109302
0.290999
0.11354
0.296833
0.117486
0.303401
0.121072
0.310727
0.124223
0.318814
0.126861
0.327635
0.128908
0.337124
0.13029
0.347178
0.130942
0.130843
0.357654
0.263794
0.00646984
0.263925
0.0125398
0.264122
0.0183026
0.26439
0.0238298
0.264739
0.0291748
0.265178
0.0343796
0.265721
0.0394783
0.266385
0.0444976
0.267186
0.0494575
0.268146
0.0543723
0.269289
0.0592506
0.27064
0.064096
0.272228
0.0689076
0.274086
0.0736794
0.276249
0.078401
0.278753
0.0830571
0.28164
0.0876276
0.284951
0.092087
0.288729
0.0964044
0.293018
0.100543
0.297859
0.104462
0.303287
0.108112
0.309332
0.111441
0.316011
0.114393
0.323324
0.116909
0.331254
0.118931
0.339757
0.120404
0.348764
0.121283
0.358175
0.12153
0.121146
0.367872
0.270207
0.00637014
0.270402
0.0123448
0.270693
0.0180118
0.271083
0.0234389
0.271582
0.0286764
0.272198
0.0337638
0.272943
0.0387325
0.273834
0.0436068
0.274887
0.0484043
0.276123
0.0531368
0.277563
0.0578107
0.279231
0.0624273
0.281156
0.0669832
0.283365
0.0714703
0.28589
0.0758764
0.288762
0.0801844
0.292017
0.0843732
0.295687
0.088417
0.299805
0.0922857
0.304404
0.095945
0.309509
0.0993566
0.315142
0.102479
0.321315
0.105269
0.328028
0.10768
0.335266
0.10967
0.343001
0.111197
0.35118
0.112225
0.359736
0.112728
0.368579
0.112687
0.112116
0.377609
0.276774
0.00623735
0.277033
0.0120857
0.277417
0.0176276
0.277929
0.0229265
0.278576
0.0280299
0.279365
0.0329743
0.280309
0.0377885
0.281422
0.0424944
0.282719
0.0471075
0.284218
0.0516373
0.285941
0.0560881
0.287909
0.0604595
0.290145
0.0647462
0.292677
0.068939
0.295529
0.0730243
0.298728
0.0769848
0.302302
0.0807992
0.306277
0.0844429
0.310675
0.0878877
0.315517
0.091103
0.320818
0.0940555
0.326586
0.0967105
0.332822
0.099033
0.339514
0.100989
0.346637
0.102546
0.354156
0.103678
0.362019
0.104362
0.370161
0.104586
0.378503
0.104345
0.103657
0.386961
0.283498
0.00607186
0.283821
0.0117633
0.284297
0.0171512
0.284929
0.0222949
0.28572
0.0272382
0.286679
0.0320152
0.287816
0.0366521
0.289142
0.0411684
0.290672
0.0455774
0.292422
0.0498868
0.294411
0.0540994
0.296657
0.0582131
0.299182
0.0622218
0.302005
0.0661154
0.305149
0.0698801
0.308635
0.0734989
0.312483
0.0769515
0.316711
0.0802154
0.321333
0.0832654
0.326361
0.0860748
0.331801
0.088616
0.33765
0.0908611
0.3439
0.0927832
0.350531
0.0943574
0.357515
0.0955622
0.364813
0.0963806
0.372373
0.0968018
0.380137
0.096822
0.388038
0.0964447
0.0956902
0.396005
0.290384
0.00587429
0.290768
0.0113789
0.291335
0.0165848
0.292083
0.0215468
0.293015
0.0263056
0.294138
0.0308924
0.29546
0.0353308
0.29699
0.0396381
0.298741
0.043826
0.300728
0.0479004
0.302964
0.0518628
0.305467
0.0557102
0.308253
0.059436
0.311339
0.0630298
0.314741
0.0664783
0.318474
0.0697655
0.322553
0.072873
0.326987
0.0757805
0.331786
0.0784666
0.336952
0.0809089
0.342483
0.0830852
0.34837
0.0849739
0.354598
0.0865553
0.361143
0.0878123
0.367974
0.0887314
0.375051
0.0893037
0.382327
0.0895255
0.38975
0.0893993
0.397261
0.0889334
0.0881489
0.404802
0.297435
0.00564552
0.297879
0.0109341
0.298533
0.0159309
0.299394
0.0206861
0.300462
0.0252372
0.301742
0.0296124
0.30324
0.033833
0.304964
0.0379145
0.306923
0.0418666
0.309129
0.0456941
0.311595
0.0493974
0.314332
0.0529732
0.317353
0.0564146
0.320671
0.0597116
0.324298
0.0628519
0.328242
0.0658208
0.332513
0.0686023
0.337115
0.0711789
0.342048
0.0735327
0.347312
0.0756457
0.352896
0.0775007
0.358788
0.0790818
0.364968
0.0803753
0.37141
0.0813704
0.378082
0.0820597
0.384946
0.08244
0.391958
0.0825128
0.399073
0.0822845
0.406241
0.0817659
0.0809777
0.413412
0.304654
0.00538661
0.305157
0.0104312
0.305895
0.0151928
0.306864
0.0197174
0.308062
0.0240389
0.309492
0.0281829
0.311156
0.0321685
0.313061
0.0360091
0.315215
0.0397132
0.317624
0.0432845
0.320299
0.0467228
0.323248
0.0500245
0.326479
0.053183
0.330002
0.0561891
0.333822
0.0590317
0.337945
0.0616979
0.342373
0.0641741
0.347106
0.0664457
0.352141
0.0684982
0.357469
0.0703179
0.363077
0.0718919
0.36895
0.0732092
0.375065
0.0742608
0.381394
0.0750409
0.387907
0.0755468
0.394568
0.0757792
0.401338
0.075743
0.408175
0.0754467
0.415039
0.0749025
0.0741298
0.421887
0.312046
0.00509877
0.312605
0.00987241
0.313423
0.0143742
0.314495
0.0186456
0.315817
0.0227173
0.317388
0.0266121
0.319209
0.0303472
0.321284
0.0339342
0.323617
0.0373803
0.326213
0.0406884
0.329078
0.0438581
0.332216
0.0468858
0.335634
0.0497652
0.339335
0.0524884
0.343321
0.0550456
0.347593
0.057426
0.352149
0.0596181
0.356984
0.0616103
0.362091
0.0633916
0.367457
0.0649514
0.373068
0.0662809
0.378904
0.067373
0.384943
0.0682226
0.391156
0.0688276
0.397514
0.0691883
0.403985
0.0693086
0.410533
0.0691951
0.417122
0.0688574
0.423716
0.0683081
0.0675651
0.430281
0.319615
0.00478332
0.320227
0.00926044
0.321122
0.013479
0.322292
0.0174761
0.32373
0.0212792
0.325433
0.0249087
0.327401
0.0283796
0.329633
0.0317021
0.332131
0.0348822
0.334897
0.0379223
0.337934
0.0408218
0.341242
0.0435773
0.344824
0.0461835
0.348679
0.0486333
0.352806
0.0509186
0.357201
0.0530304
0.36186
0.0549596
0.366773
0.0566972
0.37193
0.058235
0.377315
0.0595657
0.382913
0.0606834
0.388702
0.0615842
0.394658
0.062266
0.400757
0.0627293
0.406968
0.0629768
0.413263
0.0630138
0.41961
0.0628482
0.425977
0.06249
0.432334
0.0619512
0.0612484
0.438651
0.327365
0.00444162
0.328027
0.00859795
0.328995
0.0125112
0.330257
0.0162144
0.331804
0.0197318
0.333632
0.0230813
0.335735
0.0262761
0.338113
0.0293248
0.340762
0.0322327
0.343683
0.0350017
0.346873
0.0376311
0.350333
0.040118
0.354059
0.0424577
0.358047
0.0446446
0.362294
0.0466717
0.366792
0.0485322
0.371533
0.0502189
0.376505
0.0517253
0.381694
0.0530454