/*--------------------------------*- C++ -*----------------------------------*\
  =========                 |
  \\      /  F ield         | OpenFOAM: The Open Source CFD Toolbox
   \\    /   O peration     | Website:  https://openfoam.org
    \\  /    A nd           | Version:  dev
     \\/     M anipulation  |
\*---------------------------------------------------------------------------*/
FoamFile
{
    version     2.0;
    format      ascii;
    class       volVectorField;
    location    "4";
    object      U;
}
// * * * * * * * * * * * * * * * * * * * * * * * * * * * * * * * * * * * * * //

dimensions      [0 1 -1 0 0 0 0];

internalField   nonuniform List<vector> 
2790
(
(9.94399 0 0.0205231)
(9.87572 0 0.0295876)
(9.77521 0 0.0359893)
(9.64944 0 0.0425558)
(9.50409 0 0.049385)
(9.34007 0 0.0564277)
(9.15656 0 0.0638151)
(8.95264 0 0.0717106)
(8.72748 0 0.0802541)
(8.48011 0 0.0895722)
(8.2093 0 0.0997921)
(7.91368 0 0.111044)
(7.59173 0 0.123459)
(7.24183 0 0.137163)
(6.86238 0 0.152271)
(6.45186 0 0.168869)
(6.00895 0 0.186997)
(5.53277 0 0.206619)
(5.02306 0 0.227591)
(4.48054 0 0.249612)
(3.90726 0 0.272178)
(3.30694 0 0.294528)
(2.68539 0 0.315623)
(2.05073 0 0.334293)
(1.4119 0 0.350611)
(0.798128 0 0.372888)
(0.110839 0 0.325109)
(-0.469553 0 -0.114837)
(-0.453762 0 -0.297171)
(-0.231161 0 -0.423863)
(9.9985 0 0.0407028)
(9.98145 0 0.0623824)
(9.93575 0 0.0791394)
(9.86417 0 0.0966237)
(9.77098 0 0.115122)
(9.65716 0 0.134486)
(9.52207 0 0.154972)
(9.36487 0 0.17694)
(9.18474 0 0.200704)
(8.9807 0 0.226546)
(8.75156 0 0.25474)
(8.49592 0 0.285556)
(8.21225 0 0.319244)
(7.89888 0 0.356018)
(7.5541 0 0.396015)
(7.17626 0 0.439258)
(6.76387 0 0.485589)
(6.31575 0 0.534584)
(5.83135 0 0.58546)
(5.31099 0 0.636954)
(4.75627 0 0.687206)
(4.17053 0 0.733651)
(3.55942 0 0.77296)
(2.93167 0 0.801104)
(2.30007 0 0.813764)
(1.69306 0 0.807272)
(1.10726 0 0.747287)
(0.658961 0 0.547972)
(0.186554 0 0.224677)
(-0.00819939 0 -0.453703)
(9.99559 0 0.0432067)
(9.97556 0 0.075271)
(9.9318 0 0.103345)
(9.8649 0 0.132369)
(9.77779 0 0.163057)
(9.67155 0 0.195395)
(9.54589 0 0.229738)
(9.40015 0 0.266597)
(9.23367 0 0.306464)
(9.04566 0 0.349799)
(8.83512 0 0.397063)
(8.60085 0 0.448712)
(8.34149 0 0.505182)
(8.05555 0 0.566852)
(7.74144 0 0.633999)
(7.39751 0 0.706719)
(7.02219 0 0.784825)
(6.61404 0 0.867712)
(6.17204 0 0.954184)
(5.69574 0 1.04225)
(5.18574 0 1.12888)
(4.64408 0 1.20979)
(4.07492 0 1.27916)
(3.4855 0 1.32935)
(2.88697 0 1.35011)
(2.29957 0 1.32646)
(1.73194 0 1.22083)
(1.21633 0 0.973067)
(0.701197 0 0.570217)
(0.358072 0 -0.156461)
(9.99403 0 0.0494988)
(9.97181 0 0.0932054)
(9.92788 0 0.13357)
(9.86225 0 0.174207)
(9.77694 0 0.21643)
(9.67299 0 0.260657)
(9.55032 0 0.307424)
(9.4085 0 0.357408)
(9.24704 0 0.411282)
(9.06535 0 0.469695)
(8.86271 0 0.53329)
(8.63823 0 0.602709)
(8.39089 0 0.678576)
(8.11957 0 0.761457)
(7.82305 0 0.851801)
(7.50007 0 0.949854)
(7.14932 0 1.05553)
(6.76953 0 1.16822)
(6.35959 0 1.28658)
(5.9187 0 1.40825)
(5.44664 0 1.52946)
(4.94412 0 1.64468)
(4.41329 0 1.74615)
(3.85839 0 1.82323)
(3.28594 0 1.86139)
(2.70651 0 1.84037)
(2.12574 0 1.72607)
(1.55433 0 1.47795)
(0.957997 0 1.08379)
(0.509441 0 0.502429)
(9.99331 0 0.0572131)
(9.96994 0 0.110958)
(9.92593 0 0.162102)
(9.86146 0 0.213345)
(9.77799 0 0.266352)
(9.67635 0 0.321908)
(9.55655 0 0.380694)
(9.41823 0 0.443479)
(9.26099 0 0.511045)
(9.08435 0 0.584156)
(8.88773 0 0.663571)
(8.67041 0 0.750044)
(8.43163 0 0.844313)
(8.1705 0 0.94706)
(7.88613 0 1.05885)
(7.57754 0 1.18005)
(7.24373 0 1.31065)
(6.88369 0 1.45015)
(6.49637 0 1.59719)
(6.08083 0 1.7493)
(5.63627 0 1.90239)
(5.16224 0 2.0503)
(4.6589 0 2.18417)
(4.12734 0 2.29176)
(3.56953 0 2.3566)
(2.989 0 2.35738)
(2.38693 0 2.26504)
(1.76647 0 2.04775)
(1.09004 0 1.69153)
(0.536673 0 1.15429)
(9.99302 0 0.0655381)
(9.96923 0 0.1287)
(9.92556 0 0.190111)
(9.86253 0 0.25184)
(9.78129 0 0.315574)
(9.68245 0 0.382312)
(9.56602 0 0.452866)
(9.43172 0 0.52809)
(9.27921 0 0.608866)
(9.10808 0 0.696068)
(8.91779 0 0.790559)
(8.70777 0 0.893201)
(8.47731 0 1.00483)
(8.22571 0 1.12623)
(7.9522 0 1.25805)
(7.65594 0 1.40077)
(7.3361 0 1.5545)
(6.99172 0 1.71882)
(6.62177 0 1.89251)
(6.22511 0 2.07319)
(5.80039 0 2.25682)
(5.34616 0 2.43718)
(4.86084 0 2.60519)
(4.34283 0 2.74823)
(3.79053 0 2.84958)
(3.2027 0 2.88827)
(2.57668 0 2.83833)
(1.91355 0 2.67174)
(1.1728 0 2.37416)
(0.549992 0 1.89457)
(9.99297 0 0.0740742)
(9.96927 0 0.146312)
(9.92637 0 0.217481)
(9.86509 0 0.289288)
(9.78643 0 0.36335)
(9.69085 0 0.44082)
(9.57835 0 0.52265)
(9.44872 0 0.609798)
(9.30166 0 0.703239)
(9.13679 0 0.803945)
(8.95366 0 0.912877)
(8.75172 0 1.03098)
(8.53037 0 1.15919)
(8.28891 0 1.29836)
(8.02663 0 1.44926)
(7.74274 0 1.61244)
(7.43636 0 1.78814)
(7.10648 0 1.97611)
(6.75189 0 2.17536)
(6.37111 0 2.38377)
(5.96222 0 2.5977)
(5.52277 0 2.81135)
(5.04967 0 3.01614)
(4.53915 0 3.19998)
(3.98681 0 3.34672)
(3.38805 0 3.43604)
(2.73737 0 3.44343)
(2.03634 0 3.34165)
(1.24181 0 3.11377)
(0.563543 0 2.69336)
(9.99306 0 0.0825874)
(9.96981 0 0.163605)
(9.92807 0 0.244047)
(9.86885 0 0.325475)
(9.79313 0 0.40944)
(9.70126 0 0.497198)
(9.59324 0 0.589828)
(9.46889 0 0.688382)
(9.32797 0 0.793922)
(9.17015 0 0.907508)
(8.99504 0 1.03019)
(8.80212 0 1.163)
(8.59084 0 1.30697)
(8.36054 0 1.46305)
(8.11049 0 1.6321)
(7.83986 0 1.81482)
(7.54767 0 2.01161)
(7.23274 0 2.22245)
(6.89359 0 2.44667)
(6.52827 0 2.68263)
(6.13421 0 2.9273)
(5.70799 0 3.17573)
(5.24512 0 3.42034)
(4.73994 0 3.6502)
(4.18565 0 3.85028)
(3.57492 0 4.00097)
(2.89966 0 4.07804)
(2.16223 0 4.05257)
(1.3162 0 3.90193)
(0.583253 0 3.54041)
(9.99326 0 0.0909276)
(9.97072 0 0.180407)
(9.93046 0 0.269665)
(9.87362 0 0.360237)
(9.80118 0 0.45364)
(9.71344 0 0.5512)
(9.61038 0 0.6541)
(9.49189 0 0.76348)
(9.35776 0 0.880485)
(9.20774 0 1.00626)
(9.04147 0 1.14193)
(8.85849 0 1.28863)
(8.65829 0 1.44748)
(8.44024 0 1.61954)
(8.20361 0 1.80581)
(7.9475 0 2.00715)
(7.67084 0 2.22418)
(7.37223 0 2.4572)
(7.04988 0 2.70598)
(6.70138 0 2.9695)
(6.32347 0 3.24559)
(5.91179 0 3.53048)
(5.46053 0 3.81803)
(4.96219 0 4.09898)
(4.4076 0 4.3599)
(3.78659 0 4.58219)
(3.08774 0 4.74123)
(2.31285 0 4.80467)
(1.41074 0 4.74136)
(0.614351 0 4.44223)
(9.99352 0 0.0989915)
(9.97191 0 0.196577)
(9.9334 0 0.294192)
(9.87924 0 0.393412)
(9.8104 0 0.495749)
(9.72717 0 0.602579)
(9.62953 0 0.715169)
(9.51742 0 0.834745)
(9.39069 0 0.962523)
(9.24913 0 1.09972)
(9.09246 0 1.24756)
(8.92029 0 1.40725)
(8.73215 0 1.58002)
(8.52744 0 1.76705)
(8.30546 0 1.9695)
(8.0653 0 2.18841)
(7.80578 0 2.42472)
(7.52536 0 2.67908)
(7.222 0 2.95183)
(6.89287 0 3.24273)
(6.53416 0 3.55071)
(6.14063 0 3.87342)
(5.70523 0 4.20665)
(5.21868 0 4.54336)
(4.66921 0 4.87246)
(4.04309 0 5.17706)
(3.32391 0 5.43247)
(2.50995 0 5.60222)
(1.54199 0 5.64383)
(0.664113 0 5.41843)
(9.99384 0 0.106703)
(9.9733 0 0.211998)
(9.9368 0 0.317499)
(9.88558 0 0.424851)
(9.82063 0 0.535582)
(9.74225 0 0.65111)
(9.65044 0 0.772774)
(9.54518 0 0.901867)
(9.42638 0 1.03968)
(9.2939 0 1.18749)
(9.14753 0 1.3466)
(8.98695 0 1.51831)
(8.81176 0 1.70394)
(8.62145 0 1.90481)
(8.41534 0 2.12224)
(8.19256 0 2.35752)
(7.95193 0 2.61188)
(7.69185 0 2.88645)
(7.41013 0 3.18218)
(7.10374 0 3.49976)
(6.76847 0 3.83937)
(6.39849 0 4.20045)
(5.98575 0 4.58111)
(5.51931 0 4.97729)
(4.98463 0 5.38133)
(4.36353 0 5.77964)
(3.63217 0 6.14931)
(2.78036 0 6.45096)
(1.73362 0 6.62892)
(0.744913 0 6.50359)
(9.9942 0 0.114005)
(9.97487 0 0.226573)
(9.94055 0 0.33947)
(9.89252 0 0.454418)
(9.83173 0 0.572976)
(9.75851 0 0.696599)
(9.67288 0 0.82668)
(9.57488 0 0.964574)
(9.46448 0 1.11163)
(9.34162 0 1.26919)
(9.20616 0 1.43861)
(9.05787 0 1.62129)
(8.89645 0 1.81863)
(8.72148 0 2.0321)
(8.53239 0 2.26316)
(8.32839 0 2.51335)
(8.10839 0 2.78425)
(7.87086 0 3.07745)
(7.61368 0 3.39461)
(7.33382 0 3.73736)
(7.02704 0 4.10732)
(6.6873 0 4.5059)
(6.30608 0 4.934)
(5.87132 0 5.39137)
(5.36606 0 5.87533)
(4.76721 0 6.3783)
(4.04105 0 6.8834)
(3.16178 0 7.35384)
(2.02499 0 7.72372)
(0.880857 0 7.75775)
(9.99459 0 0.120853)
(9.97657 0 0.240223)
(9.94461 0 0.360005)
(9.89995 0 0.481996)
(9.84356 0 0.607789)
(9.77575 0 0.738872)
(9.69662 0 0.876683)
(9.60623 0 1.02263)
(9.50463 0 1.17809)
(9.39184 0 1.34448)
(9.26781 0 1.52321)
(9.13242 0 1.71574)
(8.98547 0 1.92355)
(8.82669 0 2.14822)
(8.65563 0 2.3914)
(8.47169 0 2.65484)
(8.27395 0 2.94042)
(8.06111 0 3.25022)
(7.83132 0 3.58655)
(7.58186 0 3.95203)
(7.30889 0 4.34968)
(7.00679 0 4.783)
(6.6674 0 5.25595)
(6.27871 0 5.77283)
(5.82275 0 6.33762)
(5.27284 0 6.95242)
(4.58495 0 7.61379)
(3.71041 0 8.30128)
(2.48856 0 8.95887)
(1.12469 0 9.29416)
(9.99501 0 0.12721)
(9.97838 0 0.252883)
(9.94891 0 0.379018)
(9.90779 0 0.507482)
(9.85598 0 0.639901)
(9.79381 0 0.777792)
(9.72142 0 0.922624)
(9.63893 0 1.07584)
(9.54646 0 1.23887)
(9.44412 0 1.41314)
(9.33194 0 1.60012)
(9.20994 0 1.80131)
(9.07805 0 2.01828)
(8.93614 0 2.25268)
(8.78397 0 2.5063)
(8.62116 0 2.78108)
(8.44709 0 3.07918)
(8.26083 0 3.40306)
(8.06098 0 3.75562)
(7.8455 0 4.14034)
(7.61138 0 4.5615)
(7.35419 0 5.02452)
(7.0673 0 5.53634)
(6.74063 0 6.10597)
(6.35822 0 6.74511)
(5.89448 0 7.46886)
(5.30131 0 8.2964)
(4.5095 0 9.24832)
(3.26947 0 10.3426)
(1.60542 0 11.3606)
(9.99545 0 0.13305)
(9.98026 0 0.264503)
(9.95339 0 0.39644)
(9.91595 0 0.530785)
(9.86888 0 0.669193)
(9.81252 0 0.813203)
(9.74707 0 0.964309)
(9.6727 0 1.12398)
(9.58962 0 1.29366)
(9.498 0 1.47481)
(9.39801 0 1.66892)
(9.28976 0 1.87752)
(9.17335 0 2.10223)
(9.04884 0 2.34477)
(8.91622 0 2.60701)
(8.77537 0 2.89101)
(8.62606 0 3.19915)
(8.46783 0 3.53417)
(8.29995 0 3.89938)
(8.12131 0 4.29888)
(7.93018 0 4.73788)
(7.72403 0 5.22323)
(7.49901 0 5.76417)
(7.24924 0 6.3735)
(6.96524 0 7.06968)
(6.63149 0 7.88056)
(6.2152 0 8.85162)
(5.66695 0 10.0659)
(4.69157 0 11.7318)
(2.68848 0 14.595)
(0.128639 0 -0.131331)
(0.299231 0 -0.118694)
(0.475492 0 -0.0948133)
(0.625917 0 -0.07298)
(0.74607 0 -0.0554526)
(0.841222 0 -0.0418513)
(0.917516 0 -0.0314561)
(0.979726 0 -0.0236408)
(1.03139 0 -0.0178692)
(1.07525 0 -0.0136766)
(1.11346 0 -0.0106646)
(1.14765 0 -0.00848916)
(1.17892 0 -0.006846)
(1.20782 0 -0.00546956)
(1.23447 0 -0.00414927)
(1.25859 0 -0.00275758)
(1.27971 0 -0.00126454)
(1.29741 0 0.000295882)
(1.31137 0 0.00191796)
(1.32126 0 0.00370043)
(1.32648 0 0.005729)
(1.32644 0 0.00775381)
(1.32065 0 0.00942333)
(1.30967 0 0.0103376)
(1.29589 0 0.0101274)
(1.28248 0 0.00890514)
(1.27173 0 0.00706797)
(1.2645 0 0.0048663)
(1.26112 0 0.00236781)
(1.26413 0 -0.000331042)
(0.105566 0 -0.296402)
(0.269671 0 -0.277968)
(0.431139 0 -0.228608)
(0.571376 0 -0.181935)
(0.687192 0 -0.144279)
(0.783239 0 -0.115028)
(0.864491 0 -0.0926575)
(0.934684 0 -0.0758089)
(0.996557 0 -0.0633166)
(1.05221 0 -0.0541778)
(1.1033 0 -0.0475397)
(1.15109 0 -0.0426669)
(1.19645 0 -0.0389087)
(1.23994 0 -0.0356926)
(1.28176 0 -0.0325581)
(1.32185 0 -0.0292208)
(1.35996 0 -0.0256183)
(1.39582 0 -0.0218616)
(1.42938 0 -0.0180487)
(1.46074 0 -0.0140549)
(1.48991 0 -0.00960848)
(1.51606 0 -0.00475364)
(1.53808 0 -0.000175998)
(1.55567 0 0.00305326)
(1.56995 0 0.00433557)
(1.58317 0 0.00396472)
(1.59714 0 0.00275303)
(1.61254 0 0.00104696)
(1.62923 0 -0.00102306)
(1.64913 0 -0.00262232)
(0.0806669 0 -0.462349)
(0.218328 0 -0.434923)
(0.343312 0 -0.360466)
(0.45159 0 -0.290204)
(0.540362 0 -0.233786)
(0.61437 0 -0.189887)
(0.677366 0 -0.156145)
(0.732032 0 -0.130496)
(0.780357 0 -0.111217)
(0.823887 0 -0.0968622)
(0.863848 0 -0.0862168)
(0.901191 0 -0.078235)
(0.936614 0 -0.0719888)
(0.970569 0 -0.0666553)
(1.00326 0 -0.0615558)
(1.03466 0 -0.0562507)
(1.06451 0 -0.0506331)
(1.09254 0 -0.0449127)
(1.11863 0 -0.0393623)
(1.14306 0 -0.0338834)
(1.16642 0 -0.0277511)
(1.18893 0 -0.0202442)
(1.20983 0 -0.0122192)
(1.22775 0 -0.00640243)
(1.24206 0 -0.00465956)
(1.25383 0 -0.00627438)
(1.2644 0 -0.00958374)
(1.27375 0 -0.0132178)
(1.2818 0 -0.0163006)
(1.29174 0 -0.0166155)
(0.0573039 0 -0.588095)
(0.16134 0 -0.545856)
(0.242154 0 -0.449078)
(0.312795 0 -0.36057)
(0.368012 0 -0.290927)
(0.413779 0 -0.23705)
(0.45221 0 -0.195714)
(0.484875 0 -0.164233)
(0.513002 0 -0.140467)
(0.53758 0 -0.122678)
(0.559399 0 -0.109416)
(0.579093 0 -0.0994339)
(0.597166 0 -0.0916242)
(0.614012 0 -0.0849986)
(0.629907 0 -0.0787176)
(0.644968 0 -0.0721935)
(0.659013 0 -0.065227)
(0.671604 0 -0.0580697)
(0.68215 0 -0.0512317)
(0.690778 0 -0.0450339)
(0.698593 0 -0.0392052)
(0.707298 0 -0.0329498)
(0.716372 0 -0.0257672)
(0.721489 0 -0.0182917)
(0.718302 0 -0.0121463)
(0.707875 0 -0.00772317)
(0.69381 0 -0.00499483)
(0.677099 0 -0.00426544)
(0.658501 0 -0.00599878)
(0.63778 0 -0.00709475)
(0.0334367 0 -0.676099)
(0.0977155 0 -0.613911)
(0.128913 0 -0.498023)
(0.15909 0 -0.396938)
(0.176279 0 -0.319125)
(0.189473 0 -0.259156)
(0.198346 0 -0.213143)
(0.203727 0 -0.177988)
(0.206276 0 -0.151326)
(0.206562 0 -0.131266)
(0.205022 0 -0.116252)
(0.202014 0 -0.104953)
(0.197901 0 -0.0961827)
(0.193076 0 -0.0888646)
(0.187934 0 -0.082049)
(0.182839 0 -0.0749911)
(0.177698 0 -0.0672985)
(0.172229 0 -0.0590418)
(0.164778 0 -0.0506215)
(0.15451 0 -0.0422722)
(0.139622 0 -0.0334732)
(0.122705 0 -0.0232667)
(0.102984 0 -0.0118187)
(0.085382 0 -0.00200251)
(0.0701934 0 0.00358051)
(0.0590174 0 0.00485135)
(0.0542341 0 0.00418528)
(0.0512876 0 0.00211656)
(0.0481785 0 -0.00105905)
(0.0371423 0 -0.00992295)
(0.00797349 0 -0.720143)
(0.0271489 0 -0.634001)
(0.00639063 0 -0.502071)
(-0.00661407 0 -0.393654)
(-0.0301785 0 -0.311351)
(-0.0530793 0 -0.248642)
(-0.0778664 0 -0.200871)
(-0.103537 0 -0.164668)
(-0.12965 0 -0.137419)
(-0.1558 0 -0.117057)
(-0.181729 0 -0.101923)
(-0.207225 0 -0.0906357)
(-0.232061 0 -0.081962)
(-0.256018 0 -0.0748065)
(-0.278878 0 -0.0682664)
(-0.300352 0 -0.0616647)
(-0.320106 0 -0.0545954)
(-0.337861 0 -0.0469478)
(-0.353543 0 -0.0388772)
(-0.367276 0 -0.0306638)
(-0.379348 0 -0.0225207)
(-0.389589 0 -0.0146014)
(-0.398069 0 -0.00735063)
(-0.405708 0 -0.00174169)
(-0.412193 0 0.00140842)
(-0.419328 0 0.00190789)
(-0.425465 0 0.0018122)
(-0.431026 0 0.00212051)
(-0.437036 0 0.0010411)
(-0.444718 0 -0.00378649)
(-0.0213551 0 -0.713238)
(-0.0518597 0 -0.599765)
(-0.123243 0 -0.460159)
(-0.182186 0 -0.353217)
(-0.245211 0 -0.271089)
(-0.305519 0 -0.209923)
(-0.362831 0 -0.164353)
(-0.416291 0 -0.130664)
(-0.465477 0 -0.106081)
(-0.510218 0 -0.0884451)
(-0.550609 0 -0.0759877)
(-0.586962 0 -0.0672522)
(-0.619683 0 -0.0609779)
(-0.64919 0 -0.0560787)
(-0.675826 0 -0.0517242)
(-0.699753 0 -0.0473282)
(-0.720953 0 -0.0425183)
(-0.739343 0 -0.03708)
(-0.754951 0 -0.0309119)
(-0.76804 0 -0.0240321)
(-0.779013 0 -0.0165842)
(-0.788219 0 -0.00885469)
(-0.796134 0 -0.00151492)
(-0.80294 0 0.00432562)
(-0.809201 0 0.00744202)
(-0.816037 0 0.00835651)
(-0.82294 0 0.00782899)
(-0.829699 0 0.00601106)
(-0.836324 0 0.00217934)
(-0.840382 0 -0.00309181)
(-0.0567888 0 -0.651276)
(-0.137366 0 -0.517893)
(-0.256826 0 -0.378785)
(-0.359706 0 -0.274654)
(-0.459361 0 -0.198576)
(-0.549941 0 -0.144697)
(-0.630575 0 -0.106963)
(-0.701214 0 -0.080807)
(-0.762584 0 -0.0630558)
(-0.815849 0 -0.0515028)
(-0.862147 0 -0.0443049)
(-0.90257 0 -0.0400064)
(-0.938063 0 -0.0374264)
(-0.969447 0 -0.0355914)
(-0.997407 0 -0.0338467)
(-1.02237 0 -0.0317989)
(-1.0445 0 -0.0292368)
(-1.06377 0 -0.0260145)
(-1.08018 0 -0.0219631)
(-1.09395 0 -0.0169323)
(-1.10552 0 -0.0109283)
(-1.1154 0 -0.00429441)
(-1.12431 0 0.00206862)
(-1.13139 0 0.00713809)
(-1.1385 0 0.0101899)
(-1.1457 0 0.0112688)
(-1.15307 0 0.0109918)
(-1.16075 0 0.00941382)
(-1.16816 0 0.00583455)
(-1.17225 0 0.00145063)
(-0.0988707 0 -0.531525)
(-0.232022 0 -0.386604)
(-0.401224 0 -0.257571)
(-0.542678 0 -0.167585)
(-0.670568 0 -0.10513)
(-0.781915 0 -0.0637401)
(-0.877255 0 -0.0378179)
(-0.958053 0 -0.0226189)
(-1.02432 0 -0.0148534)
(-1.07962 0 -0.011384)
(-1.12657 0 -0.0104933)
(-1.16725 0 -0.0111272)
(-1.20313 0 -0.0124984)
(-1.23516 0 -0.0139634)
(-1.26371 0 -0.0149956)
(-1.28931 0 -0.0153412)
(-1.31215 0 -0.0149997)
(-1.33218 0 -0.0139401)
(-1.34931 0 -0.0119203)
(-1.36375 0 -0.00860132)
(-1.37608 0 -0.00389271)
(-1.38712 0 0.00172851)
(-1.39619 0 0.00724674)
(-1.40484 0 0.0116448)
(-1.41329 0 0.0143825)
(-1.42161 0 0.0153202)
(-1.43008 0 0.014872)
(-1.43907 0 0.0131052)
(-1.44768 0 0.0096928)
(-1.45241 0 0.00602569)
(-0.15365 0 -0.352431)
(-0.352741 0 -0.20986)
(-0.588795 0 -0.0936093)
(-0.776035 0 -0.0199213)
(-0.92469 0 0.0168655)
(-1.04236 0 0.0335716)
(-1.13537 0 0.0387945)
(-1.2095 0 0.0375078)
(-1.27097 0 0.0333023)
(-1.32238 0 0.027939)
(-1.36604 0 0.0222786)
(-1.4036 0 0.0166597)
(-1.43627 0 0.011342)
(-1.46506 0 0.0067084)
(-1.49119 0 0.0031573)
(-1.51519 0 0.000689555)
(-1.53716 0 -0.000970258)
(-1.55681 0 -0.00194703)
(-1.57388 0 -0.00192636)
(-1.58842 0 -0.000347618)
(-1.60089 0 0.00304458)
(-1.61173 0 0.007776)
(-1.6222 0 0.0128445)
(-1.63256 0 0.0170291)
(-1.64268 0 0.0195198)
(-1.65243 0 0.0202203)
(-1.66207 0 0.0195447)
(-1.672 0 0.0176544)
(-1.68112 0 0.014468)
(-1.68578 0 0.0113146)
(-0.231906 0 -0.0921645)
(-0.488134 0 0.0717283)
(-0.742208 0 0.126028)
(-0.931841 0 0.13799)
(-1.08448 0 0.134704)
(-1.20621 0 0.123356)
(-1.30369 0 0.10873)
(-1.38234 0 0.0933106)
(-1.44644 0 0.0784056)
(-1.49951 0 0.0648954)
(-1.54449 0 0.0531295)
(-1.5834 0 0.0428466)
(-1.61738 0 0.033837)
(-1.64731 0 0.0263473)
(-1.67414 0 0.0206198)
(-1.69871 0 0.0164016)
(-1.72123 0 0.0130339)
(-1.74125 0 0.0101326)
(-1.75827 0 0.00811481)
(-1.77245 0 0.00791957)
(-1.78475 0 0.0101382)
(-1.7964 0 0.0143733)
(-1.80819 0 0.0193053)
(-1.82021 0 0.0233555)
(-1.832 0 0.0255174)
(-1.8431 0 0.025727)
(-1.85368 0 0.0245671)
(-1.86426 0 0.0224605)
(-1.8737 0 0.0195358)
(-1.87831 0 0.0168901)
(-0.283921 0 0.296213)
(-0.568452 0 0.353018)
(-0.854946 0 0.338899)
(-1.0674 0 0.303388)
(-1.23147 0 0.262167)
(-1.35754 0 0.221497)
(-1.45572 0 0.184856)
(-1.53354 0 0.153062)
(-1.59617 0 0.125886)
(-1.64766 0 0.10345)
(-1.69148 0 0.085422)
(-1.72983 0 0.0704758)
(-1.76357 0 0.057532)
(-1.79325 0 0.0467235)
(-1.81997 0 0.0385527)
(-1.84495 0 0.0326105)
(-1.86843 0 0.0276063)
(-1.88951 0 0.0226557)
(-1.90713 0 0.0183178)
(-1.92133 0 0.0161909)
(-1.93348 0 0.017392)
(-1.9454 0 0.0214529)
(-1.95818 0 0.0265558)
(-1.97176 0 0.0306215)
(-1.9852 0 0.0323752)
(-1.99762 0 0.0318274)
(-2.00902 0 0.029913)
(-2.02006 0 0.0274757)
(-2.02969 0 0.0248083)
(-2.03424 0 0.0226435)
(-0.33739 0 0.699154)
(-0.680824 0 0.691751)
(-1.00701 0 0.58544)
(-1.22822 0 0.479991)
(-1.38927 0 0.391406)
(-1.50842 0 0.316893)
(-1.59887 0 0.25687)
(-1.66996 0 0.209172)
(-1.72689 0 0.170324)
(-1.77344 0 0.139505)
(-1.81368 0 0.116164)
(-1.85012 0 0.0975051)
(-1.8828 0 0.0809549)
(-1.91137 0 0.0667435)
(-1.93707 0 0.0562379)
(-1.96184 0 0.0490401)
(-1.98614 0 0.0428232)
(-2.00828 0 0.0357698)
(-2.02619 0 0.0286173)
(-2.03965 0 0.0241049)
(-2.05075 0 0.0243106)
(-2.06231 0 0.0286531)
(-2.07588 0 0.0344589)
(-2.09113 0 0.0388435)
(-2.10646 0 0.0401545)
(-2.1203 0 0.038547)
(-2.13242 0 0.0355396)
(-2.14366 0 0.0326178)
(-2.15328 0 0.0302097)
(-2.15776 0 0.0285156)
(-0.44386 0 1.20059)
(-0.873699 0 1.09093)
(-1.22888 0 0.846823)
(-1.42934 0 0.646281)
(-1.56508 0 0.508202)
(-1.6633 0 0.399028)
(-1.73563 0 0.3178)
(-1.79337 0 0.258539)
(-1.84065 0 0.210174)
(-1.87897 0 0.171039)
(-1.9131 0 0.143248)
(-1.9466 0 0.122356)
(-1.97788 0 0.10277)
(-2.00447 0 0.0850486)
(-2.02779 0 0.0725865)
(-2.05145 0 0.0653225)
(-2.07655 0 0.058983)
(-2.10009 0 0.0499292)
(-2.11814 0 0.0391413)
(-2.12993 0 0.0313961)
(-2.1388 0 0.0305812)
(-2.14925 0 0.0358823)
(-2.16352 0 0.0431451)
(-2.1808 0 0.0482452)
(-2.19844 0 0.0490348)
(-2.2139 0 0.0459198)
(-2.22654 0 0.0413127)
(-2.23758 0 0.0376804)
(-2.2469 0 0.0355764)
(-2.25123 0 0.0343714)
(-0.658192 0 2.14261)
(-1.18785 0 1.72998)
(-1.56155 0 1.13737)
(-1.68674 0 0.742664)
(-1.75928 0 0.587343)
(-1.82109 0 0.463078)
(-1.86245 0 0.368695)
(-1.90091 0 0.30267)
(-1.93779 0 0.243224)
(-1.9656 0 0.192399)
(-1.99011 0 0.163379)
(-2.01951 0 0.146389)
(-2.04973 0 0.126428)
(-2.07359 0 0.104495)
(-2.09266 0 0.0890222)
(-2.11408 0 0.0822843)
(-2.14057 0 0.0764939)
(-2.1668 0 0.0647604)
(-2.18531 0 0.0484845)
(-2.19421 0 0.0360025)
(-2.19908 0 0.0343598)
(-2.20742 0 0.0420784)
(-2.22243 0 0.0522322)
(-2.24236 0 0.0588037)
(-2.26299 0 0.059089)
(-2.28035 0 0.0539169)
(-2.2932 0 0.0470052)
(-2.3034 0 0.0423636)
(-2.31201 0 0.0407508)
(-2.31611 0 0.0401442)
(9.9959 0 0.138446)
(9.98225 0 0.275238)
(9.9581 0 0.412523)
(9.92453 0 0.55227)
(9.88241 0 0.696155)
(9.83215 0 0.845731)
(9.77398 0 1.0025)
(9.70813 0 1.16795)
(9.6349 0 1.34353)
(9.55456 0 1.53071)
(9.46737 0 1.73099)
(9.3736 0 1.9459)
(9.27353 0 2.17708)
(9.16739 0 2.42628)
(9.05545 0 2.69539)
(8.93793 0 2.98657)
(8.81501 0 3.30225)
(8.68683 0 3.64534)
(8.55348 0 4.01934)
(8.41494 0 4.42863)
(8.27116 0 4.87886)
(8.12202 0 5.37748)
(7.96747 0 5.93466)
(7.80779 0 6.56477)
(7.6442 0 7.28888)
(7.48173 0 8.1396)
(7.33367 0 9.1709)
(7.29027 0 10.4764)
(7.7502 0 12.201)
(7.93548 0 14.9206)
(9.99638 0 0.143406)
(9.98434 0 0.285093)
(9.96305 0 0.427252)
(9.93351 0 0.571881)
(9.89656 0 0.720671)
(9.85261 0 0.875181)
(9.80195 0 1.03692)
(9.7449 0 1.20736)
(9.68181 0 1.38796)
(9.61306 0 1.58017)
(9.53903 0 1.78548)
(9.46014 0 2.00541)
(9.37683 0 2.24158)
(9.28958 0 2.4957)
(9.19891 0 2.76967)
(9.10539 0 3.06561)
(9.00969 0 3.38592)
(8.91254 0 3.73348)
(8.81488 0 4.11171)
(8.71788 0 4.52489)
(8.62314 0 4.97844)
(8.53304 0 5.47937)
(8.45131 0 6.03701)
(8.3842 0 6.66394)
(8.34293 0 7.37738)
(8.34958 0 8.20072)
(8.44307 0 9.1641)
(8.67937 0 10.3007)
(9.32743 0 11.555)
(9.81922 0 12.6415)
(9.99688 0 0.147843)
(9.9865 0 0.293906)
(9.96819 0 0.440404)
(9.94282 0 0.589352)
(9.9112 0 0.742446)
(9.87376 0 0.901237)
(9.83084 0 1.06722)
(9.78281 0 1.24186)
(9.7301 0 1.42658)
(9.67319 0 1.62281)
(9.61258 0 1.832)
(9.54883 0 2.05562)
(9.48255 0 2.29524)
(9.41445 0 2.5525)
(9.34532 0 2.82922)
(9.27608 0 3.12738)
(9.20784 0 3.44927)
(9.14192 0 3.79752)
(9.08003 0 4.17523)
(9.02437 0 4.58618)
(8.97797 0 5.03496)
(8.94511 0 5.52724)
(8.93208 0 6.06999)
(8.94841 0 6.67161)
(9.00861 0 7.34152)
(9.13482 0 8.08833)
(9.35805 0 8.91387)
(9.68778 0 9.80691)
(10.2537 0 10.7159)
(10.9414 0 11.4304)
(9.9974 0 0.151705)
(9.98873 0 0.301568)
(9.97346 0 0.451812)
(9.95238 0 0.604453)
(9.92622 0 0.761179)
(9.89543 0 0.923524)
(9.86039 0 1.09296)
(9.82154 0 1.27092)
(9.77938 0 1.45878)
(9.73447 0 1.65794)
(9.68741 0 1.86977)
(9.63891 0 2.09567)
(9.58975 0 2.33712)
(9.54082 0 2.59565)
(9.49317 0 2.8729)
(9.44805 0 3.1707)
(9.40692 0 3.49103)
(9.37163 0 3.83615)
(9.34447 0 4.20865)
(9.32842 0 4.6115)
(9.3274 0 5.0481)
(9.34671 0 5.52228)
(9.39361 0 6.03816)
(9.478 0 6.5997)
(9.61309 0 7.20965)
(9.81569 0 7.86765)
(10.1086 0 8.56658)
(10.5003 0 9.29171)
(11.0578 0 10.0329)
(11.8508 0 10.6769)
(9.99792 0 0.154945)
(9.99101 0 0.307988)
(9.97884 0 0.461341)
(9.96211 0 0.617006)
(9.94149 0 0.776651)
(9.91743 0 0.941782)
(9.89037 0 1.11383)
(9.86078 0 1.29419)
(9.82923 0 1.48418)
(9.79634 0 1.68512)
(9.76285 0 1.89831)
(9.72954 0 2.12504)
(9.69735 0 2.36666)
(9.66736 0 2.62454)
(9.64081 0 2.90012)
(9.61918 0 3.19495)
(9.60427 0 3.51068)
(9.59825 0 3.84907)
(9.6038 0 4.21206)
(9.62432 0 4.60167)
(9.66413 0 5.02002)
(9.72875 0 5.4691)
(9.82526 0 5.95053)
(9.96261 0 6.465)
(10.1519 0 7.0114)
(10.406 0 7.58586)
(10.7425 0 8.18023)
(11.1728 0 8.77981)
(11.7199 0 9.37301)
(12.4726 0 9.88496)
(9.99845 0 0.15752)
(9.9933 0 0.31308)
(9.98427 0 0.468864)
(9.97193 0 0.626846)
(9.95688 0 0.78866)
(9.93959 0 0.955771)
(9.92051 0 1.12957)
(9.90017 0 1.31136)
(9.87919 0 1.50243)
(9.85825 0 1.70399)
(9.83816 0 1.91724)
(9.81981 0 2.14334)
(9.80425 0 2.38348)
(9.79267 0 2.63884)
(9.78649 0 2.91062)
(9.78735 0 3.20005)
(9.79723 0 3.50835)
(9.81849 0 3.83679)
(9.85398 0 4.18658)
(9.90721 0 4.55884)
(9.98246 0 4.95447)
(10.0849 0 5.37394)
(10.221 0 5.81698)
(10.3982 0 6.28213)
(10.6252 0 6.76612)
(10.9119 0 7.26317)
(11.2694 0 7.76406)
(11.7057 0 8.25323)
(12.2214 0 8.71397)
(12.8968 0 9.10479)
(9.99898 0 0.15939)
(9.9956 0 0.316767)
(9.9897 0 0.474268)
(9.98175 0 0.633824)
(9.97226 0 0.797024)
(9.9617 0 0.96528)
(9.95055 0 1.13992)
(9.93937 0 1.32219)
(9.9288 0 1.51326)
(9.9196 0 1.71427)
(9.91261 0 1.92628)
(9.9088 0 2.15032)
(9.90929 0 2.38738)
(9.91537 0 2.63844)
(9.92852 0 2.90442)
(9.9505 0 3.18621)
(9.98332 0 3.48463)
(10.0294 0 3.8004)
(10.0916 0 4.13408)
(10.1732 0 4.48596)
(10.2782 0 4.85594)
(10.4112 0 5.24332)
(10.5775 0 5.64651)
(10.783 0 6.06271)
(11.0341 0 6.48743)
(11.3372 0 6.91397)
(11.6985 0 7.33297)
(12.122 0 7.73103)
(12.6016 0 8.09359)
(13.2066 0 8.40014)
(9.99951 0 0.160521)
(9.99788 0 0.318983)
(9.99509 0 0.477457)
(9.99149 0 0.637816)
(9.98751 0 0.801592)
(9.98359 0 0.970138)
(9.98022 0 1.1447)
(9.97801 0 1.32646)
(9.9776 0 1.51648)
(9.97979 0 1.71577)
(9.98545 0 1.92528)
(9.99559 0 2.14586)
(10.0114 0 2.37834)
(10.0341 0 2.62344)
(10.0653 0 2.88183)
(10.1067 0 3.15404)
(10.1604 0 3.44051)
(10.2285 0 3.74146)
(10.3139 0 4.05687)
(10.4194 0 4.38637)
(10.5486 0 4.72909)
(10.7052 0 5.08351)
(10.8934 0 5.44724)
(11.1175 0 5.81676)
(11.3818 0 6.18716)
(11.6901 0 6.55188)
(12.0451 0 6.90266)
(12.4485 0 7.22918)
(12.8925 0 7.5203)
(13.4351 0 7.76472)
(10 0 0.160887)
(10.0001 0 0.319672)
(10.0004 0 0.478349)
(10.0011 0 0.63872)
(10.0025 0 0.802248)
(10.005 0 0.970214)
(10.0093 0 1.14379)
(10.0157 0 1.32404)
(10.0251 0 1.51195)
(10.0383 0 1.70841)
(10.056 0 1.9142)
(10.0793 0 2.13003)
(10.1094 0 2.35652)
(10.1476 0 2.59419)
(10.1954 0 2.84341)
(10.2544 0 3.10442)
(10.3265 0 3.3773)
(10.4138 0 3.66184)
(10.5187 0 3.95757)
(10.6439 0 4.2636)
(10.792 0 4.57855)
(10.9661 0 4.9004)
(11.1692 0 5.22635)
(11.4043 0 5.5527)
(11.6739 0 5.87469)
(11.9798 0 6.18647)
(12.3231 0 6.48118)
(12.7032 0 6.751)
(13.1127 0 6.98759)
(13.6001 0 7.1841)
(10.0005 0 0.160465)
(10.0023 0 0.318793)
(10.0056 0 0.476886)
(10.0104 0 0.636462)
(10.017 0 0.798908)
(10.0259 0 0.965424)
(10.0374 0 1.13709)
(10.0522 0 1.31488)
(10.071 0 1.49967)
(10.0945 0 1.6922)
(10.1235 0 1.89314)
(10.1592 0 2.10302)
(10.2026 0 2.32227)
(10.2549 0 2.5512)
(10.3176 0 2.78995)
(10.3921 0 3.03847)
(10.4803 0 3.29654)
(10.5838 0 3.56363)
(10.7049 0 3.83892)
(10.8455 0 4.12116)
(11.0078 0 4.40868)
(11.1942 0 4.69922)
(11.4065 0 4.98989)
(11.6466 0 5.27713)
(11.9159 0 5.55663)
(12.2148 0 5.82342)
(12.543 0 6.07198)
(12.8991 0 6.29641)
(13.2761 0 6.49069)
(13.7158 0 6.65064)
(10.001 0 0.159241)
(10.0044 0 0.316317)
(10.0106 0 0.473028)
(10.0194 0 0.630996)
(10.0311 0 0.791526)
(10.0459 0 0.95573)
(10.0644 0 1.12459)
(10.0871 0 1.29899)
(10.1147 0 1.47967)
(10.1479 0 1.66727)
(10.1875 0 1.8623)
(10.2345 0 2.06516)
(10.29 0 2.27608)
(10.355 0 2.49519)
(10.4308 0 2.72241)
(10.5189 0 2.95749)
(10.6206 0 3.19994)
(10.7377 0 3.44901)
(10.8715 0 3.70363)
(11.0239 0 3.96238)
(11.1965 0 4.22342)
(11.3906 0 4.48447)
(11.6076 0 4.74276)
(11.8485 0 4.99503)
(12.1135 0 5.23757)
(12.4024 0 5.46629)
(12.7141 0 5.67686)
(13.0467 0 5.86492)
(13.3941 0 6.02625)
(13.7927 0 6.15833)
(10.0015 0 0.157205)
(10.0065 0 0.312229)
(10.0154 0 0.466755)
(10.028 0 0.622307)
(10.0444 0 0.780094)
(10.065 0 0.941139)
(10.0901 0 1.10633)
(10.1202 0 1.27644)
(10.156 0 1.45211)
(10.1982 0 1.63384)
(10.2475 0 1.82202)
(10.3048 0 2.0169)
(10.371 0 2.21858)
(10.4472 0 2.42699)
(10.5345 0 2.6419)
(10.634 0 2.86288)
(10.747 0 3.08926)
(10.8748 0 3.32014)
(11.0186 0 3.55432)
(11.1795 0 3.79029)
(11.3587 0 4.02621)
(11.5571 0 4.25991)
(11.7754 0 4.48883)
(12.0137 0 4.71014)
(12.2719 0 4.92073)
(12.5491 0 5.11731)
(12.844 0 5.29657)
(13.1544 0 5.45536)
(13.4751 0 5.59075)
(13.8384 0 5.70126)
(10.0019 0 0.154359)
(10.0084 0 0.306528)
(10.0199 0 0.458073)
(10.0361 0 0.610405)
(10.0571 0 0.764641)
(10.0829 0 0.921707)
(10.1142 0 1.0824)
(10.1512 0 1.24738)
(10.1946 0 1.41718)
(10.2449 0 1.5922)
(10.3029 0 1.7727)
(10.3694 0 1.95881)
(10.4451 0 2.15048)
(10.531 0 2.34753)
(10.628 0 2.54958)
(10.7371 0 2.75609)
(10.8592 0 2.96626)
(10.9953 0 3.17911)
(11.1463 0 3.3934)
(11.313 0 3.60762)
(11.496 0 3.82003)
(11.6959 0 4.02862)
(11.9127 0 4.23115)
(12.1463 0 4.4252)
(12.396 0 4.60823)
(12.6609 0 4.77768)
(12.9392 0 4.93105)
(13.229 0 5.06607)
(13.5259 0 5.18076)
(13.8588 0 5.27428)
(10.0024 0 0.150706)
(10.0102 0 0.299228)
(10.0241 0 0.447004)
(10.0438 0 0.595332)
(10.0689 0 0.74523)
(10.0997 0 0.897532)
(10.1366 0 1.05294)
(10.1799 0 1.212)
(10.2301 0 1.37517)
(10.2879 0 1.54273)
(10.3537 0 1.71484)
(10.4282 0 1.8915)
(10.5121 0 2.07259)
(10.6063 0 2.2578)
(10.7113 0 2.44667)
(10.8281 0 2.63856)
(10.9572 0 2.83264)
(11.0995 0 3.02788)
(11.2554 0 3.22306)
(11.4255 0 3.41676)
(11.6101 0 3.60737)
(11.8091 0 3.79309)
(12.0226 0 3.97203)
(12.25 0 4.14215)
(12.4904 0 4.30144)
(12.7426 0 4.44791)
(13.0052 0 4.57972)
(13.2761 0 4.69526)
(13.5517 0 4.79321)
(13.8583 0 4.87313)
(10.0027 0 0.146261)
(10.0119 0 0.290355)
(10.0281 0 0.433591)
(10.0508 0 0.577153)
(10.0798 0 0.72196)
(10.1152 0 0.868752)
(10.1572 0 1.01813)
(10.2062 0 1.17057)
(10.2626 0 1.32642)
(10.3268 0 1.48586)
(10.3994 0 1.64897)
(10.4809 0 1.81567)
(10.5718 0 1.98574)
(10.6728 0 2.15881)
(10.7844 0 2.33435)
(10.9071 0 2.51169)
(11.0415 0 2.68999)
(11.188 0 2.86822)
(11.347 0 3.04525)
(11.5185 0 3.21974)
(11.7027 0 3.39027)
(11.8994 0 3.55529)
(12.1082 0 3.7132)
(12.3284 0 3.86235)
(12.559 0 4.00114)
(12.7989 0 4.12808)
(13.0465 0 4.2418)
(13.3003 0 4.34121)
(13.5569 0 4.42542)
(13.8405 0 4.49428)
(10.0031 0 0.141041)
(10.0134 0 0.279947)
(10.0317 0 0.417896)
(10.0573 0 0.555959)
(10.0898 0 0.694956)
(10.1293 0 0.835537)
(10.1759 0 0.978217)
(10.23 0 1.12338)
(10.2918 0 1.27129)
(10.3618 0 1.42206)
(10.4402 0 1.57569)
(10.5276 0 1.73202)
(10.6243 0 1.89079)
(10.7308 0 2.05157)
(10.8475 0 2.21381)
(10.9747 0 2.37682)
(11.1127 0 2.53978)
(11.2619 0 2.70174)
(11.4222 0 2.86163)
(11.5937 0 3.01827)
(11.7761 0 3.17041)
(11.9692 0 3.31673)
(12.1724 0 3.45592)
(12.3849 0 3.58666)
(12.6057 0 3.70772)
(12.8336 0 3.81795)
(13.0674 0 3.91639)
(13.3055 0 4.00229)
(13.5452 0 4.07508)
(13.8087 0 4.13477)
(10.0034 0 0.135069)
(10.0148 0 0.268051)
(10.035 0 0.399996)
(10.0631 0 0.53186)