/*--------------------------------*- C++ -*----------------------------------*\
  =========                 |
  \\      /  F ield         | OpenFOAM: The Open Source CFD Toolbox
   \\    /   O peration     | Website:  https://openfoam.org
    \\  /    A nd           | Version:  dev
     \\/     M anipulation  |
\*---------------------------------------------------------------------------*/
FoamFile
{
    version     2.0;
    format      ascii;
    class       surfaceVectorField;
    location    "4";
    object      Uf;
}
// * * * * * * * * * * * * * * * * * * * * * * * * * * * * * * * * * * * * * //

dimensions      [0 1 -1 0 0 0 0];

internalField   nonuniform List<vector> 
5457
(
(9.92088 0 0.0251095)
(9.97125 0 0.0387457)
(9.82402 0 0.0328267)
(9.92859 0 0.0485849)
(9.70961 0 0.0393118)
(9.85548 0 0.0587677)
(9.57544 0 0.0460112)
(9.7568 0 0.0705928)
(9.42138 0 0.0529484)
(9.63754 0 0.0830126)
(9.24755 0 0.0601655)
(9.49862 0 0.0959354)
(9.05363 0 0.06781)
(9.33931 0 0.109611)
(8.83894 0 0.0760334)
(9.15875 0 0.124287)
(8.60254 0 0.0849688)
(8.95611 0 0.140165)
(8.34329 0 0.0947432)
(8.7304 0 0.157431)
(8.05987 0 0.105485)
(8.48043 0 0.176267)
(7.75084 0 0.117326)
(8.2048 0 0.196853)
(7.4146 0 0.130393)
(7.90199 0 0.219357)
(7.04955 0 0.144808)
(7.57035 0 0.243919)
(6.65409 0 0.16067)
(7.20824 0 0.270628)
(6.22679 0 0.178041)
(6.81406 0 0.299496)
(5.76651 0 0.196925)
(6.38641 0 0.330409)
(5.27267 0 0.21723)
(5.92426 0 0.363079)
(4.74548 0 0.238733)
(5.4272 0 0.396972)
(4.18632 0 0.26103)
(4.89577 0 0.431233)
(3.59809 0 0.283487)
(4.33176 0 0.464617)
(2.98568 0 0.305202)
(3.73873 0 0.495424)
(2.35625 0 0.32507)
(3.12241 0 0.521514)
(1.71923 0 0.34255)
(2.4912 0 0.540562)
(1.08447 0 0.361883)
(1.85598 0 0.55168)
(0.45195 0 0.348713)
(1.24559 0 0.563026)
(-0.145767 0 0.102508)
(0.609049 0 0.544919)
(-0.423594 0 -0.207093)
(0.0947037 0 0.259413)
(-0.402147 0 -0.361274)
(-0.133604 0 -0.0205098)
(-0.11968 0 -0.393878)
(9.99641 0 0.0516721)
(9.99705 0 0.0405044)
(9.95879 0 0.070861)
(9.97851 0 0.0674539)
(9.89824 0 0.087986)
(9.93377 0 0.0898691)
(9.81659 0 0.105984)
(9.86453 0 0.113554)
(9.71359 0 0.12492)
(9.77438 0 0.138513)
(9.58909 0 0.144852)
(9.66436 0 0.164644)
(9.44275 0 0.166087)
(9.53398 0 0.192329)
(9.27392 0 0.188964)
(9.38251 0 0.222027)
(9.08168 0 0.213779)
(9.2092 0 0.254144)
(8.86492 0 0.240811)
(9.01318 0 0.289059)
(8.62233 0 0.270332)
(8.79334 0 0.327146)
(8.35242 0 0.302601)
(8.54839 0 0.368779)
(8.0536 0 0.337851)
(8.27687 0 0.414308)
(7.72417 0 0.376255)
(7.97721 0 0.464037)
(7.36243 0 0.417895)
(7.64777 0 0.518179)
(6.96679 0 0.4627)
(7.28689 0 0.576796)
(6.53591 0 0.510379)
(6.89303 0 0.639715)
(6.06892 0 0.560326)
(6.4649 0 0.706417)
(5.5657 0 0.611515)
(6.00169 0 0.7759)
(5.02722 0 0.66238)
(5.50337 0 0.846516)
(4.456 0 0.710706)
(4.97101 0 0.915801)
(3.85662 0 0.75354)
(4.40731 0 0.980304)
(3.23632 0 0.7872)
(3.81717 0 1.03546)
(2.60594 0 0.807509)
(3.20859 0 1.07549)
(1.98291 0 0.810479)
(2.59352 0 1.09316)
(1.40538 0 0.776921)
(1.99632 0 1.0771)
(0.929846 0 0.646438)
(1.4196 0 0.978452)
(0.439946 0 0.384392)
(0.937645 0 0.716842)
(0.0592169 0 -0.118566)
(0.443875 0 0.343583)
(0.174937 0 -0.335879)
(9.98903 0 0.0594304)
(9.99481 0 0.0458771)
(9.95434 0 0.0894757)
(9.97368 0 0.0848535)
(9.89729 0 0.11803)
(9.92984 0 0.119172)
(9.82047 0 0.147896)
(9.86357 0 0.153974)
(9.72416 0 0.179419)
(9.77736 0 0.190406)
(9.60822 0 0.212772)
(9.67227 0 0.228633)
(9.47235 0 0.248388)
(9.54811 0 0.269125)
(9.31609 0 0.286769)
(9.40433 0 0.312491)
(9.1387 0 0.32839)
(9.24035 0 0.359318)
(8.93927 0 0.373714)
(9.05551 0 0.410166)
(8.71667 0 0.423196)
(8.84891 0 0.465588)
(8.46963 0 0.477284)
(8.61954 0 0.52614)
(8.19671 0 0.536385)
(8.36619 0 0.592358)
(7.89637 0 0.600827)
(8.08756 0 0.664721)
(7.56697 0 0.670793)
(7.78225 0 0.743599)
(7.2069 0 0.746238)
(7.44879 0 0.829168)
(6.81464 0 0.826764)
(7.08575 0 0.921297)
(6.38896 0 0.911465)
(6.69179 0 1.01938)
(5.92914 0 0.998741)
(6.26581 0 1.12215)
(5.43525 0 1.08608)
(5.80722 0 1.2274)
(4.90867 0 1.16982)
(5.31619 0 1.33173)
(4.35256 0 1.24489)
(4.7941 0 1.43018)
(3.77272 0 1.30455)
(4.2441 0 1.51588)
(3.17886 0 1.33985)
(3.67195 0 1.57944)
(2.58675 0 1.33815)
(3.08645 0 1.60777)
(2.01997 0 1.27301)
(2.50304 0 1.58162)
(1.48704 0 1.09547)
(1.92884 0 1.46431)
(0.958365 0 0.769235)
(1.38533 0 1.21048)
(0.479919 0 0.202536)
(0.829597 0 0.801124)
(0.433757 0 0.134172)
(9.98515 0 0.0716132)
(9.99367 0 0.0531474)
(9.95039 0 0.113629)
(9.97087 0 0.10229)
(9.89437 0 0.154131)
(9.92691 0 0.147952)
(9.81882 0 0.195571)
(9.86185 0 0.193719)
(9.72442 0 0.238808)
(9.77746 0 0.241274)
(9.61113 0 0.28432)
(9.67467 0 0.291159)
(9.47875 0 0.332714)
(9.55343 0 0.34395)
(9.32696 0 0.384667)
(9.41336 0 0.400364)
(9.15524 0 0.440837)
(9.25401 0 0.46113)
(8.96293 0 0.501872)
(9.07485 0 0.526949)
(8.74919 0 0.568414)
(8.87522 0 0.598522)
(8.51307 0 0.641096)
(8.65432 0 0.676545)
(8.2535 0 0.720512)
(8.41126 0 0.761701)
(7.9693 0 0.807169)
(8.14503 0 0.854614)
(7.65923 0 0.901413)
(7.85459 0 0.955793)
(7.32199 0 1.00332)
(7.53881 0 1.06554)
(6.95628 0 1.11255)
(7.19653 0 1.18382)
(6.56093 0 1.22811)
(6.82661 0 1.31005)
(6.13499 0 1.34814)
(6.42798 0 1.44289)
(5.67795 0 1.46958)
(5.99977 0 1.57987)
(5.19012 0 1.58776)
(5.54145 0 1.71706)
(4.67299 0 1.69602)
(5.05318 0 1.84852)
(4.12993 0 1.78515)
(4.53609 0 1.96583)
(3.56679 0 1.84254)
(3.99287 0 2.05731)
(2.99218 0 1.85076)
(3.42773 0 2.10717)
(2.41596 0 1.78254)
(2.84776 0 2.09453)
(1.84064 0 1.60053)
(2.25634 0 1.98881)
(1.25945 0 1.27852)
(1.6604 0 1.75314)
(0.666808 0 0.789638)
(1.02402 0 1.36787)
(0.523057 0 0.78727)
(9.98337 0 0.0844066)
(9.99316 0 0.0612908)
(9.94821 0 0.136835)
(9.96958 0 0.119926)
(9.89315 0 0.18803)
(9.92575 0 0.176238)
(9.81906 0 0.240165)
(9.86199 0 0.232695)
(9.72663 0 0.294462)
(9.77964 0 0.291083)
(9.6159 0 0.351653)
(9.6794 0 0.352268)
(9.48672 0 0.412462)
(9.56128 0 0.416969)
(9.3388 0 0.477666)
(9.42497 0 0.485998)
(9.17172 0 0.548037)
(9.2701 0 0.560192)
(8.98494 0 0.624338)
(9.09621 0 0.640371)
(8.7778 0 0.707324)
(8.90276 0 0.727349)
(8.54956 0 0.797742)
(8.68909 0 0.821934)
(8.29938 0 0.8963)
(8.45447 0 0.924915)
(8.02639 0 1.00362)
(8.19811 0 1.03703)
(7.72962 0 1.12017)
(7.91916 0 1.15888)
(7.40811 0 1.24613)
(7.61674 0 1.29089)
(7.06083 0 1.38124)
(7.28992 0 1.43311)
(6.68677 0 1.52455)
(6.9377 0 1.58506)
(6.28494 0 1.67415)
(6.55907 0 1.74546)
(5.85449 0 1.82676)
(6.15297 0 1.91185)
(5.39482 0 1.97723)
(5.71833 0 2.08013)
(4.90588 0 2.11804)
(5.2542 0 2.24407)
(4.38838 0 2.23861)
(4.75987 0 2.39459)
(3.84408 0 2.32456)
(4.23509 0 2.5192)
(3.27557 0 2.35699)
(3.68003 0 2.60127)
(2.68551 0 2.31066)
(3.09585 0 2.61976)
(2.07279 0 2.1551)
(2.48181 0 2.54741)
(1.42945 0 1.86751)
(1.84001 0 2.35384)
(0.742649 0 1.4197)
(1.13142 0 2.02466)
(0.543332 0 1.51465)
(9.98264 0 0.0974966)
(9.99299 0 0.0697921)
(9.94744 0 0.159773)
(9.96925 0 0.137582)
(9.89354 0 0.221344)
(9.92597 0 0.203924)
(9.82134 0 0.284088)
(9.86381 0 0.270684)
(9.73134 0 0.349342)
(9.78386 0 0.339577)
(9.62367 0 0.418011)
(9.68665 0 0.41169)
(9.49819 0 0.490928)
(9.57218 0 0.487893)
(9.35466 0 0.568961)
(9.44022 0 0.569092)
(9.1927 0 0.652988)
(9.29044 0 0.656218)
(9.01185 0 0.743878)
(9.12243 0 0.750195)
(8.81153 0 0.842493)
(8.93573 0 0.851934)
(8.59111 0 0.949682)
(8.72975 0 0.96234)
(8.34988 0 1.06625)
(8.50384 0 1.08229)
(8.0871 0 1.19293)
(8.25731 0 1.21261)
(7.80197 0 1.33027)
(7.98941 0 1.35401)
(7.49365 0 1.47856)
(7.69934 0 1.50698)
(7.16125 0 1.63764)
(7.38623 0 1.67172)
(6.8038 0 1.80671)
(7.0491 0 1.84787)
(6.4202 0 1.98393)
(6.68683 0 2.03431)
(6.00923 0 2.1661)
(6.29811 0 2.22879)
(5.56952 0 2.34808)
(5.8813 0 2.42744)
(5.09959 0 2.52219)
(5.43446 0 2.62423)
(4.59788 0 2.67757)
(4.95525 0 2.81028)
(4.06284 0 2.79951)
(4.44099 0 2.97323)
(3.49284 0 2.86916)
(3.88867 0 3.09666)
(2.88595 0 2.863)
(3.29537 0 3.15997)
(2.23812 0 2.75404)
(2.65703 0 3.13801)
(1.54252 0 2.52117)
(1.97494 0 3.00333)
(0.793689 0 2.1315)
(1.20731 0 2.74077)
(0.556767 0 2.29202)
(9.9825 0 0.110625)
(9.99302 0 0.0783606)
(9.94771 0 0.182322)
(9.96954 0 0.155035)
(9.89523 0 0.253813)
(9.92722 0 0.230883)
(9.82524 0 0.326761)
(9.86697 0 0.307504)
(9.73813 0 0.402548)
(9.78978 0 0.386516)
(9.63404 0 0.482224)
(9.69606 0 0.469139)
(9.51286 0 0.566745)
(9.58579 0 0.556386)
(9.37439 0 0.657077)
(9.4588 0 0.649256)
(9.21829 0 0.754194)
(9.31481 0 0.748769)
(9.04415 0 0.859062)
(9.15347 0 0.855941)
(8.85146 0 0.972636)
(8.97435 0 0.971775)
(8.63965 0 1.09585)
(8.77692 0 1.09727)
(8.40805 0 1.22961)
(8.5606 0 1.23338)
(8.15598 0 1.37471)
(8.32472 0 1.38104)
(7.88269 0 1.53182)
(8.06856 0 1.54104)
(7.58732 0 1.70134)
(7.7913 0 1.714)
(7.26896 0 1.88325)
(7.49201 0 1.90025)
(6.9265 0 2.07692)
(7.16961 0 2.09965)
(6.5586 0 2.28081)
(6.82274 0 2.31134)
(6.16357 0 2.49201)
(6.44969 0 2.53344)
(5.73925 0 2.7058)
(6.04821 0 2.7626)
(5.28287 0 2.91497)
(5.61538 0 2.99343)
(4.79098 0 3.10916)
(5.14739 0 3.21783)
(4.25945 0 3.27422)
(4.63955 0 3.42428)
(3.68355 0 3.39191)
(4.08623 0 3.59719)
(3.05819 0 3.43978)
(3.48148 0 3.71662)
(2.37786 0 3.39193)
(2.81852 0 3.75825)
(1.638 0 3.22635)
(2.09928 0 3.69415)
(0.83918 0 2.90105)
(1.279 0 3.50469)
(0.573398 0 3.11394)
(9.98273 0 0.12358)
(9.99316 0 0.0868166)
(9.94873 0 0.204307)
(9.97027 0 0.172091)
(9.89794 0 0.285248)
(9.92926 0 0.256972)
(9.83051 0 0.367959)
(9.87124 0 0.342983)
(9.74671 0 0.453843)
(9.79715 0 0.431671)
(9.64668 0 0.544066)
(9.70735 0 0.524341)
(9.53038 0 0.639694)
(9.60181 0 0.622123)
(9.39763 0 0.741782)
(9.48039 0 0.72611)
(9.24814 0 0.851394)
(9.34286 0 0.837405)
(9.08154 0 0.969581)
(9.18895 0 0.957108)
(8.89738 0 1.09739)
(9.01825 0 1.08631)
(8.69512 0 1.23585)
(8.83031 0 1.2261)
(8.47415 0 1.38594)
(8.62457 0 1.37754)
(8.2338 0 1.54858)
(8.40039 0 1.54164)
(7.97327 0 1.72455)
(8.15705 0 1.71933)
(7.69166 0 1.91439)
(7.89368 0 1.91137)
(7.38792 0 2.11829)
(7.60926 0 2.1183)
(7.0607 0 2.3359)
(7.30249 0 2.34022)
(6.7083 0 2.56606)
(6.97174 0 2.57669)
(6.32848 0 2.80643)
(6.61482 0 2.82637)
(5.91823 0 3.053)
(6.22884 0 3.08664)
(5.47361 0 3.2995)
(5.80989 0 3.35312)
(4.98948 0 3.53665)
(5.35282 0 3.61895)
(4.45952 0 3.75143)
(4.85107 0 3.87399)
(3.87641 0 3.92653)
(4.29662 0 4.10398)
(3.23251 0 4.03997)
(3.68076 0 4.28977)
(2.52099 0 4.06515)
(2.9937 0 4.40692)
(1.73849 0 3.97635)
(2.23754 0 4.42479)
(0.889536 0 3.71901)
(1.36347 0 4.31655)
(0.598802 0 3.98519)
(9.98321 0 0.136202)
(9.99339 0 0.0950395)
(9.95032 0 0.225569)
(9.97131 0 0.188587)
(9.90151 0 0.315492)
(9.93193 0 0.282045)
(9.83694 0 0.407497)
(9.87643 0 0.376955)
(9.75684 0 0.503003)
(9.80579 0 0.474833)
(9.66135 0 0.603265)
(9.7203 0 0.577039)
(9.55046 0 0.709444)
(9.61996 0 0.684801)
(9.42404 0 0.822682)
(9.50465 0 0.799298)
(9.28185 0 0.944122)
(9.37423 0 0.921712)
(9.12357 0 1.0749)
(9.22844 0 1.05322)
(8.9488 0 1.21616)
(9.06696 0 1.19501)
(8.75707 0 1.369)
(8.88939 0 1.34824)
(8.54779 0 1.53454)
(8.69522 0 1.51407)
(8.32028 0 1.71379)
(8.48384 0 1.69365)
(8.07374 0 1.90768)
(8.25454 0 1.88804)
(7.80719 0 2.11696)
(8.0064 0 2.0982)
(7.51939 0 2.34208)
(7.73831 0 2.32489)
(7.20876 0 2.58308)
(7.4488 0 2.5686)
(6.8732 0 2.83931)
(7.13594 0 2.82937)
(6.5099 0 3.1092)
(6.79712 0 3.10655)
(6.11503 0 3.38974)
(6.42881 0 3.39853)
(5.68349 0 3.67597)
(6.02621 0 3.70223)
(5.20858 0 3.96019)
(5.58288 0 4.01244)
(4.68187 0 4.231)
(5.09044 0 4.32095)
(4.09341 0 4.47237)
(4.53841 0 4.61541)
(3.43263 0 4.66266)
(3.91484 0 4.87795)
(2.69024 0 4.77333)
(3.20582 0 5.08373)
(1.86194 0 4.77264)
(2.4114 0 5.19819)
(0.954229 0 4.59001)
(1.47636 0 5.1846)
(0.639232 0 4.9198)
(9.98386 0 0.148368)
(9.99368 0 0.102943)
(9.95235 0 0.245968)
(9.9726 0 0.204392)
(9.90578 0 0.344395)
(9.9351 0 0.305966)
(9.84437 0 0.445192)
(9.88241 0 0.409265)
(9.76833 0 0.549802)
(9.81552 0 0.515809)
(9.6778 0 0.659547)
(9.73471 0 0.627)
(9.57281 0 0.775672)
(9.63999 0 0.744144)
(9.45328 0 0.899397)
(9.5313 0 0.868498)
(9.31902 0 1.03194)
(9.40853 0 1.00131)
(9.16979 0 1.17452)
(9.27152 0 1.14385)
(9.00523 0 1.32836)
(9.12 0 1.29735)
(8.82494 0 1.49467)
(8.95362 0 1.46308)
(8.62836 0 1.67465)
(8.77195 0 1.64232)
(8.41487 0 1.86948)
(8.57445 0 1.8363)
(8.18364 0 2.08026)
(8.3604 0 2.04628)
(7.93365 0 2.30798)
(8.12893 0 2.27342)
(7.66354 0 2.55342)
(7.87885 0 2.51879)
(7.37151 0 2.81709)
(7.6086 0 2.7833)
(7.05515 0 3.09902)
(7.31606 0 3.06759)
(6.71114 0 3.39856)
(6.9983 0 3.37186)
(6.33494 0 3.71399)
(6.65132 0 3.69568)
(5.92042 0 4.04203)
(6.26956 0 4.03757)
(5.45936 0 4.37702)
(5.84549 0 4.39444)
(4.94117 0 4.70988)
(5.369 0 4.76068)
(4.35283 0 5.02658)
(4.82692 0 5.12674)
(3.6797 0 5.30629)
(4.20331 0 5.47713)
(2.90761 0 5.51836)
(3.47804 0 5.78762)
(2.02774 0 5.62327)
(2.64516 0 6.01974)
(1.04515 0 5.52978)
(1.63781 0 6.12426)
(0.704513 0 5.94346)
(9.98465 0 0.15998)
(9.99402 0 0.110462)
(9.95473 0 0.265379)
(9.97409 0 0.219398)
(9.91065 0 0.371816)
(9.93868 0 0.328609)
(9.85267 0 0.480878)
(9.88905 0 0.439771)
(9.781 0 0.594036)
(9.82618 0 0.554426)
(9.69581 0 0.712669)
(9.75038 0 0.674015)
(9.59716 0 0.838092)
(9.66166 0 0.799903)
(9.48502 0 0.971595)
(9.56003 0 0.933417)
(9.35927 0 1.11447)
(9.44543 0 1.07587)
(9.21973 0 1.26799)
(9.31776 0 1.22858)
(9.06613 0 1.43348)
(9.17684 0 1.39288)
(8.89811 0 1.61223)
(9.02241 0 1.57011)
(8.71523 0 1.80558)
(8.8541 0 1.76163)
(8.51687 0 2.01483)
(8.67146 0 1.96884)
(8.30228 0 2.24129)
(8.47386 0 2.19313)
(8.07043 0 2.48622)
(8.26047 0 2.43592)
(7.81994 0 2.7508)
(8.03016 0 2.69861)
(7.5489 0 3.03608)
(7.78135 0 2.98257)
(7.25473 0 3.34287)
(7.5119 0 3.2891)
(6.9338 0 3.67159)
(7.21878 0 3.61936)
(6.58108 0 4.02207)
(6.89776 0 3.97427)
(6.18965 0 4.39305)
(6.5429 0 4.35423)
(5.74999 0 4.78156)
(6.14591 0 4.75872)
(5.24936 0 5.18172)
(5.69531 0 5.18551)
(4.6712 0 5.58286)
(5.17534 0 5.62923)
(3.99516 0 5.96668)
(4.56537 0 6.07889)
(3.19865 0 6.30194)
(3.83661 0 6.51377)
(2.26195 0 6.541)
(2.97107 0 6.89435)
(1.18071 0 6.56551)
(1.87931 0 7.15826)
(0.812885 0 7.09989)
(9.98553 0 0.170962)
(9.9944 0 0.117546)
(9.95738 0 0.283696)
(9.97572 0 0.233518)
(9.916 0 0.397631)
(9.94258 0 0.349866)
(9.86169 0 0.514406)
(9.89623 0 0.468347)
(9.79468 0 0.635526)
(9.83764 0 0.590533)
(9.71517 0 0.762417)
(9.76713 0 0.717899)
(9.62324 0 0.896451)
(9.68475 0 0.851861)
(9.51894 0 1.03898)
(9.59055 0 0.9938)
(9.40221 0 1.19135)
(9.48456 0 1.14508)
(9.27293 0 1.35491)
(9.36673 0 1.30708)
(9.13094 0 1.53104)
(9.23698 0 1.48119)
(8.97596 0 1.72114)
(9.09514 0 1.66883)
(8.80764 0 1.92664)
(8.94096 0 1.87145)
(8.62547 0 2.14901)
(8.77408 0 2.09056)
(8.42879 0 2.38975)
(8.59401 0 2.32773)
(8.21664 0 2.65042)
(8.40004 0 2.58461)
(7.98773 0 2.9326)
(8.19117 0 2.86293)
(7.74024 0 3.23793)
(7.96599 0 3.16453)
(7.47157 0 3.56803)
(7.7225 0 3.4914)
(7.17811 0 3.92455)
(7.45784 0 3.84569)
(6.8547 0 4.309)
(7.16796 0 4.22972)
(6.49409 0 4.72251)
(6.84704 0 4.64595)
(6.086 0 5.16542)
(6.48674 0 5.09684)
(5.61599 0 5.63624)
(6.07501 0 5.58435)
(5.06396 0 6.12982)
(5.5944 0 6.109)
(4.4026 0 6.63387)
(5.02003 0 6.66759)
(3.5965 0 7.12143)
(4.313 0 7.24867)
(2.60462 0 7.54099)
(3.43609 0 7.82049)
(1.39448 0 7.74094)
(2.25678 0 8.31553)
(1.00277 0 8.46569)
(9.9865 0 0.181251)
(9.9948 0 0.124155)
(9.96026 0 0.30083)
(9.97747 0 0.246678)
(9.92176 0 0.421729)
(9.94676 0 0.369644)
(9.87133 0 0.545644)
(9.90387 0 0.49488)
(9.80923 0 0.674114)
(9.84977 0 0.623996)
(9.73567 0 0.808601)
(9.78478 0 0.758495)
(9.6508 0 0.950527)
(9.70902 0 0.899832)
(9.55471 0 1.10129)
(9.62258 0 1.04943)
(9.44742 0 1.26228)
(9.52555 0 1.2087)
(9.3289 0 1.43492)
(9.41798 0 1.37905)
(9.19908 0 1.62063)
(9.29988 0 1.56194)
(9.05779 0 1.82089)
(9.17118 0 1.75883)
(8.9048 0 2.03723)
(9.03176 0 1.97126)
(8.73975 0 2.27127)
(8.88141 0 2.20084)
(8.56211 0 2.5247)
(8.7198 0 2.4493)
(8.37112 0 2.79934)
(8.54643 0 2.71848)
(8.16568 0 3.09717)
(8.36052 0 3.01041)
(7.9442 0 3.4204)
(8.16097 0 3.32737)
(7.70438 0 3.77147)
(7.94615 0 3.67198)
(7.44296 0 4.15323)
(7.71368 0 4.0473)
(7.15518 0 4.56893)
(7.46014 0 4.45703)
(6.83417 0 5.0223)
(7.18049 0 4.90565)
(6.46986 0 5.51748)
(6.86735 0 5.39868)
(6.04739 0 6.0586)
(6.50967 0 5.94285)
(5.54452 0 6.64869)
(6.09049 0 6.54606)
(4.92759 0 7.28706)
(5.58366 0 7.21673)
(4.14554 0 7.96164)
(4.94313 0 7.96164)
(3.12226 0 8.63401)
(4.10995 0 8.77595)
(1.75657 0 9.12852)
(2.87901 0 9.62154)
(1.36505 0 10.1861)
(9.98754 0 0.190798)
(9.99523 0 0.13026)
(9.96332 0 0.316705)
(9.97932 0 0.258822)
(9.92785 0 0.444018)
(9.95115 0 0.387865)
(9.88147 0 0.574483)
(9.91187 0 0.51928)
(9.82448 0 0.70967)
(9.86243 0 0.654707)
(9.75712 0 0.851073)
(9.80317 0 0.795673)
(9.67957 0 1.00015)
(9.73424 0 0.943661)
(9.592 0 1.15833)
(9.65582 0 1.10013)
(9.4945 0 1.32705)
(9.56804 0 1.26651)
(9.38714 0 1.50775)
(9.47106 0 1.44425)
(9.26995 0 1.70192)
(9.36498 0 1.63483)
(9.14288 0 1.91109)
(9.24985 0 1.83976)
(9.00586 0 2.13688)
(9.1257 0 2.06065)
(8.8587 0 2.38101)
(8.99249 0 2.29917)
(8.70107 0 2.64533)
(8.8501 0 2.55717)
(8.53248 0 2.93191)
(8.69827 0 2.83664)
(8.35214 0 3.24305)
(8.53657 0 3.13986)
(8.15888 0 3.58145)
(8.36433 0 3.46946)
(7.95098 0 3.95028)
(8.18047 0 3.82853)
(7.72588 0 4.35343)
(7.98341 0 4.2209)
(7.47983 0 4.79577)
(7.77078 0 4.65137)
(7.20729 0 5.28349)
(7.53911 0 5.12613)
(6.89987 0 5.82456)
(7.28315 0 5.6534)
(6.5446 0 6.42936)
(6.99493 0 6.24433)
(6.12075 0 7.11131)
(6.66173 0 6.91443)
(5.59357 0 7.88758)
(6.26298 0 7.68599)
(4.90154 0 8.77805)
(5.75825 0 8.59254)
(3.9276 0 9.80201)
(5.08822 0 9.68534)
(2.43382 0 10.8577)
(3.98052 0 11.05)
(2.14695 0 12.5699)
(9.98861 0 0.199562)
(9.99567 0 0.135835)
(9.96652 0 0.33126)
(9.98124 0 0.269905)
(9.9342 0 0.464415)
(9.9557 0 0.40447)
(9.89202 0 0.600816)
(9.92016 0 0.541472)
(9.8403 0 0.742058)
(9.87552 0 0.682577)
(9.77931 0 0.889659)
(9.82215 0 0.82933)
(9.70931 0 1.0451)
(9.76027 0 0.983231)
(9.63049 0 1.20983)
(9.69009 0 1.14575)
(9.54306 0 1.38531)
(9.61184 0 1.31835)
(9.44715 0 1.57302)
(9.52575 0 1.50248)
(9.34293 0 1.77447)
(9.43204 0 1.69965)
(9.23049 0 1.99122)
(9.33089 0 1.91138)
(9.10992 0 2.22495)
(9.2225 0 2.13931)
(8.98123 0 2.47745)
(9.107 0 2.38516)
(8.84435 0 2.75071)
(8.98453 0 2.65084)
(8.69911 0 3.04692)
(8.85512 0 2.93844)
(8.54515 0 3.36866)
(8.71876 0 3.25039)
(8.38186 0 3.71896)
(8.57527 0 3.5895)
(8.20831 0 4.10152)
(8.42433 0 3.95922)
(8.02302 0 4.521)
(8.26537 0 4.3638)
(7.82382 0 4.98346)
(8.09747 0 4.80871)
(7.60743 0 5.49693)
(7.91928 0 5.30119)
(7.36881 0 6.07247)
(7.72884 0 5.8511)
(7.10006 0 6.72575)
(7.52327 0 6.47238)
(6.78803 0 7.47997)
(7.29834 0 7.18562)
(6.40918 0 8.37189)
(7.04862 0 8.02322)
(5.9165 0 9.46603)
(6.76393 0 9.0417)
(5.19735 0 10.9088)
(6.46336 0 10.3568)
(3.88588 0 13.1805)
(6.19215 0 12.3042)
(5.26269 0 16.3759)
(0.20283 0 -0.125088)
(0.117103 0 -0.198659)
(0.395978 0 -0.106896)
(0.284451 0 -0.184709)
(0.5576 0 -0.0840271)
(0.453316 0 -0.15091)
(0.688456 0 -0.0643211)
(0.598647 0 -0.119297)
(0.793803 0 -0.0487332)
(0.716631 0 -0.0937732)
(0.878821 0 -0.0367158)
(0.812231 0 -0.0738899)
(0.947933 0 -0.0275951)
(0.891003 0 -0.0586475)
(1.00486 0 -0.0207895)
(0.957205 0 -0.0471651)
(1.05266 0 -0.0157979)
(1.01397 0 -0.038668)
(1.09377 0 -0.0121886)
(1.06373 0 -0.0324748)
(1.13008 0 -0.0095899)
(1.10838 0 -0.0279983)
(1.16291 0 -0.0076774)
(1.14937 0 -0.0247259)
(1.1931 0 -0.00616601)
(1.18768 0 -0.0221978)
(1.22098 0 -0.00481731)
(1.22388 0 -0.0200089)
(1.24643 0 -0.00346174)
(1.25812 0 -0.0178391)
(1.26908 0 -0.00201998)
(1.29022 0 -0.0155015)
(1.28849 0 -0.000493655)
(1.31983 0 -0.012968)
(1.30431 0 0.00109723)
(1.34662 0 -0.0103204)
(1.31626 0 0.00279855)
(1.37037 0 -0.00761111)
(1.32388 0 0.00470259)
(1.391 0 -0.00474318)
(1.32656 0 0.00672931)
(1.40819 0 -0.00162729)
(1.32348 0 0.00857859)
(1.42125 0 0.00182879)
(1.31483 0 0.00987502)
(1.42937 0 0.00500916)
(1.30233 0 0.0102338)
(1.43267 0 0.00706092)
(1.28888 0 0.00952358)
(1.43292 0 0.00742744)
(1.27704 0 0.00799753)
(1.43283 0 0.00637942)
(1.26814 0 0.00598029)
(1.43443 0 0.00468282)
(1.2629 0 0.00363198)
(1.43852 0 0.00268883)
(1.26188 0 0.00103451)
(1.44518 0 0.000513963)
(1.45663 0 -0.00201944)
(0.180772 0 -0.287295)
(0.0931165 0 -0.375715)
(0.35652 0 -0.253583)
(0.244 0 -0.352778)
(0.50653 0 -0.205551)
(0.387225 0 -0.290977)
(0.631201 0 -0.163332)
(0.511483 0 -0.232955)
(0.735335 0 -0.129828)
(0.613777 0 -0.186467)
(0.823367 0 -0.103976)
(0.698805 0 -0.150399)
(0.898917 0 -0.0843339)
(0.770928 0 -0.122758)
(0.964912 0 -0.0696374)
(0.833358 0 -0.101845)
(1.0237 0 -0.0588018)
(0.888457 0 -0.0862252)
(1.07714 0 -0.0508984)
(0.93805 0 -0.0746832)
(1.12666 0 -0.0451324)
(0.983576 0 -0.0661933)
(1.17334 0 -0.0408103)
(1.02614 0 -0.0598725)
(1.21787 0 -0.0373199)
(1.06653 0 -0.0549372)
(1.26062 0 -0.0341441)
(1.10525 0 -0.0506955)
(1.30163 0 -0.0309094)
(1.14251 0 -0.0465873)
(1.34074 0 -0.0274411)
(1.17825 0 -0.0422658)
(1.3777 0 -0.0237624)
(1.21223 0 -0.0376639)
(1.41239 0 -0.0199779)
(1.24418 0 -0.0329521)
(1.44489 0 -0.0160757)
(1.274 0 -0.0283114)
(1.47525 0 -0.0118583)
(1.3019 0 -0.0236267)
(1.50291 0 -0.00721007)
(1.32817 0 -0.018421)
(1.52686 0 -0.00249217)
(1.3525 0 -0.0123756)
(1.54642 0 0.00141934)
(1.37396 0 -0.00631242)
(1.56221 0 0.00368675)
(1.39171 0 -0.00186549)
(1.57613 0 0.00415236)
(1.40601 0 -0.000254822)
(1.58999 0 0.00336612)
(1.4185 0 -0.00108489)
(1.60474 0 0.00191019)
(1.43077 0 -0.00308181)
(1.62085 0 2.43189e-05)
(1.44315 0 -0.00558371)
(1.63791 0 -0.00181313)
(1.45551 0 -0.00804288)
(1.47043 0 -0.00879862)
(0.147005 0 -0.4488)
(0.0689854 0 -0.519697)
(0.28554 0 -0.39814)
(0.189834 0 -0.48526)
(0.401669 0 -0.325755)
(0.292733 0 -0.399409)
(0.497473 0 -0.262332)
(0.382193 0 -0.320296)
(0.577577 0 -0.212099)
(0.454187 0 -0.25777)
(0.645541 0 -0.173218)
(0.514074 0 -0.209467)
(0.704152 0 -0.143474)
(0.564788 0 -0.172495)
(0.755572 0 -0.120972)
(0.608454 0 -0.144449)
(0.801502 0 -0.104125)
(0.64668 0 -0.123382)
(0.843301 0 -0.0916031)
(0.680733 0 -0.107699)
(0.882042 0 -0.0822736)
(0.711624 0 -0.0960704)
(0.918537 0 -0.0751492)
(0.740142 0 -0.0873534)
(0.953348 0 -0.069354)
(0.76689 0 -0.0805305)
(0.986781 0 -0.0641361)
(0.792291 0 -0.0746955)
(1.01889 0 -0.058935)
(0.816584 0 -0.0690922)
(1.04951 0 -0.0534755)
(0.839812 0 -0.0632214)
(1.07839 0 -0.0478071)
(0.861764 0 -0.0569591)
(1.10539 0 -0.0421707)
(0.882073 0 -0.0505701)
(1.13072 0 -0.0366556)
(0.900388 0 -0.0444435)
(1.15478 0 -0.0308539)
(0.916921 0 -0.0385919)
(1.17772 0 -0.0240425)
(0.932507 0 -0.0323524)
(1.19912 0 -0.0162796)
(0.948114 0 -0.0250626)
(1.21806 0 -0.00934556)
(0.9631 0 -0.0172763)
(1.23407 0 -0.00554141)
(0.97462 0 -0.010915)
(1.24747 0 -0.00545732)
(0.98018 0 -0.0076495)
(1.2591 0 -0.00790929)
(0.980854 0 -0.0073516)
(1.269 0 -0.011379)
(0.979103 0 -0.00829145)
(1.2776 0 -0.0147408)
(0.975426 0 -0.0100032)
(1.28616 0 -0.0164562)
(0.970149 0 -0.0123363)
(0.96476 0 -0.012495)
(0.110606 0 -0.567228)
(0.0453703 0 -0.628028)
(0.205708 0 -0.498045)
(0.129528 0 -0.576207)
(0.281125 0 -0.405353)
(0.185533 0 -0.469827)
(0.34152 0 -0.326164)
(0.235942 0 -0.375356)
(0.391269 0 -0.26431)
(0.272145 0 -0.302053)
(0.432864 0 -0.216629)
(0.301626 0 -0.245618)
(0.46813 0 -0.180161)
(0.325278 0 -0.202421)
(0.498402 0 -0.152492)
(0.344301 0 -0.16953)
(0.524731 0 -0.131679)
(0.359639 0 -0.144681)
(0.547974 0 -0.116126)
(0.372071 0 -0.126058)
(0.568832 0 -0.104485)
(0.382211 0 -0.112156)
(0.587861 0 -0.0955757)
(0.390553 0 -0.101682)
(0.605489 0 -0.088351)
(0.397534 0 -0.093491)
(0.622013 0 -0.0818956)
(0.403544 0 -0.0865571)
(0.637569 0 -0.0754945)
(0.408921 0 -0.0799954)
(0.652082 0 -0.0687519)
(0.413904 0 -0.0731534)
(0.66526 0 -0.0616911)
(0.418356 0 -0.0657641)
(0.676731 0 -0.0546915)
(0.421916 0 -0.0580541)
(0.686442 0 -0.0481698)
(0.423464 0 -0.0506289)
(0.695027 0 -0.0421544)
(0.422644 0 -0.0439314)
(0.703365 0 -0.0361149)
(0.419108 0 -0.0374155)
(0.711499 0 -0.0294014)
(0.415001 0 -0.0298855)
(0.717432 0 -0.0220741)
(0.409678 0 -0.0207108)
(0.718374 0 -0.0152557)
(0.403435 0 -0.0114479)
(0.712694 0 -0.00996118)
(0.394248 0 -0.00451455)
(0.701123 0 -0.00637531)
(0.383446 0 -0.00111639)
(0.685599 0 -0.00463449)
(0.374022 0 -0.000124006)
(0.6673 0 -0.00512175)
(0.364193 0 -0.000603155)
(0.648353 0 -0.00654022)
(0.35334 0 -0.00283283)
(0.337461 0 -0.00867438)
(0.0690027 0 -0.645376)
(0.0207051 0 -0.695612)
(0.116193 0 -0.556659)
(0.0624322 0 -0.621335)
(0.147633 0 -0.448085)
(0.0676518 0 -0.499184)
(0.168534 0 -0.358496)
(0.0762378 0 -0.39441)
(0.183622 0 -0.289498)
(0.07305 0 -0.315484)
(0.194041 0 -0.236424)
(0.0681966 0 -0.254673)
(0.200762 0 -0.195776)
(0.0602397 0 -0.208124)
(0.204491 0 -0.164816)
(0.0500948 0 -0.172619)
(0.205817 0 -0.141416)
(0.0383133 0 -0.145754)
(0.205221 0 -0.123849)
(0.0253812 0 -0.125587)
(0.203104 0 -0.11067)
(0.0116465 0 -0.110523)
(0.199815 0 -0.10062)
(-0.00260579 0 -0.0992058)
(0.195661 0 -0.0925674)
(-0.0170799 0 -0.090437)
(0.190921 0 -0.0854976)
(-0.0314713 0 -0.0831542)
(0.185859 0 -0.0785623)
(-0.0454716 0 -0.0764473)
(0.18065 0 -0.0711908)
(-0.0587565 0 -0.0695886)
(0.175189 0 -0.0632195)
(-0.0712037 0 -0.0621157)
(0.168832 0 -0.054882)
(-0.0828162 0 -0.0539063)
(0.160249 0 -0.0464967)
(-0.0943826 0 -0.0451617)
(0.147938 0 -0.0379252)
(-0.106383 0 -0.0362748)
(0.131477 0 -0.0284309)
(-0.119863 0 -0.0274198)
(0.111944 0 -0.0176111)
(-0.133442 0 -0.0183038)
(0.0925549 0 -0.00696928)
(-0.147543 0 -0.0094865)
(0.0759409 0 0.00075564)
(-0.160163 0 -0.00205709)
(0.0642197 0 0.00420834)
(-0.171 0 0.00195422)
(0.0572378 0 0.0045223)
(-0.180155 0 0.00264582)
(0.0527202 0 0.00316328)
(-0.185615 0 0.00225282)
(0.0485497 0 0.000547728)
(-0.189869 0 0.00153924)
(0.0434033 0 -0.00543804)
(-0.194429 0 -0.000251601)
(-0.203788 0 -0.00628112)
(0.021237 0 -0.677587)
(-0.00669082 0 -0.716412)
(0.0175325 0 -0.568824)
(-0.0123554 0 -0.617793)
(0.000450158 0 -0.44851)
(-0.0584261 0 -0.483234)
(-0.0178837 0 -0.352994)
(-0.0943998 0 -0.377696)
(-0.0404748 0 -0.280371)
(-0.137695 0 -0.295375)
(-0.065063 0 -0.225042)
(-0.179299 0 -0.233303)
(-0.0907979 0 -0.182986)
(-0.220348 0 -0.186286)
(-0.116991 0 -0.151207)
(-0.259914 0 -0.150917)
(-0.143223 0 -0.12736)
(-0.297564 0 -0.124533)
(-0.169211 0 -0.10958)
(-0.333009 0 -0.10506)
(-0.194751 0 -0.096347)
(-0.366169 0 -0.0908268)
(-0.219666 0 -0.0863507)
(-0.397094 0 -0.0804448)
(-0.243809 0 -0.078427)
(-0.425872 0 -0.0726865)
(-0.267044 0 -0.0715755)
(-0.452604 0 -0.0664755)
(-0.289169 0 -0.065005)
(-0.477352 0 -0.0609396)
(-0.309867 0 -0.0581723)
(-0.500052 0 -0.0554243)
(-0.328735 0 -0.0508173)
(-0.520529 0 -0.0495087)
(-0.345456 0 -0.0429607)
(-0.538602 0 -0.0429977)
(-0.360031 0 -0.0348196)
(-0.554247 0 -0.0358775)
(-0.372909 0 -0.0266409)
(-0.567658 0 -0.0282653)
(-0.384587 0 -0.0186084)
(-0.57918 0 -0.0203282)
(-0.394894 0 -0.0110193)
(-0.588904 0 -0.0121929)
(-0.403731 0 -0.00457967)
(-0.597102 0 -0.00437049)
(-0.410301 0 -0.000185454)
(-0.604324 0 0.00165628)
(-0.416017 0 0.00165517)
(-0.610697 0 0.00510903)
(-0.422072 0 0.00186061)
(-0.617683 0 0.00590833)
(-0.428335 0 0.00196451)
(-0.624202 0 0.00554821)
(-0.434246 0 0.00158726)
(-0.630362 0 0.00457563)
(-0.438304 0 -0.00134385)
(-0.63668 0 0.00178376)
(-0.64255 0 -0.0038264)
(-0.0310843 0 -0.657179)
(-0.039072 0 -0.685967)
(-0.086844 0 -0.530796)
(-0.0946127 0 -0.564469)
(-0.148501 0 -0.407327)
(-0.190034 0 -0.425663)
(-0.212035 0 -0.312644)
(-0.270946 0 -0.319774)
(-0.27418 0 -0.240872)
(-0.352286 0 -0.240058)
(-0.333696 0 -0.18741)
(-0.42773 0 -0.181577)
(-0.38946 0 -0.14771)
(-0.496703 0 -0.138965)
(-0.440976 0 -0.118519)
(-0.558752 0 -0.108234)
(-0.488002 0 -0.0973683)
(-0.614031 0 -0.0864902)
(-0.530545 0 -0.0822909)
(-0.663034 0 -0.071456)
(-0.568845 0 -0.0716722)
(-0.706378 0 -0.06129)
(-0.603278 0 -0.0641526)
(-0.744766 0 -0.0545167)
(-0.634276 0 -0.0585576)
(-0.778873 0 -0.049896)
(-0.662257 0 -0.0539275)
(-0.809318 0 -0.0463898)
(-0.687504 0 -0.0495525)
(-0.836616 0 -0.0432436)
(-0.710103 0 -0.044952)
(-0.861064 0 -0.0399589)
(-0.729969 0 -0.0398317)
(-0.882728 0 -0.0362346)
(-0.74701 0 -0.0340328)
(-0.901556 0 -0.0318805)
(-0.761328 0 -0.0275131)
(-0.917564 0 -0.0267571)
(-0.773332 0 -0.0203527)
(-0.930995 0 -0.0207998)
(-0.78362 0 -0.0127656)
(-0.942264 0 -0.0140805)
(-0.792536 0 -0.00522866)
(-0.951809 0 -0.00690659)
(-0.800322 0 0.00137045)
(-0.960224 0 0.000136788)
(-0.806835 0 0.0058652)
(-0.967165 0 0.00533797)
(-0.812879 0 0.0078938)
(-0.973853 0 0.00844447)
(-0.819467 0 0.0080959)
(-0.980866 0 0.00945846)
(-0.826307 0 0.00693088)
(-0.988007 0 0.00914667)
(-0.832508 0 0.00411809)
(-0.995226 0 0.00776111)
(-0.837341 0 -0.000424739)
(-1.00224 0 0.00420792)
(-1.00631 0 -0.000665218)
(-0.0874413 0 -0.585382)
(-0.0778298 0 -0.600324)
(-0.195434 0 -0.449171)
(-0.184694 0 -0.461196)
(-0.303592 0 -0.327342)
(-0.329025 0 -0.324674)
(-0.407595 0 -0.23707)
(-0.451192 0 -0.224958)
(-0.503561 0 -0.171958)
(-0.564965 0 -0.154635)
(-0.589806 0 -0.126055)
(-0.665928 0 -0.106621)
(-0.66575 0 -0.0940412)
(-0.753915 0 -0.07452)
(-0.731912 0 -0.0720375)
(-0.829633 0 -0.0534167)
(-0.789287 0 -0.0573484)
(-0.893453 0 -0.0400753)
(-0.839049 0 -0.0479469)
(-0.947735 0 -0.0321508)
(-0.882366 0 -0.0421813)
(-0.994359 0 -0.0278829)
(-0.920273 0 -0.0387319)
(-1.03491 0 -0.0259729)
(-0.953632 0 -0.0365199)
(-1.0706 0 -0.0253698)
(-0.983237 0 -0.0347295)
(-1.10231 0 -0.0251386)
(-1.00967 0 -0.0328351)
(-1.13056 0 -0.0247197)
(-1.03323 0 -0.0305332)
(-1.15584 0 -0.0238344)
(-1.05398 0 -0.0276449)
(-1.17833 0 -0.0223703)
(-1.07186 0 -0.024013)
(-1.19797 0 -0.0202115)
(-1.08696 0 -0.0194777)
(-1.21474 0 -0.017138)
(-1.09964 0 -0.0139662)
(-1.22885 0 -0.0129141)
(-1.11048 0 -0.00765101)
(-1.2408 0 -0.00750064)
(-1.12004 0 -0.00115092)
(-1.25126 0 -0.00123728)
(-1.12816 0 0.00457306)
(-1.26025 0 0.00483575)
(-1.1354 0 0.00864575)
(-1.26812 0 0.00943376)
(-1.14237 0 0.0107229)
(-1.2759 0 0.0122901)
(-1.14949 0 0.011132)
(-1.28365 0 0.0132931)
(-1.1567 0 0.0102122)
(-1.29158 0 0.0129398)
(-1.16356 0 0.00764557)
(-1.29991 0 0.0112853)
(-1.17056 0 0.00366878)
(-1.30792 0 0.00772031)
(-1.31233 0 0.00366453)
(-0.150181 0 -0.45993)
(-0.12626 0 -0.45323)
(-0.313599 0 -0.322858)
(-0.292381 0 -0.304918)