/*--------------------------------*- C++ -*----------------------------------*\
  =========                 |
  \\      /  F ield         | OpenFOAM: The Open Source CFD Toolbox
   \\    /   O peration     | Website:  https://openfoam.org
    \\  /    A nd           | Version:  dev
     \\/     M anipulation  |
\*---------------------------------------------------------------------------*/
FoamFile
{
    version     2.0;
    format      ascii;
    class       surfaceScalarField;
    location    "8.7";
    object      phi;
}
// * * * * * * * * * * * * * * * * * * * * * * * * * * * * * * * * * * * * * //

dimensions      [0 3 -1 0 0 0 0];

internalField   nonuniform List<scalar> 
5457
(
0.198418
0.00158239
0.19648
0.00193738
0.194192
0.0022881
0.191509
0.0026836
0.188427
0.00308122
0.184951
0.0034768
0.181072
0.00387862
0.176778
0.00429407
0.17205
0.0047283
0.166864
0.00518531
0.161196
0.00566862
0.155014
0.00618116
0.148289
0.00672511
0.140988
0.0073015
0.133078
0.00790967
0.124532
0.00854663
0.115325
0.00920607
0.105448
0.00987735
0.0949039
0.0105442
0.0837202
0.0111836
0.0719555
0.0117647
0.0597072
0.0122483
0.0471185
0.0125887
0.0343785
0.0127401
0.0216836
0.0126949
0.00903358
0.01265
-0.0029187
0.0119523
-0.0084731
0.00555439
-0.00804334
-0.000429751
-0.00804334
0.199928
0.00165423
0.199176
0.00268983
0.197965
0.00349905
0.196332
0.0043168
0.194271
0.0051413
0.191781
0.00596691
0.188854
0.00680565
0.185477
0.007671
0.181632
0.00857329
0.177297
0.00952082
0.172445
0.0105209
0.167046
0.0115797
0.161069
0.012702
0.15448
0.0138906
0.147245
0.0151449
0.139332
0.0164599
0.130713
0.0178242
0.121373
0.0192177
0.111308
0.0206092
0.100538
0.0219536
0.0891135
0.0231893
0.0771258
0.024236
0.0647199
0.0249946
0.0521125
0.0253475
0.0396524
0.025155
0.0281028
0.0241996
0.0185924
0.0214627
0.00879464
0.0153521
0.00118224
0.00718265
-0.0068611
0.199781
0.00187368
0.199087
0.00338368
0.197946
0.00463999
0.196409
0.00585344
0.194483
0.00706746
0.192164
0.008286
0.189446
0.00952314
0.186321
0.0107965
0.182773
0.0121213
0.178784
0.0135098
0.174332
0.0149731
0.16939
0.0165208
0.163932
0.0181608
0.157924
0.019898
0.151336
0.0217334
0.144134
0.0236619
0.136288
0.0256699
0.127774
0.0277318
0.118577
0.0298063
0.108699
0.0318317
0.098167
0.0337213
0.0870446
0.0353584
0.0754479
0.0365913
0.0635709
0.0372245
0.0517292
0.0369966
0.0403944
0.0355344
0.0297365
0.0321207
0.0191642
0.0259244
0.00959653
0.0167504
0.00273543
0.199703
0.00217061
0.199008
0.004079
0.197887
0.00576053
0.196376
0.00736437
0.194488
0.00895561
0.192222
0.010552
0.189574
0.0121709
0.186538
0.0138326
0.183104
0.0155558
0.179257
0.0173564
0.174982
0.0192482
0.170259
0.0212436
0.165067
0.0233526
0.159383
0.0255823
0.153181
0.0279353
0.146436
0.0304073
0.139121
0.0329845
0.131214
0.0356393
0.122694
0.0383257
0.113553
0.0409728
0.103796
0.0434784
0.0934534
0.0457011
0.0825921
0.0474526
0.0713294
0.0484872
0.0598376
0.0484883
0.048314
0.0470581
0.0368085
0.0436261
0.0251861
0.0375467
0.0133347
0.0286018
0.0160701
0.199667
0.00250321
0.198964
0.00478227
0.197863
0.00686187
0.196381
0.00884607
0.194532
0.0108044
0.192318
0.0127667
0.189734
0.0147547
0.186775
0.0167912
0.183433
0.0188976
0.179698
0.0210922
0.175554
0.0233913
0.170989
0.0258088
0.165985
0.0283565
0.160525
0.0310428
0.154589
0.033871
0.148158
0.036838
0.141212
0.0399305
0.133731
0.0431211
0.125693
0.0463628
0.117084
0.0495824
0.10789
0.0526721
0.098111
0.0554803
0.0877609
0.0578027
0.0768749
0.0593732
0.0655051
0.0598581
0.0537047
0.0588585
0.0414513
0.0558796
0.0285858
0.0504122
0.0148513
0.0423363
0.0309214
0.199653
0.00285041
0.198949
0.00548634
0.197871
0.00793982
0.196427
0.0102903
0.194627
0.0126044
0.192473
0.0149202
0.189963
0.0172644
0.187092
0.0196621
0.183853
0.0221369
0.180236
0.0247095
0.176229
0.0273979
0.17182
0.0302176
0.166995
0.0331815
0.161739
0.0362989
0.156036
0.0395741
0.149869
0.0430049
0.143221
0.046579
0.136071
0.0502708
0.128399
0.0540354
0.120179
0.0578024
0.111384
0.0614667
0.101985
0.0648794
0.0919505
0.067837
0.0812497
0.0700741
0.06985
0.0712578
0.057713
0.0709955
0.0447574
0.0688352
0.0308467
0.0643229
0.0158719
0.0573111
0.0467933
0.19965
0.00320036
0.198954
0.00618233
0.197904
0.00898946
0.196505
0.01169
0.194762
0.0143467
0.19268
0.0170023
0.190257
0.0196881
0.187487
0.0224318
0.184365
0.0252591
0.180882
0.0281925
0.177028
0.0312519
0.172791
0.0344543
0.168159
0.0378138
0.163117
0.0413406
0.157651
0.0450406
0.151743
0.0489127
0.145375
0.0529469
0.138525
0.0571206
0.131167
0.0613941
0.123265
0.0657036
0.114778
0.0699538
0.10565
0.0740075
0.0958119
0.0776752
0.0851812
0.0807048
0.0736633
0.0827757
0.0611568
0.0835019
0.0475512
0.0824408
0.0327557
0.0791184
0.0167813
0.0732855
0.0635746
0.199655
0.00354571
0.198975
0.00686245
0.197959
0.0100052
0.19661
0.0130387
0.194934
0.0160227
0.192933
0.0190029
0.190607
0.0220142
0.187952
0.0250871
0.184962
0.0282491
0.18163
0.0315247
0.177946
0.0349354
0.173901
0.0384998
0.169481
0.0422334
0.164673
0.0461483
0.159462
0.0502517
0.15383
0.0545453
0.147754
0.0590224
0.141209
0.0636657
0.13416
0.0684428
0.126563
0.0733009
0.118357
0.0781595
0.109464
0.0829008
0.0997809
0.0873584
0.0891814
0.0913043
0.0775191
0.094438
0.0646417
0.0963794
0.0504124
0.09667
0.0347644
0.0947665
0.0177878
0.0902621
0.0813624
0.199664
0.00388154
0.199006
0.00752026
0.19803
0.0109815
0.196739
0.0143302
0.195137
0.0176248
0.193227
0.0209127
0.191009
0.0242321
0.18848
0.0276157
0.185636
0.0310931
0.18247
0.0346905
0.178975
0.038431
0.17514
0.0423349
0.170954
0.0464195
0.166403
0.0506989
0.161472
0.055183
0.15614
0.059877
0.150384
0.0647791
0.14417
0.0698791
0.137458
0.0751548
0.130191
0.080568
0.122293
0.0860579
0.113661
0.0915327
0.104162
0.0968575
0.0936269
0.101839
0.0818574
0.106208
0.0686422
0.109595
0.0537956
0.111517
0.0372316
0.11133
0.0190807
0.108413
0.100443
0.199677
0.00420432
0.199047
0.00815051
0.198116
0.0119128
0.196887
0.0155584
0.195366
0.0191457
0.193556
0.0227233
0.191456
0.0263319
0.189065
0.0300065
0.18638
0.0337784
0.183395
0.0376754
0.180104
0.0417222
0.176497
0.0459411
0.172566
0.0503512
0.168295
0.0549691
0.16367
0.0598081
0.15867
0.0648775
0.153267
0.0701821
0.147425
0.0757204
0.141097
0.0814831
0.134216
0.0874494
0.126691
0.093583
0.118399
0.0998245
0.109176
0.10608
0.0988111
0.112204
0.0870436
0.117975
0.0735808
0.123057
0.0581401
0.126957
0.0405452
0.128925
0.0208976
0.128061
0.121341
0.199693
0.0045114
0.199095
0.00874889
0.198213
0.0127944
0.197053
0.0167181
0.19562
0.0205791
0.193916
0.0244272
0.191943
0.0283049
0.1897
0.0322494
0.187185
0.0362934
0.184394
0.0404663
0.181322
0.0447945
0.177961
0.0493017
0.174303
0.0540093
0.170336
0.0589366
0.166043
0.0641004
0.161406
0.0695152
0.156395
0.0751928
0.150973
0.081142
0.145089
0.0873677
0.138669
0.0938694
0.131613
0.100639
0.123782
0.107655
0.114987
0.114875
0.104973
0.122219
0.093408
0.12954
0.0798864
0.136579
0.0639566
0.142887
0.0452254
0.147657
0.0236061
0.14968
0.144947
0.199711
0.0048007
0.199148
0.0093119
0.19832
0.013622
0.197234
0.0178044
0.195894
0.0219192
0.194303
0.0260175
0.192465
0.0301434
0.190379
0.0343356
0.188044
0.0386282
0.185458
0.0430519
0.182618
0.0476346
0.179518
0.0524015
0.176152
0.0573761
0.172508
0.0625803
0.168574
0.0680346
0.16433
0.0737587
0.159751
0.0797718
0.1548
0.086093
0.149426
0.0927423
0.143555
0.0997403
0.137085
0.107109
0.12987
0.11487
0.121706
0.12304
0.112303
0.131622
0.10126
0.140583
0.0880304
0.149808
0.0719076
0.15901
0.0520725
0.167492
0.0278768
0.173876
0.172823
0.19973
0.00507063
0.199205
0.00983667
0.198435
0.014392
0.197427
0.018813
0.196185
0.0231613
0.194713
0.0274887
0.193016
0.0318408
0.191094
0.0362575
0.188948
0.040774
0.186578
0.0454223
0.183981
0.0502312
0.181155
0.0552274
0.178095
0.0604362
0.174794
0.0658817
0.171241
0.0715878
0.16742
0.0775791
0.163311
0.0838814
0.15888
0.0905238
0.154082
0.0975399
0.148852
0.104971
0.143094
0.112867
0.136671
0.121293
0.129382
0.130329
0.120929
0.140075
0.110867
0.150645
0.0985239
0.162151
0.0828799
0.174654
0.0624148
0.187957
0.0351099
0.201181
0.207933
0.199751
0.00531992
0.199266
0.0103209
0.198557
0.0151014
0.19763
0.0197406
0.19649
0.0243011
0.195142
0.028836
0.193592
0.0333917
0.19184
0.0380089
0.18989
0.042724
0.187743
0.0475695
0.185399
0.0525752
0.182858
0.0577688
0.180117
0.0631768
0.177173
0.0688252
0.17402
0.0747408
0.170648
0.0809515
0.16704
0.087489
0.163174
0.0943899
0.159015
0.101699
0.154511
0.109474
0.149588
0.11779
0.144134
0.126747
0.137981
0.136482
0.130871
0.147186
0.122387
0.159129
0.111836
0.172702
0.0979877
0.188502
0.0785041
0.20744
0.048636
0.231049
0.256569
0.199772
0.00554761
0.19933
0.0107628
0.198684
0.0157478
0.19784
0.0205841
0.196806
0.0253355
0.195586
0.0300556
0.194186
0.0347917
0.19261
0.0395852
0.190861
0.0444728
0.188943
0.0494875
0.186859
0.0546597
0.18461
0.0600175
0.182199
0.0655884
0.179624
0.0713993
0.176887
0.0774786
0.173981
0.0838568
0.170901
0.0905689
0.167635
0.0976566
0.164162
0.105172
0.160455
0.113182
0.156468
0.121776
0.152137
0.131078
0.14736
0.141259
0.141978
0.152567
0.135729
0.165378
0.12814
0.180291
0.118271
0.198371
0.10387
0.221841
0.0776309
0.257288
0.3342
0.00383418
-0.00383418
0.00749545
-0.00366127
0.0105163
-0.00302085
0.0128719
-0.00235561
0.0146333
-0.00176141
0.0158778
-0.00124453
0.016672
-0.000794179
0.0170733
-0.000401254
0.0171417
-6.84413e-05
0.016916
0.000225732
0.0164641
0.000451896
0.0158404
0.00062367
0.0150974
0.000742989
0.0142888
0.000808674
0.0134668
0.000821977
0.0126783
0.00078851
0.0119603
0.000717959
0.0113375
0.000622845
0.0108199
0.000517565
0.010403
0.000416861
0.0100707
0.000332348
0.00980153
0.000269166
0.00957577
0.000225765
0.00937991
0.000195861
0.00920788
0.000172029
0.00905788
0.00015
0.00892782
0.000130062
0.00881267
0.000115149
0.00870639
0.000106278
8.63453e-05
0.00355904
-0.00739322
0.00698002
-0.00708225
0.00986635
-0.00590718
0.012206
-0.00469529
0.0140699
-0.00362531
0.0155294
-0.00270399
0.0166439
-0.00190867
0.0174602
-0.0012176
0.0180034
-0.000611605
0.0183062
-7.70911e-05
0.0183645
0.000393591
0.0182287
0.000759505
0.0179515
0.00102014
0.0175874
0.00117286
0.0171893
0.00122001
0.0168047
0.0011731
0.0164704
0.00105226
0.0162102
0.000883065
0.016033
0.000694793
0.0159327
0.000517168
0.0158923
0.000372774
0.015891
0.000270465
0.0159107
0.000205989
0.0159404
0.000166147
0.0159763
0.000136212
0.0160177
0.000108613
0.0160631
8.45838e-05
0.0161084
6.98891e-05
0.016147
6.77157e-05
7.62625e-05
0.00302531
-0.0104185
0.00584193
-0.00989888
0.00818273
-0.00824798
0.0100792
-0.00659173
0.0116048
-0.00515098
0.012819
-0.00391817
0.0137687
-0.00285835
0.0144917
-0.00194062
0.0150232
-0.00114311
0.0153973
-0.000451138
0.0156368
0.000154077
0.0157289
0.000667452
0.0157101
0.00103885
0.0156228
0.00126016
0.0155075
0.00133532
0.0153987
0.00128193
0.0153228
0.00112817
0.0152963
0.000909594
0.0153234
0.000667695
0.0153953
0.000445266
0.0154939
0.000274089
0.0155997
0.000164673
0.0156964
0.000109278
0.0157756
8.69921e-05
0.0158376
7.42408e-05
0.0158868
5.93791e-05
0.0159283
4.31361e-05
0.0159639
3.42505e-05
0.0159908
4.08416e-05
7.15237e-05
0.00243677
-0.0128553
0.00454026
-0.0120024
0.00621553
-0.00992325
0.00756106
-0.00793727
0.00864996
-0.00623987
0.00952602
-0.00479422
0.0102218
-0.00355415
0.0107611
-0.00247992
0.0111653
-0.00154735
0.0114627
-0.000748488
0.0116726
-5.58742e-05
0.0117921
0.000547988
0.0118384
0.000992548
0.0118461
0.00125244
0.0118436
0.00133782
0.0118507
0.00127491
0.0118804
0.00109843
0.0119387
0.000851301
0.0120223
0.000584084
0.012116
0.000351545
0.0121983
0.000191798
0.0122514
0.000111558
0.0122639
9.67609e-05
0.0122356
0.000115333
0.0121758
0.000134065
0.0120954
0.000139775
0.0120041
0.000134436
0.0119074
0.00013092
0.011807
0.000141233
0.000163753
0.00175425
-0.0146096
0.00306349
-0.0133116
0.00400165
-0.0108614
0.00473281
-0.00866843
0.00531975
-0.0068268
0.00579234
-0.00526682
0.00617265
-0.00393446
0.00647368
-0.00278094
0.00670342
-0.00177709
0.00687067
-0.000915734
0.00701283
-0.000198038
0.00710891
0.000451911
0.0071427
0.00095875
0.00715299
0.00124215
0.00715794
0.00133287
0.00716313
0.00126972
0.0071675
0.00109407
0.00716616
0.000852634
0.00715152
0.000598728
0.00710521
0.000397857
0.00700962
0.000287386
0.00685845
0.000262724
0.00665268
0.000302534
0.00640029
0.000367728
0.00611449
0.000419856
0.00580916
0.000445109
0.00549495
0.000448652
0.00517829
0.000447579
0.00487353
0.000445986
0.000398445
0.000978819
-0.0155884
0.00140668
-0.0137395
0.00156084
-0.0110156
0.00162934
-0.00873693
0.00164674
-0.0068442
0.00164068
-0.00526076
0.00162619
-0.00391997
0.00161465
-0.00276941
0.00161747
-0.0017799
0.00164673
-0.000944994
0.00164565
-0.000196961
0.00161646
0.000481099
0.00154855
0.00102666
0.00145718
0.00133352
0.00133648
0.00145357
0.00116645
0.00143974
0.000926765
0.00133375
0.000605891
0.00117351
0.000208861
0.000995758
-0.000227579
0.000834297
-0.000668168
0.000727974
-0.0010897
0.000684258
-0.00147665
0.000689481
-0.00182786
0.000718942
-0.00214905
0.000741042
-0.00244751
0.000743568
-0.00273134
0.000732486
-0.00300283
0.000719062
-0.00324885
0.000692016
0.000610928
1.57284e-05
-0.0156041
-0.000437855
-0.0132859
-0.00108756
-0.0103659
-0.00174379
-0.0080807
-0.00237514
-0.00621285
-0.00295005
-0.00468585
-0.00345228
-0.00341773
-0.00387903
-0.00234266
-0.00425554
-0.00140339
-0.00463787
-0.000562659
-0.00501352
0.000178686
-0.00530263
0.000770206
-0.00549211
0.00121614
-0.00569129
0.0015327
-0.00593878
0.00170107
-0.00624343
0.00174439
-0.00660221
0.00169254
-0.00700445
0.00157574
-0.00743557
0.00142688
-0.00788205
0.00128078
-0.00832274
0.00116867
-0.00873953
0.00110105
-0.00911711
0.00106706
-0.00944395
0.00104578
-0.0097203
0.00101739
-0.00995374
0.000977011
-0.010155
0.000933764
-0.0103308
0.000894808
-0.0104837
0.000844967
0.00077962
-0.00094131
-0.0146628
-0.00241133
-0.0118159
-0.00392584
-0.00885135
-0.00539382
-0.00661273
-0.00674113
-0.00486555
-0.00794776
-0.00347921
-0.00900772
-0.00235777
-0.00992459
-0.0014258
-0.0107167
-0.0006113
-0.0113788
9.94404e-05
-0.0118546
0.000654472
-0.0121903
0.00110597
-0.0124677
0.00149347
-0.01272
0.00178505
-0.0129832
0.0019643
-0.0132744
0.00203557
-0.0135956
0.00201368
-0.0139421
0.00192225
-0.0143082
0.00179303
-0.0146881
0.00166065
-0.0150708
0.00155143
-0.0154412
0.00147143
-0.0157814
0.00140721
-0.0160745
0.00133895
-0.0163128
0.00125565
-0.0165
0.00116418
-0.0166478
0.00108159
-0.0167688
0.00101583
-0.0168802
0.000956314
0.000912002
-0.0020638
-0.012599
-0.00455274
-0.00932691
-0.00702867
-0.00637542
-0.0093177
-0.00432369
-0.0113366
-0.00284662
-0.0130742
-0.00174166
-0.0145468
-0.000885195
-0.0157751
-0.000197464
-0.016736
0.000349573
-0.0174241
0.0007876
-0.0179349
0.00116528
-0.0183423
0.00151333
-0.0186654
0.00181655
-0.0189367
0.00205641
-0.0191909
0.0022185
-0.0194508
0.00229544
-0.0197255
0.00228843
-0.0200159
0.00221257
-0.0203206
0.00209773
-0.0206387
0.00197877
-0.0209661
0.00187885
-0.0212922
0.00179749
-0.021599
0.00171408
-0.021866
0.00160591
-0.0220789
0.00146853
-0.0222373
0.0013226
-0.0223534
0.00119772
-0.0224446
0.00110702
-0.0225329
0.00104454
0.00101771
-0.00340202
-0.00919697
-0.00705628
-0.00567265
-0.0105393
-0.00289241
-0.0136015
-0.00126147
-0.0161916
-0.000256586
-0.018281
0.000347811
-0.0198948
0.000728544
-0.0210994
0.00100717
-0.0220005
0.00125065
-0.0227045
0.0014916
-0.0232691
0.00172991
-0.0237133
0.0019575
-0.0240592
0.00216248
-0.0243383
0.00233553
-0.0245855
0.00246563
-0.0248264
0.00253634
-0.0250721
0.00253421
-0.025324
0.00246439
-0.0255822
0.00235599
-0.0258509
0.00224749
-0.0261336
0.00216147
-0.0264254
0.00208929
-0.0267092
0.00199796
-0.0269598
0.00185644
-0.0271556
0.00166438
-0.0272923
0.00145925
-0.0273839
0.00128933
-0.0274533
0.00117646
-0.0275232
0.00111446
0.00110078
-0.00523791
-0.00395906
-0.0107549
-0.000155617
-0.0151612
0.00151388
-0.0185662
0.00214354
-0.0211193
0.00229643
-0.0230436
0.00227219
-0.0245371
0.00222205
-0.025715
0.00218506
-0.0266455
0.00218114
-0.0273805
0.00222662
-0.0279632
0.00231258
-0.0284193
0.00241357
-0.0287699
0.00251308
-0.0290457
0.00261137
-0.0292844
0.00270429
-0.0295142
0.00276617
-0.0297443
0.00276432
-0.0299711
0.00269111
-0.0301933
0.0025782
-0.0304205
0.00247474
-0.0306661
0.00240706
-0.0309329
0.00235608
-0.0312043
0.00226934
-0.0314479
0.00210001
-0.0316324
0.00184897
-0.0317487
0.00157548
-0.0318154
0.00135609
-0.0318637
0.00122475
-0.0319162
0.00116696
0.0011633
-0.0079554
0.00399634
-0.0144386
0.00632757
-0.0191183
0.00619364
-0.022606
0.00563116
-0.0252337
0.00492417
-0.027222
0.00426046
-0.0287441
0.00374419
-0.0299221
0.00336307
-0.0308341
0.00309316
-0.0315465
0.00293899
-0.0321128
0.00287893
-0.0325586
0.00285936
-0.0328961
0.00285054
-0.0331533
0.00286857
-0.0333752
0.00292617
-0.0335958
0.00298677
-0.0338191
0.00298761
-0.0340298
0.00290184
-0.0342208
0.00276919
-0.0344083
0.00266224
-0.0346198
0.0026186
-0.0348687
0.002605
-0.0351382
0.00253883
-0.0353851
0.00234691
-0.0355636
0.00202742
-0.0356574
0.00166931
-0.0356938
0.00139254
-0.0357176
0.00124854
-0.0357528
0.00120214
0.00120719
-0.00999507
0.0139914
-0.0177288
0.0140613
-0.0231011
0.0115659
-0.0267969
0.00932701
-0.0294213
0.00754857
-0.0313032
0.0061423
-0.0327098
0.00515078
-0.0337967
0.00445003
-0.0346224
0.00391879
-0.0352562
0.00357285
-0.0357712
0.00339385
-0.0361892
0.00327735
-0.0364978
0.00315914
-0.0367161
0.00308691
-0.0369058
0.00311588
-0.0371152
0.00319619
-0.03734
0.00321243
-0.0375427
0.00310447
-0.0377024
0.00292893
-0.0378446
0.00280442
-0.0380192
0.00279324
-0.0382553
0.0028411
-0.0385346
0.00281813
-0.0387975
0.00260979
-0.0389758
0.00220573
-0.0390423
0.0017358
-0.0390375
0.00138771
-0.0390301
0.00124116
-0.0390491
0.00122112
0.00123572
-0.01325
0.0272414
-0.0228245
0.0236358
-0.0282333
0.0169748
-0.0315053
0.012599
-0.0338193
0.0098626
-0.0353426
0.00766562
-0.0364421
0.00625027
-0.0373456
0.0053535
-0.0380244
0.00459756
-0.0385202
0.00406865
-0.0389492
0.00382288
-0.0393338
0.00366193
-0.0396035
0.00342891
-0.0397542
0.00323762
-0.0398851
0.0032467
-0.0400787
0.00338986
-0.040318
0.00345175
-0.0405238
0.00331025
-0.0406482
0.00305326
-0.0407299
0.00288617
-0.0408573
0.00292059
-0.0410838
0.00306765
-0.0413872
0.00312155
-0.0416829
0.00290544
-0.0418691
0.00239199
-0.0418998
0.00176643
-0.0418349
0.00132285
-0.0417851
0.00119137
-0.0417922
0.0012282
0.00125698
-0.0188595
0.0461009
-0.0304749
0.0352512
-0.0352194
0.0217193
-0.0368341
0.0142136
-0.0385016
0.0115301
-0.0392812
0.00844525
-0.0397932
0.00676222
-0.0405069
0.0060672
-0.0410561
0.00514674
-0.0413347
0.00434732
-0.0416192
0.00410736
-0.0419738
0.00401652
-0.0422043
0.00365946
-0.0422481
0.00328135
-0.0422758
0.00327445
-0.0424505
0.00356457
-0.0427311
0.00373226
-0.0429611
0.0035403
-0.0430403
0.0031325
-0.0430301
0.0028759
-0.0430868
0.00297735
-0.0433044
0.00328525
-0.0436498
0.00346693
-0.0440007
0.00325634
-0.0442063
0.00259757
-0.0441877
0.00174786
-0.0440314
0.00116658
-0.0439201
0.00108001
-0.0439256
0.00123368
0.00129121
0.207447
0.00576037
0.207034
0.0111754
0.206432
0.0163504
0.205647
0.0213685
0.204688
0.0262947
0.203561
0.031183
0.202271
0.0360812
0.200826
0.0410308
0.199229
0.046069
0.197488
0.0512288
0.195607
0.0565405
0.193592
0.0620324
0.191449
0.0677319
0.189182
0.0736663
0.186796
0.0798643
0.184296
0.0863572
0.181684
0.0931808
0.178962
0.100378
0.176131
0.108003
0.173188
0.116125
0.170129
0.124835
0.166949
0.134258
0.163643
0.144564
0.160213
0.155998
0.156679
0.168912
0.153134
0.183836
0.149941
0.201564
0.148769
0.223013
0.160385
0.245673
0.258898
0.235686
0.21249
0.00595278
0.212118
0.0115482
0.211574
0.0168939
0.210868
0.0220744
0.210008
0.0271551
0.209
0.0321905
0.207853
0.0372282
0.206574
0.04231
0.205171
0.0474726
0.203651
0.0527488
0.202023
0.0581684
0.200296
0.0637592
0.19848
0.0695479
0.196585
0.0755609
0.194624
0.081826
0.192608
0.0883731
0.190552
0.0952364
0.188474
0.102456
0.186395
0.110082
0.184344
0.118177
0.182359
0.126819
0.180504
0.136114
0.178875
0.146193
0.177644
0.157229
0.177131
0.169424
0.17799
0.182977
0.181631
0.197923
0.190652
0.213992
0.206056
0.230268
0.245836
0.219119
0.217658
0.0061227
0.217329
0.0118772
0.21685
0.0173725
0.21623
0.022694
0.215478
0.0279074
0.214602
0.033067
0.213609
0.0382203
0.212511
0.0434085
0.211316
0.0486678
0.210034
0.0540302
0.208678
0.0595245
0.20726
0.0651772
0.205794
0.0710134
0.204297
0.0770579
0.202788
0.0833358
0.201287
0.0898739
0.199821
0.096702
0.198423
0.103854
0.197135
0.111371
0.196012
0.119299
0.195133
0.127699
0.19461
0.136636
0.194614
0.14619
0.195407
0.156436
0.1974
0.167432
0.201202
0.179175
0.207582
0.191542
0.217204
0.20437
0.229795
0.217677
0.228889
0.246743
0.222951
0.00626814
0.22267
0.0121584
0.222262
0.0177807
0.221736
0.0232203
0.2211
0.0285429
0.220365
0.0338025
0.219539
0.0390458
0.218634
0.0443134
0.217662
0.0496404
0.216635
0.0550574
0.215567
0.0605918
0.214476
0.0662682
0.21338
0.0721094
0.212301
0.0781371
0.211264
0.084373
0.210299
0.0908389
0.209443
0.097558
0.208742
0.104556
0.208253
0.111859
0.208054
0.119498
0.208248
0.127505
0.208974
0.135911
0.210425
0.144738
0.212865
0.153996
0.21664
0.163657
0.222171
0.173645
0.229907
0.183806
0.240422
0.193855
0.254636
0.203463
0.210381
0.273143
0.228374
0.00638725
0.228144
0.0123884
0.227812
0.0181132
0.227386
0.0236465
0.226875
0.0290536
0.22629
0.0343876
0.225641
0.0396943
0.224942
0.045013
0.224205
0.0503775
0.223445
0.0558168
0.222681
0.0613561
0.221931
0.0670176
0.22122
0.0728211
0.220572
0.0787847
0.22002
0.0849251
0.219601
0.0912584
0.219359
0.0977998
0.21935
0.104564
0.219644
0.111565
0.220329
0.118813
0.221518
0.126317
0.223354
0.134074
0.226025
0.142068
0.229759
0.150261
0.234839
0.158577
0.241592
0.166892
0.250398
0.174999
0.261706
0.182547
0.275988
0.189181
0.193814
0.292556
0.233929
0.00647832
0.233754
0.0125639
0.233502
0.0183653
0.233182
0.0239668
0.232803
0.0294323
0.232376
0.034814
0.231914
0.0401565
0.23143
0.0454974
0.230938
0.0508688
0.230458
0.0562977
0.230007
0.0618067
0.229609
0.0674152
0.229291
0.0731395
0.229082
0.0789933
0.229019
0.0849883
0.229144
0.0911338
0.229507
0.0974367
0.23017
0.103901
0.231207
0.110528
0.232709
0.117311
0.234789
0.124237
0.237583
0.13128
0.241253
0.138397
0.245994
0.14552
0.252025
0.152546
0.25959
0.159327
0.268931
0.165658
0.280228
0.17125
0.293579
0.17583
0.178884
0.308509
0.23962
0.00653988
0.239502
0.0126819
0.239334
0.018533
0.239125
0.0241758
0.238884
0.0296728
0.238623
0.035075
0.238355
0.0404249
0.238094
0.0457588
0.237856
0.0511063
0.237662
0.0564923
0.237532
0.0619366
0.237492
0.0674553
0.23757
0.0730611
0.2378
0.0787631
0.238221
0.0845675
0.238878
0.090477
0.239824
0.0964907
0.241122
0.102603
0.242847
0.108803
0.245085
0.115072
0.247942
0.12138
0.251535
0.127687
0.256001
0.133931
0.26149
0.140032
0.268157
0.145879
0.276155
0.15133
0.285602
0.156211
0.296546
0.160307
0.308976
0.1634
0.165224
0.322635
0.245448
0.00657066
0.24539
0.0127402
0.24531
0.0186129
0.245217
0.0242693
0.245119
0.0297703
0.245029
0.0351649
0.24496
0.0404939
0.244928
0.0457914
0.244949
0.0510848
0.245045
0.0563962
0.245239
0.0617427
0.245558
0.0671371
0.24603
0.0725882
0.246693
0.0781006
0.247585
0.0836754
0.248753
0.0893092
0.250249
0.0949941
0.252136
0.100717
0.254482
0.106457
0.257368
0.112186
0.260883
0.117865
0.265126
0.123444
0.270201
0.128856
0.276215
0.134018
0.283268
0.138825
0.291442
0.143156
0.300784
0.146869
0.311284
0.149807
0.322874
0.15181
0.152746
0.335353
0.251418
0.00656964
0.251422
0.0127366
0.251432
0.0186021
0.251458
0.0242439
0.251507
0.0297209
0.251592
0.0350799
0.251726
0.0403597
0.251926
0.0455919
0.252209
0.0508017
0.252597
0.0560083
0.253113
0.0612261
0.253786
0.0664645
0.254646
0.0717286
0.255727
0.077019
0.257071
0.082332
0.258721
0.0876592
0.260728
0.092987
0.263148
0.0982959
0.266046
0.10356
0.269487
0.108744
0.273547
0.113805
0.278301
0.11869
0.283825
0.123332
0.290189
0.127654
0.297448
0.131566
0.305638
0.134966
0.314761
0.137747
0.32477
0.139798
0.335567
0.141013
0.141332
0.346981
0.257532
0.00653608
0.257599
0.0126699
0.257702
0.0184988
0.257849
0.0240975
0.258048
0.0295223
0.25831
0.0348179
0.258649
0.0400205
0.259081
0.0451595
0.259625
0.0502575
0.260303
0.0553311
0.261137
0.0603918
0.262156
0.0654459
0.263389
0.0704952
0.264871
0.0755367
0.26664
0.080563
0.268738
0.0855615
0.27121
0.0905146
0.274107
0.0953989
0.277482
0.100185
0.281391
0.104835
0.285891
0.109306
0.291036
0.113545
0.296878
0.117491
0.303455
0.121077
0.310792
0.124228
0.318892
0.126866
0.327727
0.128912
0.337233
0.130291
0.347306
0.13094
0.130835
0.357803
0.263794
0.00646951
0.263925
0.0125391
0.264122
0.0183018
0.264391
0.0238287
0.26474
0.0291734
0.265179
0.0343781
0.265723
0.0394766
0.266387
0.0444957
0.267189
0.0494554
0.26815
0.0543701
0.269294
0.0592483
0.270646
0.0640937
0.272236
0.0689052
0.274096
0.073677
0.27626
0.0783986
0.278767
0.0830548
0.281656
0.0876253
0.28497
0.0920848
0.288753
0.0964023
0.293046
0.100541
0.297892
0.10446
0.303327
0.10811
0.309379
0.111439
0.316066
0.11439
0.32339
0.116905
0.331332
0.118925
0.339848
0.120395
0.348869
0.12127
0.358297
0.121512
0.121121
0.368011
0.270207
0.00636974
0.270402
0.012344
0.270693
0.0180108
0.271084
0.0234375
0.271583
0.0286747
0.272199
0.0337619
0.272945
0.0387303
0.273837
0.0436043
0.274891
0.0484015
0.276127
0.0531338
0.277568
0.0578074
0.279238
0.0624237
0.281164
0.0669793
0.283375
0.0714662
0.285901
0.0758719
0.288776
0.0801797
0.292034
0.0843681
0.295707
0.0884115
0.299829
0.0922797
0.304433
0.0959384
0.309543
0.0993493
0.315182
0.102471
0.321362
0.105259
0.328083
0.107669
0.335331
0.109656
0.343075
0.11118
0.351266
0.112204
0.359834
0.112702
0.36869
0.112656
0.112078
0.377734
0.276774
0.00623689
0.277033
0.0120848
0.277417
0.0176263
0.27793
0.0229249
0.278577
0.0280279
0.279367
0.0329719
0.280311
0.0377857
0.281424
0.0424913
0.282722
0.0471039
0.284222
0.0516333
0.285946
0.0560837
0.287915
0.0604546
0.290153
0.0647408
0.292687
0.0689331
0.295541
0.0730178
0.298743
0.0769776
0.302319
0.0807913
0.306297
0.0844341
0.310699
0.087878
0.315545
0.0910921
0.320851
0.0940431
0.326625
0.0966965
0.332868
0.0990169
0.339566
0.10097
0.346698
0.102525
0.354226
0.103652
0.362098
0.104332
0.37025
0.104551
0.378602
0.104304
0.103608
0.387071
0.283498
0.00607133
0.283821
0.0117623
0.284297
0.0171498
0.284929
0.022293
0.285721
0.0272359
0.286681
0.0320125
0.287817
0.0366488
0.289144
0.0411646
0.290675
0.0455731
0.292426
0.049882
0.294416
0.054094
0.296664
0.058207
0.29919
0.062215
0.302015
0.0661078
0.305161
0.0698716
0.308649
0.0734894
0.3125
0.076941
0.31673
0.0802036
0.321356
0.0832521
0.326388
0.0860598
0.331832
0.0885991
0.337687
0.0908419
0.343942
0.0927614
0.35058
0.0943325
0.357571
0.0955336
0.364876
0.0963479
0.372444
0.0967642
0.380216
0.0967789
0.388124
0.0963953
0.095634
0.396098
0.290384
0.00587371
0.290769
0.0113777
0.291335
0.0165831
0.292083
0.0215447
0.293016
0.026303
0.29414
0.0308892
0.295461
0.035327
0.296992
0.0396338
0.298744
0.043821
0.300732
0.0478947
0.302969
0.0518564
0.305473
0.055703
0.308261
0.0594278
0.311348
0.0630205
0.314751
0.0664679
0.318487
0.0697539
0.322568
0.0728599
0.327006
0.0757659
0.331808
0.0784502
0.336977
0.0808904
0.342512
0.0830643
0.348403
0.0849503
0.354636
0.0865287
0.361186
0.0877822
0.368023
0.0886974
0.375105
0.0892652
0.382388
0.089482
0.389816
0.0893503
0.397333
0.0888784
0.0880874
0.40488
0.297435
0.00564489
0.297879
0.0109329
0.298534
0.0159291
0.299394
0.0206838
0.300463
0.0252343
0.301743
0.0296088
0.303242
0.0338289
0.304966
0.0379096
0.306926
0.0418609
0.309133
0.0456876
0.311599
0.0493901
0.314337
0.0529649
0.31736
0.0564051
0.320679
0.0597009
0.324308
0.0628399
0.328254
0.0658073
0.332527
0.0685871
0.337131
0.0711618
0.342068
0.0735135
0.347334
0.0756242
0.352922
0.0774765
0.358817
0.0790547
0.365001
0.0803448
0.371447
0.0813362
0.378123
0.0820214
0.384991
0.0823972
0.392008
0.0824651
0.399127
0.0822314
0.406298
0.0817071
0.0809129
0.413473
0.304654
0.00538593
0.305157
0.0104298
0.305895
0.0151909
0.306864
0.0197149
0.308063
0.0240357
0.309493
0.028179
0.311158
0.0321639
0.313063
0.0360038
0.315217
0.039707
0.317628
0.0432774
0.320303
0.0467147
0.323253
0.0500153
0.326485
0.0531725
0.330009
0.0561772
0.333831
0.0590183
0.337955
0.0616828
0.342385
0.0641571
0.34712
0.0664266
0.352157
0.0684769
0.357487
0.070294
0.363099
0.0718651
0.368974
0.0731792
0.375091
0.0742275
0.381424
0.0750038
0.38794
0.0755055
0.394603
0.0757335
0.401376
0.0756925
0.408216
0.0753912
0.415081
0.0748416
0.0740634
0.421931
0.312046
0.00509805
0.312605
0.00987102
0.313424
0.0143722
0.314496
0.0186429
0.315817
0.0227139
0.317388
0.026608
0.31921
0.0303423
0.321285
0.0339285
0.323619
0.0373737
0.326215
0.0406808
0.329081
0.0438494
0.33222
0.0468758
0.335639
0.0497539
0.33934
0.0524756
0.343327
0.0550311
0.347601
0.0574097
0.352158
0.0595997
0.356995
0.0615898
0.362103
0.0633685
0.367471
0.0649257
0.373084
0.0662523
0.378922
0.0673412
0.384962
0.0681873
0.391178
0.0687885
0.397538
0.0691453
0.40401
0.0692613
0.410559
0.0691433
0.41715
0.0688009
0.423744
0.0682467
0.0674986
0.430309
0.319615
0.00478257
0.320227
0.009259
0.321122
0.0134769
0.322292
0.0174733
0.32373
0.0212757
0.325434
0.0249045
0.327402
0.0283745
0.329634
0.0316961
0.332132
0.0348752
0.334899
0.0379143
0.337936
0.0408126
0.341245
0.0435668
0.344827
0.0461716
0.348683
0.0486198
0.352811
0.0509033
0.357207
0.0530132
0.361867
0.0549403
0.366781
0.0566757
0.371938
0.058211
0.377325
0.0595389
0.382924
0.0606537
0.388713
0.0615513
0.394671
0.0622298
0.40077
0.0626894
0.406982
0.0629331
0.413278
0.0629661
0.419625
0.0627963
0.425992
0.0624338
0.432348
0.0618906
0.0611831
0.438663
0.327365
0.00444086
0.328028
0.00859649
0.328995
0.0125091
0.330257
0.0162115
0.331805
0.0197282
0.333632
0.0230769
0.335736
0.0262708
0.338113
0.0293187
0.340763
0.0322256
0.343684
0.0349935
0.346875
0.0376216
0.350334
0.0401072
0.35406
0.0424455
0.35805
0.0446307
0.362297
0.0466561
0.366795
0.0485146
0.371536
0.0501992
0.376509
0.0517033
0.381699
0.053021
0.38709
0.0541475
0.392664
0.0550795
0.3984
0.0558153
0.404275
0.0563553
0.410263
0.0567016
0.416337
0.0568584
0.422472
0.056832
0.428637
0.0566307