/*--------------------------------*- C++ -*----------------------------------*\
  =========                 |
  \\      /  F ield         | OpenFOAM: The Open Source CFD Toolbox
   \\    /   O peration     | Website:  https://openfoam.org
    \\  /    A nd           | Version:  dev
     \\/     M anipulation  |
\*---------------------------------------------------------------------------*/
FoamFile
{
    version     2.0;
    format      ascii;
    class       volVectorField;
    location    "8.7";
    object      U;
}
// * * * * * * * * * * * * * * * * * * * * * * * * * * * * * * * * * * * * * //

dimensions      [0 1 -1 0 0 0 0];

internalField   nonuniform List<vector> 
2790
(
(9.94399 0 0.0205234)
(9.87572 0 0.0295881)
(9.7752 0 0.0359902)
(9.64943 0 0.0425571)
(9.50408 0 0.0493867)
(9.34005 0 0.0564299)
(9.15653 0 0.0638179)
(8.9526 0 0.0717141)
(8.72743 0 0.0802583)
(8.48004 0 0.0895773)
(8.20922 0 0.099798)
(7.91358 0 0.111051)
(7.5916 0 0.123467)
(7.24168 0 0.137172)
(6.86221 0 0.152281)
(6.45166 0 0.16888)
(6.00873 0 0.187008)
(5.53252 0 0.20663)
(5.02278 0 0.227602)
(4.48025 0 0.249622)
(3.90695 0 0.272186)
(3.30661 0 0.294533)
(2.68507 0 0.315625)
(2.05041 0 0.334291)
(1.4116 0 0.350605)
(0.797867 0 0.372885)
(0.110477 0 0.32497)
(-0.469575 0 -0.114902)
(-0.453804 0 -0.29712)
(-0.231165 0 -0.423845)
(9.9985 0 0.0407036)
(9.98145 0 0.0623841)
(9.93574 0 0.0791421)
(9.86416 0 0.0966275)
(9.77096 0 0.115127)
(9.65714 0 0.134493)
(9.52204 0 0.15498)
(9.36483 0 0.17695)
(9.18468 0 0.200716)
(8.98063 0 0.22656)
(8.75147 0 0.254756)
(8.49582 0 0.285575)
(8.21212 0 0.319266)
(7.89873 0 0.356042)
(7.55393 0 0.396041)
(7.17607 0 0.439286)
(6.76364 0 0.485617)
(6.3155 0 0.534611)
(5.83107 0 0.585485)
(5.31069 0 0.636975)
(4.75595 0 0.687221)
(4.1702 0 0.733658)
(3.55909 0 0.772957)
(2.93135 0 0.801088)
(2.29976 0 0.813735)
(1.69279 0 0.807233)
(1.107 0 0.747202)
(0.658796 0 0.547869)
(0.186288 0 0.22452)
(-0.00819802 0 -0.453771)
(9.99559 0 0.043208)
(9.97556 0 0.0752738)
(9.9318 0 0.103349)
(9.86489 0 0.132375)
(9.77777 0 0.163065)
(9.67153 0 0.195406)
(9.54586 0 0.229752)
(9.40011 0 0.266614)
(9.23362 0 0.306484)
(9.0456 0 0.349823)
(8.83504 0 0.397091)
(8.60075 0 0.448744)
(8.34137 0 0.505218)
(8.05541 0 0.566892)
(7.74127 0 0.634043)
(7.39732 0 0.706765)
(7.02197 0 0.784872)
(6.6138 0 0.867759)
(6.17177 0 0.954228)
(5.69545 0 1.04228)
(5.18543 0 1.12891)
(4.64376 0 1.2098)
(4.07459 0 1.27916)
(3.48517 0 1.32932)
(2.88666 0 1.35006)
(2.2993 0 1.32638)
(1.7317 0 1.22071)
(1.21615 0 0.972923)
(0.701069 0 0.570054)
(0.357994 0 -0.156688)
(9.99403 0 0.0495007)
(9.97181 0 0.0932092)
(9.92788 0 0.133576)
(9.86224 0 0.174215)
(9.77692 0 0.216441)
(9.67297 0 0.260671)
(9.5503 0 0.307442)
(9.40847 0 0.35743)
(9.24699 0 0.411309)
(9.06529 0 0.469727)
(8.86264 0 0.533328)
(8.63813 0 0.602753)
(8.39077 0 0.678626)
(8.11943 0 0.761512)
(7.8229 0 0.851861)
(7.49989 0 0.949918)
(7.14911 0 1.05559)
(6.76929 0 1.16828)
(6.35933 0 1.28665)
(5.91842 0 1.4083)
(5.44634 0 1.5295)
(4.9438 0 1.6447)
(4.41296 0 1.74614)
(3.85807 0 1.8232)
(3.28563 0 1.86132)
(2.70623 0 1.84026)
(2.1255 0 1.72591)
(1.55415 0 1.47775)
(0.957881 0 1.08356)
(0.509402 0 0.502187)
(9.99331 0 0.0572155)
(9.96994 0 0.110963)
(9.92593 0 0.16211)
(9.86145 0 0.213355)
(9.77798 0 0.266367)
(9.67634 0 0.321927)
(9.55652 0 0.380718)
(9.41819 0 0.443507)
(9.26094 0 0.511079)
(9.08429 0 0.584197)
(8.88765 0 0.663619)
(8.67033 0 0.7501)
(8.43152 0 0.844376)
(8.17037 0 0.94713)
(7.88598 0 1.05893)
(7.57736 0 1.18013)
(7.24353 0 1.31074)
(6.88346 0 1.45023)
(6.49612 0 1.59727)
(6.08055 0 1.74937)
(5.63596 0 1.90245)
(5.16191 0 2.05034)
(4.65856 0 2.18417)
(4.12701 0 2.29171)
(3.5692 0 2.35651)
(2.98871 0 2.35723)
(2.38668 0 2.26484)
(1.76627 0 2.04749)
(1.08992 0 1.69122)
(0.536619 0 1.15396)
(9.99302 0 0.0655408)
(9.96923 0 0.128706)
(9.92556 0 0.19012)
(9.86252 0 0.251853)
(9.78128 0 0.31559)
(9.68243 0 0.382334)
(9.56599 0 0.452894)
(9.43169 0 0.528124)
(9.27917 0 0.608907)
(9.10802 0 0.696117)
(8.91773 0 0.790617)
(8.70768 0 0.893267)
(8.47721 0 1.00491)
(8.22559 0 1.12631)
(7.95205 0 1.25815)
(7.65577 0 1.40087)
(7.3359 0 1.55461)
(6.99149 0 1.71893)
(6.62152 0 1.89262)
(6.22482 0 2.07328)
(5.80008 0 2.25689)
(5.34583 0 2.43723)
(4.86049 0 2.6052)
(4.34248 0 2.74819)
(3.79018 0 2.84948)
(3.20237 0 2.88809)
(2.57639 0 2.83808)
(1.91333 0 2.67142)
(1.17266 0 2.37378)
(0.549928 0 1.89416)
(9.99297 0 0.0740774)
(9.96926 0 0.146319)
(9.92637 0 0.217491)
(9.86508 0 0.289303)
(9.78642 0 0.363369)
(9.69084 0 0.440845)
(9.57833 0 0.522682)
(9.44869 0 0.609837)
(9.30162 0 0.703287)
(9.13674 0 0.804002)
(8.9536 0 0.912944)
(8.75165 0 1.03106)
(8.53027 0 1.15928)
(8.28879 0 1.29846)
(8.02649 0 1.44937)
(7.74258 0 1.61255)
(7.43616 0 1.78826)
(7.10625 0 1.97624)
(6.75163 0 2.17548)
(6.37082 0 2.38388)
(5.96189 0 2.59779)
(5.52241 0 2.81142)
(5.04929 0 3.01616)
(4.53876 0 3.19993)
(3.98641 0 3.3466)
(3.38767 0 3.43584)
(2.73704 0 3.44313)
(2.03607 0 3.34126)
(1.24164 0 3.11329)
(0.563465 0 2.69284)
(9.99306 0 0.0825909)
(9.96981 0 0.163612)
(9.92807 0 0.244059)
(9.86884 0 0.325491)
(9.79312 0 0.409462)
(9.70125 0 0.497226)
(9.59322 0 0.589863)
(9.46886 0 0.688425)
(9.32793 0 0.793975)
(9.17011 0 0.907572)
(8.99498 0 1.03026)
(8.80205 0 1.16309)
(8.59075 0 1.30707)
(8.36043 0 1.46316)
(8.11035 0 1.63223)
(7.8397 0 1.81496)
(7.54748 0 2.01176)
(7.23252 0 2.22261)
(6.89333 0 2.44683)
(6.52797 0 2.68277)
(6.13387 0 2.92742)
(5.7076 0 3.17582)
(5.2447 0 3.42038)
(4.7395 0 3.65017)
(4.18519 0 3.85015)
(3.57448 0 4.00074)
(2.89926 0 4.07768)
(2.1619 0 4.05209)
(1.31598 0 3.90134)
(0.583155 0 3.53976)
(9.99326 0 0.0909314)
(9.97072 0 0.180415)
(9.93046 0 0.269677)
(9.87362 0 0.360254)
(9.80117 0 0.453664)
(9.71343 0 0.551231)
(9.61037 0 0.654138)
(9.49187 0 0.763528)
(9.35774 0 0.880544)
(9.2077 0 1.00633)
(9.04142 0 1.14201)
(8.85843 0 1.28873)
(8.65821 0 1.44759)
(8.44014 0 1.61967)
(8.20348 0 1.80596)
(7.94735 0 2.00731)
(7.67065 0 2.22435)
(7.37201 0 2.45739)
(7.04962 0 2.70616)
(6.70106 0 2.96967)
(6.32311 0 3.24575)
(5.91138 0 3.5306)
(5.46006 0 3.8181)
(4.96168 0 4.09897)
(4.40707 0 4.35979)
(3.78605 0 4.58194)
(3.08724 0 4.74082)
(2.31243 0 4.80411)
(1.41045 0 4.74064)
(0.614221 0 4.44143)
(9.99352 0 0.0989954)
(9.9719 0 0.196585)
(9.9334 0 0.294205)
(9.87924 0 0.39343)
(9.8104 0 0.495774)
(9.72716 0 0.602611)
(9.62952 0 0.715211)
(9.5174 0 0.834796)
(9.39066 0 0.962586)
(9.2491 0 1.0998)
(9.09242 0 1.24765)
(8.92024 0 1.40736)
(8.73208 0 1.58015)
(8.52735 0 1.7672)
(8.30535 0 1.96966)
(8.06516 0 2.18859)
(7.8056 0 2.42491)
(7.52515 0 2.6793)
(7.22173 0 2.95205)
(6.89255 0 3.24295)
(6.53378 0 3.55091)
(6.14018 0 3.87359)
(5.70471 0 4.20677)
(5.2181 0 4.54339)
(4.66858 0 4.87237)
(4.04243 0 5.1768)
(3.32326 0 5.43202)
(2.50938 0 5.60154)
(1.5416 0 5.64293)
(0.663931 0 5.41739)
(9.99384 0 0.106707)
(9.9733 0 0.212007)
(9.9368 0 0.317513)
(9.88558 0 0.42487)
(9.82063 0 0.535608)
(9.74225 0 0.651145)
(9.65044 0 0.772817)
(9.54517 0 0.901922)
(9.42636 0 1.03974)
(9.29388 0 1.18757)
(9.1475 0 1.3467)
(8.98691 0 1.51843)
(8.8117 0 1.70408)
(8.62137 0 1.90497)
(8.41524 0 2.12242)
(8.19243 0 2.35772)
(7.95176 0 2.6121)
(7.69164 0 2.88669)
(7.40987 0 3.18244)
(7.10342 0 3.50002)
(6.76808 0 3.83963)
(6.39801 0 4.20068)
(5.98517 0 4.58129)
(5.51863 0 4.97738)
(4.98387 0 5.38128)
(4.36271 0 5.7794)
(3.63132 0 6.14882)
(2.77959 0 6.45016)
(1.73305 0 6.62779)
(0.744641 0 6.50223)
(9.9942 0 0.11401)
(9.97487 0 0.226582)
(9.94055 0 0.339484)
(9.89252 0 0.454438)
(9.83173 0 0.573002)
(9.7585 0 0.696634)
(9.67288 0 0.826725)
(9.57487 0 0.964631)
(9.46447 0 1.1117)
(9.34161 0 1.26927)
(9.20614 0 1.43872)
(9.05784 0 1.62142)
(8.89641 0 1.81878)
(8.72142 0 2.03227)
(8.53231 0 2.26336)
(8.32828 0 2.51358)
(8.10824 0 2.78451)
(7.87067 0 3.07774)
(7.61343 0 3.39491)
(7.3335 0 3.73769)
(7.02663 0 4.10765)
(6.68679 0 4.50622)
(6.30545 0 4.93428)
(5.87055 0 5.39156)
(5.36515 0 5.87538)
(4.76617 0 6.37813)
(4.03993 0 6.8829)
(3.16069 0 7.3529)
(2.02413 0 7.72228)
(0.880421 0 7.75589)
(9.99459 0 0.120857)
(9.97657 0 0.240231)
(9.94461 0 0.360018)
(9.89995 0 0.482015)
(9.84356 0 0.607815)
(9.77575 0 0.738908)
(9.69662 0 0.876729)
(9.60623 0 1.02268)
(9.50463 0 1.17817)
(9.39184 0 1.34457)
(9.2678 0 1.52332)
(9.1324 0 1.71587)
(8.98545 0 1.92371)
(8.82665 0 2.14841)
(8.65557 0 2.39162)
(8.4716 0 2.65509)
(8.27382 0 2.94071)
(8.06094 0 3.25054)
(7.83109 0 3.58691)
(7.58156 0 3.95242)
(7.30849 0 4.35009)
(7.00626 0 4.78342)
(6.66672 0 5.25635)
(6.27785 0 5.77316)
(5.82168 0 6.33782)
(5.27155 0 6.95239)
(4.58345 0 7.61336)
(3.70882 0 8.30026)
(2.48719 0 8.95703)
(1.12392 0 9.29145)
(9.99501 0 0.127214)
(9.97838 0 0.252891)
(9.94891 0 0.379032)
(9.9078 0 0.507501)
(9.85598 0 0.639927)
(9.79382 0 0.777827)
(9.72143 0 0.92267)
(9.63893 0 1.0759)
(9.54647 0 1.23894)
(9.44412 0 1.41323)
(9.33195 0 1.60023)
(9.20994 0 1.80144)
(9.07804 0 2.01844)
(8.93612 0 2.25288)
(8.78394 0 2.50653)
(8.6211 0 2.78135)
(8.447 0 3.07949)
(8.26069 0 3.40342)
(8.06078 0 3.75603)
(7.84523 0 4.1408)
(7.611 0 4.562)
(7.35367 0 5.02506)
(7.0666 0 5.53689)
(6.7397 0 6.1065)
(6.357 0 6.74554)
(5.8929 0 7.46908)
(5.29932 0 8.29621)
(4.50716 0 9.24737)
(3.26713 0 10.3404)
(1.60393 0 11.3563)
(9.99545 0 0.133054)
(9.98026 0 0.264511)
(9.95339 0 0.396453)
(9.91596 0 0.530803)
(9.86888 0 0.669218)
(9.81253 0 0.813237)
(9.74708 0 0.964353)
(9.67272 0 1.12403)
(9.58964 0 1.29373)
(9.49802 0 1.4749)
(9.39802 0 1.66903)
(9.28977 0 1.87766)
(9.17336 0 2.1024)
(9.04885 0 2.34497)
(8.91621 0 2.60725)
(8.77534 0 2.8913)
(8.626 0 3.19949)
(8.46773 0 3.53457)
(8.2998 0 3.89984)
(8.12108 0 4.29941)
(7.92985 0 4.73848)
(7.72355 0 5.22391)
(7.49833 0 5.7649)
(7.24828 0 6.37427)
(6.9639 0 7.07044)
(6.62963 0 7.88121)
(6.21264 0 8.85193)
(5.66348 0 10.0655)
(4.68725 0 11.7294)
(2.68519 0 14.587)
(0.120717 0 -0.119633)
(0.283424 0 -0.108948)
(0.449538 0 -0.0856329)
(0.587993 0 -0.0630264)
(0.693192 0 -0.0437777)
(0.768751 0 -0.0278361)
(0.819375 0 -0.0146589)
(0.848775 0 -0.00376567)
(0.859848 0 0.00503716)
(0.855302 0 0.011186)
(0.837733 0 0.0153806)
(0.81006 0 0.0180862)
(0.775108 0 0.0194953)
(0.735557 0 0.0197073)
(0.69405 0 0.0188482)
(0.653111 0 0.0171185)
(0.61491 0 0.0147984)
(0.581042 0 0.0122177)
(0.552395 0 0.00970723)
(0.529097 0 0.00754283)
(0.51058 0 0.00588035)
(0.495833 0 0.0047259)
(0.483748 0 0.0039736)
(0.473432 0 0.00346729)
(0.464373 0 0.00306656)
(0.456392 0 0.00270521)
(0.449434 0 0.00239135)
(0.443357 0 0.00216135)
(0.437868 0 0.00199935)
(0.431944 0 0.00159874)
(0.104818 0 -0.282126)
(0.264731 0 -0.264436)
(0.421129 0 -0.214705)
(0.554607 0 -0.165296)
(0.66127 0 -0.122873)
(0.744601 0 -0.0874539)
(0.808671 0 -0.0578707)
(0.856569 0 -0.0330299)
(0.890396 0 -0.0121435)
(0.911873 0 0.00522591)
(0.920251 0 0.0187662)
(0.917569 0 0.0286935)
(0.906482 0 0.0352152)
(0.889675 0 0.0384984)
(0.869864 0 0.0388399)
(0.849623 0 0.0367292)
(0.83113 0 0.0328027)
(0.815951 0 0.0277904)
(0.804918 0 0.0224643)
(0.798078 0 0.0175401)
(0.794795 0 0.0135214)
(0.794037 0 0.0105791)
(0.794752 0 0.00858285)
(0.796161 0 0.00720917)
(0.797884 0 0.00611195)
(0.799845 0 0.00510896)
(0.802039 0 0.00421533)
(0.804343 0 0.00354775)
(0.806425 0 0.00315628)
(0.80818 0 0.00280719)
(0.0844654 0 -0.448072)
(0.224046 0 -0.419121)
(0.350732 0 -0.342922)
(0.458782 0 -0.268078)
(0.545323 0 -0.204248)
(0.613983 0 -0.151104)
(0.667967 0 -0.106874)
(0.7096 0 -0.0699413)
(0.740724 0 -0.0389837)
(0.762698 0 -0.012596)
(0.778921 0 0.00941753)
(0.786596 0 0.0263766)
(0.787817 0 0.0380568)
(0.784557 0 0.0444658)
(0.778871 0 0.0460359)
(0.772704 0 0.0435727)
(0.767653 0 0.0381054)
(0.764822 0 0.0308212)
(0.764741 0 0.022997)
(0.767294 0 0.0158413)
(0.771773 0 0.0102043)
(0.777157 0 0.00634801)
(0.782472 0 0.00403441)
(0.787036 0 0.00271216)
(0.79061 0 0.0018286)
(0.793334 0 0.00110479)
(0.795508 0 0.000557431)
(0.797369 0 0.00033883)
(0.798937 0 0.000535871)
(0.80007 0 0.00117828)
(0.0646259 0 -0.581785)
(0.178023 0 -0.536367)
(0.26815 0 -0.436213)
(0.345913 0 -0.341404)
(0.407196 0 -0.261875)
(0.456461 0 -0.195974)
(0.495848 0 -0.141179)
(0.526785 0 -0.0953503)
(0.550395 0 -0.0569943)
(0.567378 0 -0.0252397)
(0.580619 0 0.00110901)
(0.588798 0 0.0221295)
(0.592475 0 0.0369113)
(0.593315 0 0.0450789)
(0.592929 0 0.0471843)
(0.592599 0 0.0443186)
(0.593187 0 0.0378371)
(0.595168 0 0.0292869)
(0.598614 0 0.0203203)
(0.603104 0 0.0125083)
(0.607701 0 0.00689257)
(0.611334 0 0.00366378)
(0.613204 0 0.00236845)
(0.612955 0 0.00213141)
(0.610738 0 0.00212653)
(0.607092 0 0.00191023)
(0.602619 0 0.0015052)
(0.597775 0 0.0011968)
(0.59277 0 0.00122474)
(0.58692 0 0.00192136)
(0.0440684 0 -0.684954)
(0.125991 0 -0.618204)
(0.174017 0 -0.497332)
(0.219088 0 -0.38895)
(0.251711 0 -0.299711)
(0.278432 0 -0.226157)
(0.300032 0 -0.16514)
(0.317369 0 -0.114076)
(0.331011 0 -0.0712882)
(0.341194 0 -0.035777)
(0.348062 0 -0.00591571)
(0.355394 0 0.0181545)
(0.3584 0 0.0349526)
(0.358969 0 0.0439806)
(0.358823 0 0.0461652)
(0.358707 0 0.0429011)
(0.358689 0 0.0357672)
(0.358535 0 0.0264921)
(0.357883 0 0.016959)
(0.356237 0 0.00928752)
(0.352713 0 0.00455521)
(0.346641 0 0.00269824)
(0.33796 0 0.00296647)
(0.326796 0 0.00417295)
(0.313415 0 0.00533525)
(0.298497 0 0.00592262)
(0.282731 0 0.00598608)
(0.266668 0 0.00600216)
(0.25091 0 0.00642158)
(0.23409 0 0.00653988)
(0.0223053 0 -0.752312)
(0.0675519 0 -0.660446)
(0.0693886 0 -0.522247)
(0.0799054 0 -0.4063)
(0.0806756 0 -0.312166)
(0.0813898 0 -0.23525)
(0.0812403 0 -0.171904)
(0.0811941 0 -0.119156)
(0.081739 0 -0.0751923)
(0.0825897 0 -0.039602)
(0.0835932 0 -0.011455)
(0.0840059 0 0.0139182)
(0.0816483 0 0.0342523)
(0.077193 0 0.0447328)
(0.0716524 0 0.0474302)
(0.0642824 0 0.0447102)
(0.0538971 0 0.0385219)
(0.0395367 0 0.0306458)
(0.0208663 0 0.0227912)
(-0.000954025 0 0.0167283)
(-0.0235709 0 0.0136673)
(-0.0454717 0 0.0132645)
(-0.065455 0 0.0146059)
(-0.0831712 0 0.016257)
(-0.0994683 0 0.0173152)
(-0.114721 0 0.0174475)
(-0.129366 0 0.0169883)
(-0.143614 0 0.0164601)
(-0.157582 0 0.0154946)
(-0.169929 0 0.0127914)
(-0.00216599 0 -0.777194)
(0.00120541 0 -0.658116)
(-0.0442832 0 -0.507109)
(-0.0718565 0 -0.389465)
(-0.105547 0 -0.29533)
(-0.135099 0 -0.219989)
(-0.161603 0 -0.159204)
(-0.184106 0 -0.109592)
(-0.202806 0 -0.0682475)
(-0.219982 0 -0.0329007)
(-0.241151 0 -0.0018323)
(-0.260103 0 0.0238551)
(-0.267402 0 0.0410011)
(-0.277378 0 0.0507942)
(-0.288973 0 0.0545048)
(-0.303171 0 0.0538161)
(-0.320192 0 0.0501805)
(-0.339728 0 0.0448735)
(-0.361179 0 0.039046)
(-0.383723 0 0.0336519)
(-0.406166 0 0.0295784)
(-0.42771 0 0.0271473)
(-0.447448 0 0.0259935)
(-0.464729 0 0.0253727)
(-0.479533 0 0.0246332)
(-0.492107 0 0.0235529)
(-0.502937 0 0.0223073)
(-0.512629 0 0.0210442)
(-0.521525 0 0.0193844)
(-0.527943 0 0.0171593)
(-0.0326223 0 -0.752226)
(-0.0755063 0 -0.608041)
(-0.165559 0 -0.45434)
(-0.236615 0 -0.339093)
(-0.30699 0 -0.249803)
(-0.370045 0 -0.179959)
(-0.426107 0 -0.12441)
(-0.474935 0 -0.079176)
(-0.516807 0 -0.0409752)
(-0.553319 0 -0.0086341)
(-0.584155 0 0.0168149)
(-0.601014 0 0.0354723)
(-0.615816 0 0.0498718)
(-0.628704 0 0.0596075)
(-0.64162 0 0.0643191)
(-0.655675 0 0.0648422)
(-0.671231 0 0.0621676)
(-0.688193 0 0.0573665)
(-0.706315 0 0.0516298)
(-0.725276 0 0.0461237)
(-0.744578 0 0.0417087)
(-0.763576 0 0.0385733)
(-0.781399 0 0.0362813)
(-0.797157 0 0.0341817)
(-0.810281 0 0.0318249)
(-0.820722 0 0.0292585)
(-0.828988 0 0.0268418)
(-0.835946 0 0.0247411)
(-0.842054 0 0.0226801)
(-0.845836 0 0.0208195)
(-0.0694588 0 -0.675275)
(-0.159781 0 -0.51002)
(-0.298438 0 -0.359216)
(-0.414561 0 -0.251847)
(-0.52166 0 -0.173666)
(-0.614593 0 -0.115131)
(-0.693799 0 -0.0695691)
(-0.760483 0 -0.0334392)
(-0.816232 0 -0.00455093)
(-0.857272 0 0.0178417)
(-0.884981 0 0.035252)
(-0.907589 0 0.049524)
(-0.925327 0 0.0610655)
(-0.939785 0 0.0691654)
(-0.952762 0 0.0735288)
(-0.965627 0 0.0743586)
(-0.979095 0 0.072164)
(-0.993354 0 0.0677666)
(-1.00838 0 0.0622876)
(-1.02412 0 0.0568871)
(-1.04044 0 0.0523327)
(-1.05699 0 0.0486833)
(-1.07298 0 0.0454055)
(-1.08737 0 0.0418695)
(-1.09927 0 0.0378599)
(-1.10835 0 0.0337605)
(-1.11509 0 0.030186)
(-1.12048 0 0.0273916)
(-1.12503 0 0.0251915)
(-1.12756 0 0.0237411)
(-0.116441 0 -0.540535)
(-0.260536 0 -0.362367)
(-0.452486 0 -0.223929)
(-0.611535 0 -0.133071)
(-0.751505 0 -0.0710107)
(-0.868683 0 -0.0288757)
(-0.960199 0 -0.00100811)
(-1.02935 0 0.0185816)
(-1.08002 0 0.033209)
(-1.11936 0 0.04533)
(-1.15076 0 0.0560913)
(-1.17556 0 0.0655941)
(-1.19483 0 0.0733668)
(-1.21005 0 0.0790098)
(-1.22297 0 0.0822372)
(-1.23512 0 0.0828328)
(-1.24732 0 0.0807796)
(-1.2598 0 0.0765607)
(-1.27258 0 0.071225)
(-1.28581 0 0.0659773)
(-1.29973 0 0.0615346)
(-1.31433 0 0.0577563)
(-1.32897 0 0.0538616)
(-1.34247 0 0.0491037)
(-1.35357 0 0.0434438)
(-1.36166 0 0.0376901)
(-1.36722 0 0.0328719)
(-1.37141 0 0.0294268)
(-1.37483 0 0.0271725)
(-1.37662 0 0.0260399)
(-0.183789 0 -0.346715)
(-0.40315 0 -0.171015)
(-0.669487 0 -0.0324623)
(-0.857644 0 0.0261226)
(-1.00193 0 0.0506379)
(-1.10992 0 0.0597504)
(-1.19364 0 0.0638372)
(-1.25954 0 0.0667655)
(-1.3115 0 0.0699406)
(-1.35261 0 0.0738576)
(-1.38518 0 0.078273)
(-1.41075 0 0.0825769)
(-1.43043 0 0.0861998)
(-1.44566 0 0.0889682)
(-1.45828 0 0.0906954)
(-1.46995 0 0.0908004)
(-1.48149 0 0.0886521)
(-1.4929 0 0.0843199)
(-1.50403 0 0.0788482)
(-1.51519 0 0.0736473)
(-1.5271 0 0.0694818)
(-1.54019 0 0.0659409)
(-1.55401 0 0.0618053)
(-1.56711 0 0.0560273)
(-1.57775 0 0.0486778)
(-1.585 0 0.0411031)
(-1.58939 0 0.0349546)
(-1.59237 0 0.0309353)
(-1.5948 0 0.0287086)
(-1.59603 0 0.0278161)
(-0.299511 0 -0.0118036)
(-0.586616 0 0.163448)
(-0.859256 0 0.185818)
(-1.056 0 0.179508)
(-1.20498 0 0.162224)
(-1.31772 0 0.143526)
(-1.40376 0 0.127936)
(-1.47008 0 0.116031)
(-1.52144 0 0.107548)
(-1.56148 0 0.102614)
(-1.59313 0 0.100515)
(-1.61807 0 0.0996618)
(-1.63714 0 0.0989989)
(-1.6515 0 0.0986603)
(-1.66324 0 0.0988051)
(-1.67436 0 0.0984781)
(-1.68558 0 0.0961951)
(-1.69638 0 0.0914636)
(-1.70619 0 0.0854598)
(-1.71542 0 0.0801006)
(-1.72542 0 0.0763727)
(-1.73728 0 0.0734942)
(-1.75077 0 0.0695379)
(-1.76403 0 0.0629045)
(-1.77458 0 0.0536943)
(-1.781 0 0.0439737)
(-1.78399 0 0.0363353)
(-1.78555 0 0.0318582)
(-1.78696 0 0.0298027)
(-1.78774 0 0.0291134)
(-0.384322 0 0.455629)
(-0.722108 0 0.491395)
(-1.047 0 0.420114)
(-1.26269 0 0.345274)
(-1.4153 0 0.281581)
(-1.5246 0 0.228934)
(-1.60496 0 0.190246)
(-1.66608 0 0.162883)
(-1.71283 0 0.142841)
(-1.74869 0 0.129376)
(-1.77726 0 0.121448)
(-1.80038 0 0.116)
(-1.81795 0 0.110978)
(-1.83046 0 0.10723)
(-1.84042 0 0.105899)
(-1.85065 0 0.105621)
(-1.86181 0 0.103505)
(-1.87245 0 0.0981489)
(-1.88106 0 0.0910771)
(-1.88815 0 0.0852501)
(-1.89601 0 0.0821932)
(-1.90676 0 0.0805839)
(-1.92042 0 0.07737)
(-1.9345 0 0.0700494)
(-1.94541 0 0.0586456)
(-1.95094 0 0.0462159)
(-1.95205 0 0.0368004)
(-1.95178 0 0.032058)
(-1.9521 0 0.0304574)
(-1.95251 0 0.0299784)
(-0.510238 0 0.980954)
(-0.942799 0 0.901237)
(-1.30753 0 0.685105)
(-1.50985 0 0.510429)
(-1.64338 0 0.393258)
(-1.73489 0 0.30267)
(-1.79857 0 0.243142)
(-1.84782 0 0.205274)
(-1.88617 0 0.175374)
(-1.91477 0 0.153045)
(-1.93813 0 0.139916)
(-1.95865 0 0.13088)
(-1.97426 0 0.12158)
(-1.98372 0 0.114111)
(-1.99047 0 0.111753)
(-1.99918 0 0.1127)
(-2.01069 0 0.111496)
(-2.02179 0 0.10517)
(-2.02926 0 0.0960057)
(-2.03359 0 0.0890223)
(-2.03865 0 0.0868706)
(-2.04818 0 0.0873764)
(-2.06258 0 0.0856757)
(-2.07838 0 0.0778622)
(-2.09023 0 0.0637197)
(-2.09469 0 0.047663)
(-2.09314 0 0.0359743)
(-2.09036 0 0.0313013)
(-2.08948 0 0.0307135)
(-2.08965 0 0.0305244)
(-0.750596 0 2.02922)
(-1.29008 0 1.58889)
(-1.68173 0 0.984521)
(-1.81635 0 0.595729)
(-1.89267 0 0.462336)
(-1.9478 0 0.355763)
(-1.97885 0 0.286858)
(-2.01059 0 0.2436)
(-2.0407 0 0.199262)
(-2.05986 0 0.163865)
(-2.07481 0 0.149593)
(-2.09184 0 0.142969)
(-2.10547 0 0.131545)
(-2.11046 0 0.11932)
(-2.11178 0 0.115206)
(-2.1181 0 0.11862)
(-2.13089 0 0.119263)
(-2.14369 0 0.111396)
(-2.15007 0 0.0986365)
(-2.15035 0 0.0896515)
(-2.15119 0 0.0891524)
(-2.15906 0 0.0934774)
(-2.17489 0 0.0946961)
(-2.19358 0 0.086811)
(-2.20718 0 0.0691785)
(-2.21025 0 0.0480622)
(-2.20473 0 0.0332395)
(-2.19833 0 0.0292011)
(-2.19615 0 0.0306906)
(-2.19635 0 0.0310489)
(9.9959 0 0.138449)
(9.98225 0 0.275245)
(9.95811 0 0.412535)
(9.92454 0 0.552287)
(9.88242 0 0.696179)
(9.83216 0 0.845764)
(9.77399 0 1.00255)
(9.70815 0 1.16801)
(9.63493 0 1.3436)
(9.55459 0 1.5308)
(9.4674 0 1.7311)
(9.37364 0 1.94604)
(9.27356 0 2.17726)
(9.16742 0 2.42649)
(9.05547 0 2.69565)
(8.93794 0 2.98687)
(8.815 0 3.30261)
(8.68679 0 3.64577)
(8.55339 0 4.01985)
(8.41478 0 4.42923)
(8.2709 0 4.87956)
(8.12161 0 5.37829)
(7.96686 0 5.93561)
(7.80688 0 6.56585)
(7.64287 0 7.29008)
(7.47974 0 8.14088)
(7.33064 0 9.17218)
(7.28537 0 10.4774)
(7.74077 0 12.2013)
(7.91725 0 14.9183)
(9.99638 0 0.143408)
(9.98434 0 0.285099)
(9.96305 0 0.427262)
(9.93352 0 0.571896)
(9.89657 0 0.720693)
(9.85262 0 0.875211)
(9.80197 0 1.03696)
(9.74493 0 1.20741)
(9.68185 0 1.38802)
(9.6131 0 1.58026)
(9.53908 0 1.78559)
(9.4602 0 2.00555)
(9.37689 0 2.24175)
(9.28964 0 2.49591)
(9.19897 0 2.76993)
(9.10545 0 3.06592)
(9.00973 0 3.3863)
(8.91257 0 3.73393)
(8.81487 0 4.11226)
(8.71781 0 4.52556)
(8.62299 0 4.97923)
(8.53277 0 5.48033)
(8.45085 0 6.03816)
(8.38348 0 6.66533)
(8.34179 0 7.37907)
(8.34781 0 8.2028)
(8.44027 0 9.16671)
(8.67494 0 10.3042)
(9.32036 0 11.5602)
(9.80799 0 12.6518)
(9.99688 0 0.147845)
(9.98651 0 0.293911)
(9.96819 0 0.440412)
(9.94283 0 0.589365)
(9.91121 0 0.742465)
(9.87378 0 0.901263)
(9.83086 0 1.06726)
(9.78284 0 1.24191)
(9.73015 0 1.42664)
(9.67324 0 1.62289)
(9.61264 0 1.8321)
(9.5489 0 2.05575)
(9.48263 0 2.2954)
(9.41454 0 2.55271)
(9.34542 0 2.82947)
(9.27618 0 3.1277)
(9.20794 0 3.44966)
(9.14202 0 3.79799)
(9.08011 0 4.17581)
(9.02442 0 4.58689)
(8.97797 0 5.03583)
(8.94503 0 5.52831)
(8.93187 0 6.07132)
(8.94801 0 6.67328)
(9.00793 0 7.34364)
(9.13374 0 8.0911)
(9.35643 0 8.9176)
(9.68554 0 9.81221)
(10.2511 0 10.7238)
(10.9385 0 11.443)
(9.9974 0 0.151707)
(9.98874 0 0.301571)
(9.97347 0 0.451818)
(9.95239 0 0.604463)
(9.92623 0 0.761194)
(9.89545 0 0.923546)
(9.86042 0 1.09299)
(9.82158 0 1.27096)
(9.77944 0 1.45884)
(9.73453 0 1.65802)
(9.68749 0 1.86986)
(9.63901 0 2.0958)
(9.58986 0 2.33728)
(9.54094 0 2.59584)
(9.49332 0 2.87315)
(9.4482 0 3.17101)
(9.4071 0 3.49141)
(9.37182 0 3.83663)
(9.34466 0 4.20925)
(9.3286 0 4.61224)
(9.32757 0 5.04901)
(9.34686 0 5.52342)
(9.39371 0 6.0396)
(9.47803 0 6.60152)
(9.61303 0 7.212)
(9.81554 0 7.87074)
(10.1084 0 8.57069)
(10.5002 0 9.29729)
(11.0581 0 10.0404)
(11.8518 0 10.687)
(9.99792 0 0.154946)
(9.99101 0 0.30799)
(9.97884 0 0.461344)
(9.96212 0 0.617013)
(9.9415 0 0.776662)
(9.91746 0 0.941799)
(9.8904 0 1.11386)
(9.86083 0 1.29422)
(9.82929 0 1.48423)
(9.79642 0 1.68519)
(9.76294 0 1.89839)
(9.72966 0 2.12515)
(9.69749 0 2.3668)
(9.66752 0 2.62472)
(9.64099 0 2.90036)
(9.6194 0 3.19525)
(9.60452 0 3.51105)
(9.59852 0 3.84953)
(9.6041 0 4.21264)
(9.62466 0 4.6024)
(9.6645 0 5.02093)
(9.72915 0 5.47024)
(9.8257 0 5.95198)
(9.9631 0 6.46683)
(10.1524 0 7.01375)
(10.4068 0 7.58888)
(10.7435 0 8.18412)
(11.1742 0 8.7848)
(11.722 0 9.37935)
(12.4761 0 9.89284)
(9.99845 0 0.157519)
(9.9933 0 0.31308)
(9.98427 0 0.468864)
(9.97194 0 0.626848)
(9.9569 0 0.788665)
(9.93962 0 0.955781)
(9.92055 0 1.12958)
(9.90023 0 1.31139)
(9.87926 0 1.50247)
(9.85834 0 1.70405)
(9.83827 0 1.91731)
(9.81995 0 2.14344)
(9.80442 0 2.38361)
(9.79287 0 2.639)
(9.78672 0 2.91083)
(9.78763 0 3.20031)
(9.79755 0 3.50869)
(9.81885 0 3.83722)
(9.8544 0 4.18712)
(9.9077 0 4.55952)
(9.98302 0 4.95533)
(10.0856 0 5.37502)
(10.2218 0 5.81834)
(10.3991 0 6.28383)
(10.6264 0 6.76827)
(10.9134 0 7.26587)
(11.2713 0 7.76743)
(11.7082 0 8.25738)
(12.2249 0 8.71904)
(12.9018 0 9.11083)
(9.99898 0 0.159388)
(9.9956 0 0.316764)
(9.98971 0 0.474265)
(9.98177 0 0.633822)
(9.97229 0 0.797023)
(9.96174 0 0.965283)
(9.9506 0 1.13993)
(9.93943 0 1.3222)
(9.92888 0 1.51329)
(9.9197 0 1.71431)
(9.91274 0 1.92633)
(9.90896 0 2.15039)
(9.90948 0 2.38748)
(9.9156 0 2.63857)
(9.9288 0 2.9046)
(9.95082 0 3.18644)
(9.98371 0 3.48492)
(10.0299 0 3.80078)
(10.0921 0 4.13455)
(10.1738 0 4.48656)
(10.279 0 4.85669)
(10.4121 0 5.24426)
(10.5786 0 5.64769)
(10.7843 0 6.06418)
(11.0357 0 6.48925)
(11.3392 0 6.9162)
(11.7011 0 7.33567)
(12.1253 0 7.73425)
(12.6059 0 8.09734)
(13.2123 0 8.40438)
(9.99951 0 0.160519)
(9.99789 0 0.318978)
(9.9951 0 0.47745)
(9.99151 0 0.637808)
(9.98753 0 0.801585)
(9.98362 0 0.970132)
(9.98028 0 1.1447)
(9.97808 0 1.32646)
(9.97769 0 1.51648)
(9.9799 0 1.71579)
(9.98559 0 1.92531)
(9.99577 0 2.14591)
(10.0116 0 2.37841)
(10.0344 0 2.62354)
(10.0656 0 2.88196)
(10.1071 0 3.15422)
(10.1608 0 3.44074)
(10.229 0 3.74175)
(10.3145 0 4.05725)
(10.4202 0 4.38685)
(10.5495 0 4.7297)
(10.7063 0 5.08427)
(10.8947 0 5.44818)
(11.1191 0 5.81791)
(11.3838 0 6.18856)
(11.6925 0 6.55356)
(12.0481 0 6.90462)
(12.4522 0 7.23141)
(12.8971 0 7.52276)
(13.4411 0 7.76732)
(10 0 0.160883)
(10.0001 0 0.319664)
(10.0004 0 0.478338)
(10.0011 0 0.638707)
(10.0025 0 0.802234)
(10.0051 0 0.970199)
(10.0093 0 1.14377)
(10.0158 0 1.32403)
(10.0252 0 1.51194)
(10.0384 0 1.7084)
(10.0561 0 1.9142)
(10.0795 0 2.13005)
(10.1097 0 2.35656)
(10.1479 0 2.59424)
(10.1957 0 2.84348)
(10.2548 0 3.10453)
(10.327 0 3.37745)
(10.4144 0 3.66204)
(10.5195 0 3.95784)
(10.6447 0 4.26394)
(10.793 0 4.57899)
(10.9673 0 4.90094)
(11.1707 0 5.22701)
(11.4061 0 5.55349)
(11.676 0 5.87563)
(11.9825 0 6.18756)
(12.3263 0 6.48239)
(12.7072 0 6.7523)
(13.1174 0 6.9889)
(13.6059 0 7.18531)
(10.0005 0 0.160459)
(10.0023 0 0.318782)
(10.0056 0 0.476871)
(10.0104 0 0.636442)
(10.0171 0 0.798885)
(10.0259 0 0.965398)
(10.0375 0 1.13706)
(10.0523 0 1.31485)
(10.0711 0 1.49964)
(10.0946 0 1.69217)
(10.1237 0 1.89311)
(10.1594 0 2.103)
(10.2028 0 2.32226)
(10.2552 0 2.5512)
(10.3179 0 2.78996)
(10.3926 0 3.03851)
(10.4808 0 3.2966)
(10.5845 0 3.56373)
(10.7056 0 3.83905)
(10.8464 0 4.12135)
(11.009 0 4.40892)
(11.1955 0 4.69951)
(11.4081 0 4.99025)
(11.6485 0 5.27754)
(11.9182 0 5.5571)
(12.2176 0 5.82392)
(12.5463 0 6.07248)
(12.903 0 6.29686)
(13.2807 0 6.491)
(13.7212 0 6.65071)
(10.001 0 0.159233)
(10.0044 0 0.316303)
(10.0106 0 0.473007)
(10.0194 0 0.63097)
(10.0311 0 0.791495)
(10.0459 0 0.955693)
(10.0645 0 1.12455)
(10.0872 0 1.29894)
(10.1148 0 1.47962)
(10.148 0 1.66722)
(10.1877 0 1.86225)
(10.2348 0 2.0651)
(10.2902 0 2.27603)
(10.3553 0 2.49514)
(10.4312 0 2.72236)
(10.5194 0 2.95745)
(10.6212 0 3.19991)
(10.7383 0 3.44899)
(10.8723 0 3.70362)
(11.0249 0 3.96239)
(11.1976 0 4.22344)
(11.392 0 4.48451)
(11.6093 0 4.7428)
(11.8504 0 4.99507)
(12.1158 0 5.23759)
(12.4051 0 5.46625)
(12.7173 0 5.67672)
(13.0504 0 5.86463)
(13.3983 0 6.02572)
(13.7976 0 6.15748)
(10.0015 0 0.157196)
(10.0065 0 0.312212)
(10.0154 0 0.46673)
(10.028 0 0.622274)
(10.0445 0 0.780054)
(10.065 0 0.941091)
(10.0901 0 1.10628)
(10.1203 0 1.27638)
(10.1561 0 1.45203)
(10.1983 0 1.63376)
(10.2476 0 1.82194)
(10.305 0 2.01681)
(10.3713 0 2.21847)
(10.4475 0 2.42688)
(10.5349 0 2.64178)
(10.6345 0 2.86276)
(10.7476 0 3.08913)
(10.8755 0 3.32)
(11.0194 0 3.55417)
(11.1805 0 3.79012)
(11.3599 0 4.02603)
(11.5585 0 4.25969)
(11.777 0 4.48857)
(12.0156 0 4.70982)
(12.2741 0 4.92032)
(12.5517 0 5.11678)
(12.8469 0 5.29587)
(13.1578 0 5.45444)
(13.479 0 5.58954)
(13.8428 0 5.69967)
(10.0019 0 0.154348)
(10.0084 0 0.306508)
(10.0199 0 0.458043)
(10.0362 0 0.610365)
(10.0571 0 0.764591)
(10.083 0 0.921648)
(10.1142 0 1.08233)
(10.1513 0 1.2473)
(10.1947 0 1.41709)
(10.2451 0 1.59209)
(10.3031 0 1.77258)
(10.3696 0 1.95867)
(10.4454 0 2.15033)
(10.5314 0 2.34736)
(10.6284 0 2.5494)
(10.7376 0 2.75588)
(10.8598 0 2.96603)
(10.996 0 3.17885)
(11.1471 0 3.3931)
(11.3139 0 3.60729)
(11.4971 0 3.81964)
(11.6972 0 4.02816)
(11.9142 0 4.23061)
(12.148 0 4.42455)
(12.3981 0 4.60745)
(12.6632 0 4.77672)
(12.9419 0 4.92987)
(13.2321 0 5.06463)
(13.5293 0 5.17899)
(13.8626 0 5.27211)
(10.0024 0 0.150694)
(10.0102 0 0.299205)
(10.0241 0 0.446969)
(10.0438 0 0.595285)
(10.0689 0 0.745172)
(10.0998 0 0.897461)
(10.1366 0 1.05285)
(10.18 0 1.2119)
(10.2302 0 1.37506)
(10.288 0 1.5426)
(10.3538 0 1.71468)
(10.4284 0 1.89133)
(10.5124 0 2.07239)
(10.6066 0 2.25757)
(10.7117 0 2.44641)
(10.8285 0 2.63826)
(10.9578 0 2.8323)
(11.1001 0 3.0275)
(11.2562 0 3.22263)
(11.4264 0 3.41626)
(11.6111 0 3.60679)
(11.8104 0 3.79242)
(12.024 0 3.97123)
(12.2516 0 4.14122)
(12.4922 0 4.30034)
(12.7447 0 4.4466)
(13.0075 0 4.57816)
(13.2787 0 4.6934)
(13.5546 0 4.79101)
(13.8615 0 4.87053)
(10.0027 0 0.146247)
(10.0119 0 0.290329)
(10.0281 0 0.433551)
(10.0508 0 0.5771)
(10.0798 0 0.721893)
(10.1152 0 0.868669)
(10.1572 0 1.01803)
(10.2063 0 1.17046)
(10.2627 0 1.32628)
(10.327 0 1.4857)
(10.3996 0 1.64878)
(10.4811 0 1.81546)
(10.5721 0 1.98549)
(10.6731 0 2.15853)
(10.7847 0 2.33403)
(10.9075 0 2.51132)
(11.042 0 2.68956)
(11.1886 0 2.86773)
(11.3476 0 3.04468)
(11.5193 0 3.21909)
(11.7037 0 3.38952)
(11.9005 0 3.55442)
(12.1094 0 3.71218)
(12.3298 0 3.86117)
(12.5606 0 3.99977)
(12.8007 0 4.12647)
(13.0485 0 4.23994)
(13.3025 0 4.33903)
(13.5593 0 4.4229)
(13.8431 0 4.49137)
(10.0031 0 0.141026)
(10.0134 0 0.279917)
(10.0317 0 0.417852)
(10.0573 0 0.5559)
(10.0898 0 0.694881)
(10.1293 0 0.835444)
(10.1759 0 0.978105)
(10.23 0 1.12325)
(10.2919 0 1.27113)
(10.3619 0 1.42188)
(10.4404 0 1.57547)
(10.5278 0 1.73177)
(10.6245 0 1.8905)
(10.731 0 2.05123)
(10.8478 0 2.21342)
(10.975 0 2.37638)
(11.1132 0 2.53927)
(11.2624 0 2.70116)
(11.4228 0 2.86095)
(11.5944 0 3.01749)
(11.7769 0 3.16951)
(11.9701 0 3.3157)
(12.1734 0 3.45473)
(12.386 0 3.58529)
(12.607 0 3.70613)
(12.8351 0 3.81612)
(13.069 0 3.9143)
(13.3072 0 3.99988)
(13.5471 0 4.07234)
(13.8107 0 4.13166)
(10.0034 0 0.135053)
(10.0148 0 0.268019)
(10.035 0 0.399948)
(10.0632 0 0.531795)
(10.0988 0 0.664287)
(10.142 0 0.797985)
(10.1927 0 0.933324)
(10.2513 0 1.07061)