/*--------------------------------*- C++ -*----------------------------------*\
  =========                 |
  \\      /  F ield         | OpenFOAM: The Open Source CFD Toolbox
   \\    /   O peration     | Website:  https://openfoam.org
    \\  /    A nd           | Version:  dev
     \\/     M anipulation  |
\*---------------------------------------------------------------------------*/
FoamFile
{
    version     2.0;
    format      ascii;
    class       volScalarField;
    location    "1.2";
    object      p;
}
// * * * * * * * * * * * * * * * * * * * * * * * * * * * * * * * * * * * * * //

dimensions      [0 2 -2 0 0 0 0];

internalField   nonuniform List<scalar> 
2790
(
208.238
208.149
208.424
209.006
209.8
210.773
211.922
213.246
214.739
216.395
218.207
220.167
222.265
224.488
226.82
229.24
231.72
234.226
236.715
239.138
241.438
243.551
245.413
246.965
248.16
248.976
249.361
249.392
249.451
249.657
208.035
208.056
208.355
208.935
209.725
210.694
211.839
213.157
214.643
216.291
218.094
220.044
222.132
224.344
226.666
229.076
231.548
234.049
236.537
238.965
241.275
243.405
245.291
246.87
248.087
248.901
249.247
249.295
249.417
249.684
207.834
207.925
208.244
208.813
209.59
210.547
211.677
212.976
214.441
216.065
217.84
219.759
221.812
223.988
226.269
228.637
231.066
233.526
235.977
238.376
240.669
242.798
244.703
246.323
247.606
248.521
249.065
249.392
249.682
249.962
207.606
207.728
208.059
208.619
209.382
210.323
211.433
212.709
214.145
215.736
217.473
219.349
221.354
223.475
225.698
228.003
230.366
232.76
235.149
237.493
239.746
241.857
243.773
245.444
246.832
247.923
248.738
249.368
249.89
250.386
207.341
207.477
207.817
208.37
209.116
210.036
211.121
212.366
213.765
215.313
217.002
218.822
220.765
222.818
224.966
227.19
229.47
231.778
234.085
236.354
238.549
240.626
242.546
244.271
245.776
247.057
248.132
249.047
249.823
250.539
207.036
207.177
207.519
208.062
208.788
209.683
210.736
211.944
213.299
214.796
216.427
218.182
220.051
222.023
224.082
226.211
228.391
230.597
232.802
234.978
237.094
239.119
241.022
242.782
244.382
245.823
247.112
248.267
249.247
250.129
206.687
206.829
207.168
207.699
208.402
209.266
210.284
211.448
212.752
214.19
215.754
217.433
219.219
221.097
223.055
225.075
227.139
229.226
231.312
233.374
235.388
237.332
239.187
240.941
242.588
244.13
245.567
246.894
248.016
249.023
206.295
206.436
206.768
207.282
207.959
208.79
209.766
210.881
212.128
213.5
214.988
216.583
218.274
220.048
221.892
223.789
225.722
227.672
229.619
231.542
233.426
235.253
237.015
238.708
240.335
241.9
243.401
244.821
246.027
247.135
205.861
205.998
206.319
206.814
207.463
208.256
209.186
210.246
211.43
212.729
214.134
215.636
217.223
218.882
220.6
222.361
224.147
225.942
227.727
229.485
231.203
232.87
234.483
236.044
237.563
239.053
240.514
241.936
243.163
244.355
205.386
205.517
205.825
206.297
206.915
207.667
208.547
209.548
210.663
211.883
213.199
214.599
216.073
217.608
219.188
220.799
222.423
224.043
225.642
227.204
228.717
230.172
231.568
232.911
234.216
235.503
236.789
238.087
239.248
240.5
204.87
204.995
205.288
205.736
206.319
207.027
207.853
208.791
209.832
210.968
212.187
213.479
214.832
216.233
217.665
219.113
220.559
221.985
223.374
224.708
225.972
227.157
228.259
229.281
230.238
231.159
232.078
233.057
233.992
235.256
204.317
204.435
204.711
205.131
205.677
206.339
207.108
207.979
208.942
209.988
211.106
212.284
213.51
214.768
216.042
217.316
218.569
219.783
220.937
222.01
222.983
223.837
224.561
225.146
225.597
225.935
226.208
226.537
226.926
228.05
203.728
203.838
204.096
204.487
204.994
205.607
206.317
207.117
207.999
208.951
209.963
211.022
212.113
213.222
214.331
215.42
216.469
217.455
218.352
219.135
219.775
220.242
220.505
220.532
220.295
219.78
219.005
218.118
217.263
217.755
203.106
203.208
203.446
203.807
204.273
204.834
205.483
206.21
207.007
207.863
208.765
209.701
210.654
211.608
212.545
213.442
214.277
215.021
215.645
216.115
216.389
216.421
216.152
215.511
214.409
212.74
210.388
207.349
203.705
201.828
202.452
202.546
202.763
203.093
203.517
204.025
204.61
205.263
205.973
206.73
207.52
208.329
209.141
209.938
210.698
211.398
212.011
212.506
212.847
212.988
212.877
212.445
211.601
210.222
208.128
205.054
200.579
194.098
184.438
173.154
69.6904
69.3243
68.6692
67.8866
67.0579
66.2072
65.3309
64.3922
63.3363
62.1167
60.7011
59.0544
57.1497
54.949
52.4348
49.6427
46.6136
43.3832
39.9997
36.5209
33.0118
29.5426
26.1812
22.9783
19.9125
16.9661
14.1014
11.084
7.36851
2.958
69.466
69.0905
68.5182
67.8216
67.0774
66.2898
65.4298
64.4948
63.4535
62.2253
60.7988
59.1346
57.2032
54.9778
52.4514
49.6479
46.6023
43.3543
39.9533
36.4574
32.9318
29.4448
26.0606
22.816
19.7164
16.7302
13.8178
10.8044
7.29127
2.83532
69.587
69.2255
68.7202
68.0838
67.3619
66.5621
65.6949
64.7422
63.665
62.406
60.937
59.2252
57.2436
54.9727
52.4097
49.573
46.4945
43.2147
39.784
36.2609
32.7103
29.1984
25.7859
22.5182
19.3683
16.3434
13.3964
10.416
7.07686
2.65467
70.0504
69.6832
69.1937
68.5705
67.8432
67.0266
66.1278
65.1232
63.978
62.6502
61.1071
59.3188
57.2613
54.9197
52.2933
49.3983
46.2645
42.9327
39.4534
35.886
32.2953
28.7469
25.296
21.9708
18.8024
15.7571
12.8048
9.87479
6.66274
2.43209
70.7298
70.3563
69.8579
69.2213
68.4713
67.6222
66.6688
65.5912
64.3598
62.9405
61.302
59.417
57.2645
54.8327
52.1225
49.1496
45.9426
42.5423
38.9997
35.3745
31.732
28.1373
24.6438
21.2836
18.0843
15.031
12.0985
9.22793
6.13211
2.19032
71.4582
71.1145
70.6119
69.9561
69.175
68.2782
67.2593
66.1002
64.775
63.2537
61.5081
59.5135
57.2515
54.713
51.9007
48.8303
45.5306
42.0426
38.4183
34.7185
31.0098
27.3581
23.8183
20.428
17.2134
14.1716
11.2836
8.48779
5.52837
1.93837
72.2552
71.8831
71.3638
70.6861
69.8735
68.9307
67.8497
66.6129
65.1961
63.5726
61.7165
59.606
57.2258
54.5691
51.6405
48.4569
45.048
41.4558
37.7336
33.9442
30.1562
26.4383
22.849
19.4312
16.2128
13.1996
10.3768
7.67474
4.88107
1.68098
72.9118
72.5408
72.0219
71.3374
70.5084
69.5349
68.4066
67.1051
65.6071
63.888
61.9244
59.6975
57.1945
54.4118
51.356
48.046
44.513
40.8008
36.965
33.0708
29.1903
25.3962
21.7531
18.3102
15.0985
12.1308
9.39217
6.8064
4.20845
1.42119
73.3955
73.0394
72.5433
71.8744
71.0522
70.0706
68.9159
67.568
66.0037
64.1999
62.1356
59.7947
57.1678
54.254
51.0628
47.6154
43.9454
40.0991
36.1348
32.1215
28.1354
24.2548
20.5517
17.0836
13.8881
10.981
8.34375
5.89751
3.52233
1.16125
73.7065
73.3801
72.9269
72.2976
71.5076
70.5424
69.3835
68.0084
66.3935
64.5168
62.3598
59.9092
57.1589
54.111
50.7783
47.1846
43.3666
39.3734
35.267
31.1205
27.0157
23.0373
19.2662
15.7713
12.5998
9.76542
7.24473
4.96047
2.83119
0.902837
73.8734
73.5909
73.2005
72.6354
71.9026
70.9763
69.8329
68.4469
66.7944
64.8548
62.612
60.0558
57.183
53.9993
50.5204
46.7735
42.7981
38.6471
34.386
30.0931
25.8565
21.7687
17.9206
14.3944
11.2492
8.49652
6.10754
4.00607
2.14177
0.64731
73.9311
73.7111
73.4098
72.9369
72.2844
71.4148
70.3001
68.9132
67.231
65.2345
62.9102
60.2508
57.2565
53.9358
50.3076
46.402
42.262
37.9437
33.517
29.0655
24.6843
20.475
16.5393
12.9733
9.85039
7.18627
4.94482
3.04419
1.45984
0.39602
73.9034
73.7795
73.612
73.2663
72.7139
71.9101
70.8278
69.4415
67.7301
65.6774
63.2723
60.5105
57.3949
53.9363
50.1569
46.0894
41.7795
37.287
32.6858
28.0647
23.5269
19.1838
15.148
11.5293
8.41857
5.84988
3.77127
2.08439
0.790846
0.150351
73.776
73.8231
73.8751
73.7015
73.2591
72.5163
71.4577
70.063
68.3154
66.2015
63.713
60.8477
57.6109
54.0143
50.0835
45.853
41.3711
36.7006
31.9188
27.1193
22.4139
17.9244
13.7745
10.0879
6.97899
4.50549
2.5965
1.13584
0.140687
-0.0878629
73.4383
73.8426
74.2878
74.3345
73.9848
73.2777
72.2198
70.7982
69.0008
66.8169
64.2399
61.2693
57.9124
54.1783
50.0986
45.7072
41.0544
36.2059
31.2415
26.2579
21.3764
16.7297
12.4529
8.68393
5.56128
3.16664
1.42739
0.2094
-0.482504
-0.31555
201.758
201.842
202.038
202.334
202.715
203.168
203.687
204.262
204.883
205.537
206.212
206.891
207.557
208.191
208.77
209.267
209.653
209.892
209.94
209.745
209.238
208.331
206.9
204.767
201.657
197.115
190.298
179.457
159.076
104.294
201.013
201.088
201.262
201.523
201.857
202.253
202.704
203.198
203.726
204.274
204.829
205.374
205.89
206.357
206.75
207.04
207.195
207.173
206.927
206.395
205.498
204.13
202.147
199.334
195.365
189.706
181.418
168.939
151.107
125.288
200.225
200.29
200.44
200.666
200.952
201.289
201.668
202.08
202.513
202.953
203.385
203.793
204.158
204.456
204.661
204.744
204.668
204.39
203.856
203.002
201.741
199.961
197.512
194.182
189.677
183.587
175.39
164.54
151.653
136.833
199.394
199.449
199.575
199.763
200.001
200.277
200.585
200.912
201.248
201.578
201.888
202.159
202.371
202.5
202.52
202.399
202.099
201.574
200.771
199.62
198.038
195.915
193.112
189.451
184.71
178.632
170.968
161.446
150.086
136.526
198.523
198.567
198.668
198.819
199.006
199.222
199.456
199.698
199.937
200.157
200.344
200.478
200.54
200.505
200.344
200.027
199.513
198.759
197.709
196.298
194.446
192.055
189.006
185.16
180.356
174.421
167.19
158.463
148.129
136.396
197.612
197.645
197.722
197.834
197.972
198.126
198.287
198.444
198.585
198.697
198.762
198.763
198.678
198.483
198.15
197.646
196.935
195.972
194.705
193.073
191.005
188.417
185.213
181.286
176.522
170.804
164.035
156.139
147.135
137.42
196.666
196.688
196.74
196.814
196.901
196.994
197.082
197.155
197.2
197.205
197.152
197.022
196.796
196.449
195.953
195.278
194.387
193.239
191.786
189.974
187.741
185.02
181.735
177.808
173.164
167.735
161.483
154.409
146.572
138.291
195.686
195.698
195.725
195.761
195.798
195.83
195.846
195.836
195.789
195.689
195.521
195.268
194.907
194.417
193.771
192.94
191.889
190.58
188.973
187.02
184.67
181.87
178.564
174.698
170.227
165.119
159.368
153.001
146.075
138.843
194.677
194.679
194.681
194.679
194.668
194.64
194.586
194.496
194.358
194.158
193.881
193.51
193.024
192.402
191.619
190.647
189.457
188.015
186.284
184.226
181.8
178.965
175.683
171.919
167.648
162.86
157.566
151.8
145.619
139.233
193.643
193.634
193.612
193.574
193.515
193.429
193.307
193.14
192.915
192.62
192.24
191.759
191.157
190.415
189.509
188.416
187.107
185.555
183.729
181.597
179.129
176.295
173.069
169.431
165.371
160.89
156.008
150.764
145.207
139.512
192.588
192.569
192.524
192.45
192.346
192.204
192.017
191.775
191.469
191.084
190.608
190.025
189.318
188.468
187.454
186.256
184.849
183.21
181.314
179.137
176.655
173.848
170.7
167.201
163.351
159.158
154.646
149.852
144.82
139.689
191.518
191.489
191.421
191.314
191.165
190.97
190.721
190.41
190.026
189.559
188.994
188.318
187.516
186.571
185.464
184.178
182.692
180.986
179.043
176.842
174.368
171.607
168.551
165.197
161.55
157.623
153.44
149.034
144.442
139.78
190.437
190.399
190.31
190.17
189.98
189.734
189.428
189.051
188.596
188.052
187.407
186.648
185.762
184.733
183.548
182.189
180.641
178.888
176.915
174.709
172.259
169.557
166.601
163.391
159.937
156.252
152.36
148.289
144.071
139.8
189.352
189.306
189.196
189.026
188.796
188.504
188.143
187.707
187.186
186.572
185.854
185.022
184.062
182.963
181.712
180.295
178.7
176.915
174.928
172.731
170.318
167.684
164.83
161.76
158.485
155.02
151.384
147.604
143.705
139.764
188.269
188.214
188.086
187.887
187.621
187.285
186.875
186.384
185.804
185.127
184.345
183.448
182.425
181.267
179.962
178.5
176.871
175.067
173.08
170.903
168.534
165.972
163.22
160.284
157.175
153.906
150.497
146.969
143.343
139.685
187.194
187.132
186.987
186.761
186.462
186.086
185.631
185.089
184.456
183.724
182.886
181.933
180.857
179.65
178.302
176.807
175.156
173.344
171.365
169.216
166.897
164.409
161.755
158.945
155.987
152.896
149.687
146.378
142.989
139.572
186.135
186.066
185.905
185.655
185.325
184.914
184.417
183.832
183.151
182.371
181.484
180.483
179.363
178.117
176.737
175.218
173.554
171.742
169.779
167.664
165.398
162.982
160.424
157.73
154.911
151.977
148.945
145.828
142.643
139.434
185.098
185.024
184.848
184.577
184.219
183.775
183.242
182.617
181.896
181.073
180.145
179.105
177.949
176.671
175.267
173.733
172.065
170.26
168.319
166.24
164.027
161.683
159.214
156.628
153.933
151.141
148.264
145.315
142.307
139.279
184.092
184.012
183.823
183.533
183.15
182.678
182.113
181.454
180.697
179.838
178.875
177.803
176.618
175.317
173.897
172.354
170.687
168.895
166.978
164.938
162.778
160.502
158.117
155.628
153.046
150.379
147.639
144.838
141.985
139.114
183.125
183.039
182.839
182.531
182.127
181.629
181.037
180.348
179.561
178.672
177.68
176.582
175.375
174.057
172.626
171.08
169.419
167.643
165.754
163.753
161.644
159.433
157.124
154.724
152.243
149.688
147.069
144.396
141.678
138.943
182.203
182.113
181.902
181.579
181.156
180.637
180.021
179.307
178.494
177.581
176.565
175.447
174.223
172.894
171.457
169.912
168.261
166.503
164.642
162.679
160.62
158.468
156.229
153.91
151.519
149.062
146.55
143.989
141.389
138.773
181.336
181.242
181.022
180.686
180.247
179.709
179.072
178.337
177.503
176.57
175.536
174.402
173.166
171.829
170.391
168.851
167.211
165.474
163.64
161.715
159.701
157.604
155.429
153.182
150.87
148.5
146.08
143.618
141.12
138.607
180.532
180.434
180.207
179.859
179.406
178.852
178.198
177.446
176.594
175.645
174.597
173.451
172.208
170.867
169.43
167.897
166.27
164.553
162.747
160.856
158.884
156.836
154.718
152.535
150.294
148
145.661
143.283
140.873
138.449
179.799
179.699
179.465
179.107
178.641
178.074
177.406
176.639
175.775
174.812
173.754
172.6
171.352
170.01
168.576
167.051
165.439
163.741
161.96
160.101
158.168
156.164
154.097
151.969
149.789
147.561
145.291
142.987
140.653
138.304
179.148
179.045
178.804
178.438
177.961
177.383
176.704
175.925
175.05
174.078
173.012
171.852
170.601
169.26
167.831
166.315
164.716
163.036
161.28
159.449
157.55
155.585
153.561
151.482
149.354
147.182
144.972
142.729
140.459
138.174
178.588
178.482
178.234
177.859
177.374
176.787
176.099
175.312
174.428
173.449
172.377
171.215
169.963
168.624
167.2
165.693
164.107
162.444
160.708
158.903
157.033
155.102
153.115
151.077
148.993
146.868
144.707
142.516
140.3
138.069
178.13
178.019
177.764
177.38
176.887
176.292
175.596
174.802
173.912
172.928
171.853
170.689
169.437
168.101
166.682
165.184
163.609
161.961
160.243
158.459
156.613
154.71
152.753
150.749
148.7
146.613
144.492
142.342
140.168
137.978
177.785
177.668
177.403
177.012
176.514
175.913
175.211
174.412
173.517
172.53
171.453
170.288
169.037
167.704
166.291
164.8
163.235
161.599
159.896
158.129
156.303
154.422
152.49
150.512
148.492
146.435
144.345
142.228
140.089
137.933
177.57
177.429
177.147
176.75
176.248
175.643
174.939
174.136
173.24
172.251
171.173
170.008
168.759
167.429
166.019
164.534
162.976
161.349
159.656
157.901
156.089
154.222
152.307
150.346
148.344
146.307
144.238
142.141
140.022
137.886
177.544
177.34
177.03
176.625
176.12
175.512
174.804
174
173.102
172.112
171.035
169.871
168.625
167.297
165.892
164.412
162.86
161.241
159.556
157.811
156.009
154.154
152.25
150.302
148.314
146.291
144.236
142.155
140.052
137.93
28.2357
46.9445
63.7367
107.333
100.906
90.5827
121.691
111.396
101.898
122.281
113.322
106.466
125.345
118.17
112.346
128.536
122.497
117.332
130.704
125.481
120.958
132.243
127.695
123.747
133.434
129.433
125.955
134.354
130.787
127.69
135.047
131.832
129.046
135.561
132.635
130.104
135.933
133.247
130.93
136.193
133.71
131.571
136.366
134.054
132.067
136.469
134.305
132.449
136.518
134.482
132.739
136.526
134.602
132.957
136.502
134.676
133.117
136.456
134.717
133.232
136.395
134.731
133.311
136.324
134.726
133.363
136.249
134.709
133.395
136.177
134.686
133.414
136.107
134.66
133.423
136.054
134.642
133.434
136.003
134.62
133.437
135.994
134.633
133.467
135.965
134.622
133.47
136.033
134.704
133.558
71.897
73.6203
74.9646
75.2778
74.9512
74.2328
73.1396
71.6625
69.795
67.5284
64.8563
61.7792
58.3087
54.4406
50.2166
45.6682
40.8482
35.8249
30.679
25.5077
20.4429
15.6284
11.2095
7.33524
4.1676
1.81989
0.252763
-0.698603
-1.08052
-0.532954
80.5067
77.9851
77.5284
76.862
76.1623
75.3549
74.2046
72.6502
70.6946
68.3325
65.5586
62.3727
58.7832
54.7973
50.4382
45.746
40.7761
35.5923
30.2663
24.9059
19.654
14.6627
10.0829
6.07086
2.82048
0.489689
-0.910011
-1.58348
-1.6425
-0.739685
89.9891
82.7519
80.2016
78.9829
78.0078
76.8312
75.3965
73.6899
71.6357
69.1804
66.3086
63.0199
59.3213
55.2242
50.7494
45.9352
40.8333
35.5042
30.0212
24.5013
19.0884
13.9235
9.1575
4.98293
1.61973
-0.742503
-2.04035
-2.44346
-2.15474
-0.93601
97.2062
88.8272
84.2838
81.6032
79.7784
78.263
76.6746
74.8019
72.5872
70.0119
67.0471
63.6721
59.8851
55.6967
51.1286
46.217
41.0108
35.571
29.9738
24.3341
18.7858
13.4635
8.53579
4.2223
0.75009
-1.69923
-2.98912
-3.23657
-2.64052
-1.11578
104.158
95.728
89.7379
85.4518
82.3224
79.9334
77.8751
75.7989
73.4759
70.7989
67.7371
64.2819
60.4274
56.1763
51.5453
46.568
41.2921
35.7799
30.1098
24.3913
18.7545
13.341
8.32331
3.92264
0.357258
-2.20542
-3.60081
-3.84167
-2.85641
-1.21233
110.156
102.212
95.4734
90.0388
85.7683
82.3688
79.5146
76.906
74.2906
71.4756
68.3388
64.8247
60.92
56.6294
51.9671
46.9614
41.6565
36.1138
30.4123
24.658
18.9806
13.5286
8.47688
4.03795
0.428218
-2.17179
-3.61539
-3.87155
-2.97708
-1.4832
114.857
107.692
100.801
94.7479
89.6927
85.4581
81.804
78.5104
75.378
72.2269
68.906
65.305
61.3605
57.0507
52.3819
47.3794
42.084
36.5537
30.8656
25.1222
19.4515
14.0037
8.95399
4.50668
0.873469
-1.7612
-3.26469
-3.61696
-2.91524
-1.59083
118.539
112.168
105.49
99.2347
93.736
88.9161
84.6133
80.6807
76.9771
73.3624
69.7055
65.8938
61.8402
57.4893
52.8191
47.8378
42.578
37.0933
31.4573
25.7675
20.1473
14.7437
9.72793
5.29499
1.64561
-1.04442
-2.65654
-3.17742
-2.70409
-1.63661
121.435
115.764
109.479
103.305
97.6457
92.4897
87.7369
83.3006
79.0925
75.0135
70.962
66.8444
62.5807
58.1092
53.3907
48.4126
43.1901
37.7644
32.2014
26.5921
21.0524
15.7224
10.7649
6.36198
2.69869
-0.063843
-1.82044
-2.55923
-2.36906
-1.62868
123.702
118.622
112.793
106.867
101.253
95.9749
90.9722
86.1998
81.6116
77.1456
72.7301
68.2942
63.7737
59.1161
54.2832
49.2558
44.0366
38.6533
33.1592
27.6339
22.1831
16.9363
12.0442
7.67276
3.98883
1.13639
-0.792014
-1.78567
-1.92342
-1.5532
125.478
120.891
115.514
109.913
104.473
99.2312
94.1484
89.2034
84.3782
79.6397
74.9425
70.2374
65.4777
60.6233
55.6446
50.5253
45.2662
39.8881
34.4344
28.9729
23.5962
18.4202
13.5804
9.2248
5.50085
2.53473
0.406781
-0.873631
-1.3746
-1.41246
126.877
122.703
117.741
112.486
107.286
102.183
97.1448
92.1625
87.2338
82.3447
77.4694
72.5771
67.6366
62.6209
57.5096
52.2929
46.9742
41.5733
36.1287
30.6997
25.3672
20.233
15.4162
11.0461
7.25064
4.13868
1.77894
0.179118
-0.719816
-1.20705
127.983
124.158
119.568
114.646
109.712
104.803
99.8915
94.9703
90.0452
85.1132
80.1618
75.173
70.1284
65.0116
59.8111
54.5235
49.156
43.7291
38.2793
32.8601
27.5434
22.4186
17.5893
13.1674
9.26243
5.96707
3.33943
1.38532
0.0525639
-0.924254
128.861
125.333
121.07
116.458
111.79
107.1
102.36
97.5631
92.7172
87.8254
82.8827
77.8798
72.807
67.6559
62.4219
57.1068
51.721
46.2861
40.8366
35.4217
30.1057
24.9671
20.0961
15.5889
11.5388
8.02439
5.09439
2.75306
0.954194
-0.541396
129.558
126.286
122.31
117.979
113.565
109.099
104.55
99.9124
95.1928
90.3974
85.5252
80.5724
75.5345
70.4087
65.195
59.8987
54.5322
49.1172
43.6862
38.2839
32.9673
27.8054
22.8761
18.2617
14.0417
10.2822
7.02445
4.27185
1.98461
-0.0419371
130.112
127.061
123.336
119.259
115.081
110.831
106.478
102.014
97.4456
92.7797
88.0175
83.1582
78.2005
73.145
67.9944
62.756
57.443
52.0761
46.6851
41.3099
36.0004
30.8162
25.8241
21.094
16.6929
12.6765
9.07968
5.90575
3.12206
0.5676
130.55
127.691
124.188
120.337
116.375
112.328
108.165
103.878
99.47
94.9495
90.3185
85.5778
80.7281
75.7716
70.7129
65.5597
60.325
55.0279
49.6949
44.3607
39.0683
33.8682
28.8168
23.9727
19.3916
15.1201
11.1874
7.59698
4.32304
1.25309
130.896
128.203
124.895
121.247
117.479
113.62
109.637
105.52
101.273
96.902
92.4103
87.7994
83.0711
78.2286
73.2768
68.2237
63.0813
57.8666
52.6026
47.3187
42.0512
36.8421
31.7382
26.7875
22.0359
17.5212
13.2673
9.27757
5.53129
1.9628
131.167
128.618
125.482
122.013
118.421
114.733
110.917
106.96
102.867
98.6427
94.2899
89.8106
85.2071
80.4828
75.6428
70.6946
65.649
60.5207
55.3292
50.0991
44.8601
39.6468
34.4969
29.4492
24.5401
19.7998
15.2469
10.8833
6.691
2.64386
131.378
128.954
125.969
122.658
119.224
115.689
112.025
108.218
104.268
100.183
95.9631
91.6113
87.1293
82.5208
77.7904
72.945
67.9939
62.9497
57.8285
52.6504
47.4397
42.2238
37.0328
31.897
26.8447
21.8987
17.0721
12.3646
7.75826
3.25579
131.54
129.224
126.37
123.2
119.905
116.508
112.982
109.309
105.493
101.535
97.4401
93.2078
88.8405
84.3412
79.7141
74.9652
70.1023
65.1359
60.0792
54.9484
49.7627
44.5437
39.3146
34.0986
28.9166
23.7847
18.7109
13.6913
8.70646
3.7767
131.663
129.44
126.701
123.654
120.482
117.207
113.803
110.252
106.555
102.715
98.733
94.6106
90.3487
85.9498
81.4175
76.7566
71.9737
67.0771
62.0775
56.9876
51.8225
46.5987
41.3335
36.044
30.7449
25.4464
20.1513
14.852
9.52633
4.2027
131.756
129.612
126.973
124.033
120.967
117.8
114.503
111.06
107.469
103.734
99.854
95.8305
91.6637
87.3553
82.908
78.3258
73.6137
68.7784
63.8281
58.7727
53.6235
48.3929
43.0935
37.7371
32.3329
26.8861
21.3949
15.848
10.2203
4.54127
131.827
129.75
127.196
124.348
121.375
118.3
115.096
111.747
108.25
104.606
100.817
96.8805
92.7977
88.5693
84.197
79.6837
75.0333
70.2508
65.3423
60.3154
55.1781
49.9394
44.6079
39.191
33.6937
28.1165
22.4537
16.6907
10.8001
4.80722
131.88
129.859
127.376
124.606
121.712
118.716
115.592
112.323
108.906
105.342
101.63
97.7689
93.7587
89.5993
85.2917
80.8376
76.2398
71.5019
66.6283
61.6242
56.4955
51.248
45.8871
40.4167
34.838
29.148
23.3376
17.3894
11.2742
5.01121
131.926
129.95
127.527
124.823
121.994
119.063
116.006
112.804
109.455
105.957
102.31
98.5129
94.564
90.4627
86.2094
81.805
77.2511
72.5501
67.705
62.7192
57.5964
52.3403
46.9534
41.4369
35.789
30.0037
24.0693
17.9661
11.6634
5.17156
131.958
130.019
127.644
124.991
122.214
119.337
116.333
113.185
109.89
106.445
102.852
99.1057
95.2061
91.1517
86.9421
82.5775
78.0586
73.3868
68.5638
63.5918
58.4728
53.2085
47.7996
42.2447
36.54
30.6769
24.6417
18.4128
11.9589
5.28243
132.006
130.094
127.756
125.144
122.408
119.57
116.608
113.502
110.248
106.846
103.293
99.5864
95.7251
91.707
87.5311
83.197
78.7049
74.0553
69.2491
64.2872
59.1705
53.8994
48.4728
42.8879
37.1389
31.2157
25.1025
18.7761
12.2042
5.37679
132.029
130.134
127.82
125.235
122.526
119.715
116.78
113.702
110.476
107.101
103.575
99.8955
96.0594
92.0652
87.9116
83.5976
79.123
74.4878
69.6922
64.7365
59.6207
54.3443
48.9052
43.2995
37.52
31.5553
25.3883
18.9945
12.3408
5.40949
132.115
130.223
127.925
125.359
122.667
119.873
116.955
113.893
110.684
107.325
103.815
100.15
96.3288
92.348
88.2065
83.9032
79.4377
74.8095
70.0186
65.0651
59.9484
54.6675
49.2201
43.6014
37.8037
31.8151
25.6171
19.1832
12.4754
5.44952
)
;

boundaryField
{
    inlet
    {
        type            zeroGradient;
    }
    outlet
    {
        type            fixedValue;
        value           uniform 0;
    }
    flap
    {
        type            zeroGradient;
    }
    upperWall
    {
        type            zeroGradient;
    }
    lowerWall
    {
        type            zeroGradient;
    }
    frontAndBack
    {
        type            empty;
    }
}


// ************************************************************************* //
