/*--------------------------------*- C++ -*----------------------------------*\
  =========                 |
  \\      /  F ield         | OpenFOAM: The Open Source CFD Toolbox
   \\    /   O peration     | Website:  https://openfoam.org
    \\  /    A nd           | Version:  dev
     \\/     M anipulation  |
\*---------------------------------------------------------------------------*/
FoamFile
{
    version     2.0;
    format      ascii;
    class       volVectorField;
    location    "1.2";
    object      U;
}
// * * * * * * * * * * * * * * * * * * * * * * * * * * * * * * * * * * * * * //

dimensions      [0 1 -1 0 0 0 0];

internalField   nonuniform List<vector> 
2790
(
(9.9438 0 0.0206324)
(9.8749 0 0.029823)
(9.77322 0 0.0363608)
(9.64576 0 0.0430706)
(9.49825 0 0.0500486)
(9.33159 0 0.0572445)
(9.14499 0 0.0647863)
(8.93757 0 0.0728344)
(8.70855 0 0.0815251)
(8.457 0 0.0909811)
(8.18177 0 0.101325)
(7.88155 0 0.112682)
(7.55492 0 0.125176)
(7.20038 0 0.138929)
(6.81642 0 0.154046)
(6.40165 0 0.170604)
(5.95491 0 0.188635)
(5.47544 0 0.208091)
(4.96317 0 0.228818)
(4.41898 0 0.250503)
(3.84506 0 0.27263)
(3.2453 0 0.294431)
(2.62561 0 0.314862)
(1.99417 0 0.332761)
(1.35966 0 0.348347)
(0.754252 0 0.370424)
(0.054363 0 0.296902)
(-0.46164 0 -0.120577)
(-0.450764 0 -0.279335)
(-0.229453 0 -0.411207)
(9.99832 0 0.0410425)
(9.98063 0 0.0630955)
(9.93374 0 0.0802494)
(9.86045 0 0.0981464)
(9.76505 0 0.117068)
(9.64855 0 0.136858)
(9.51032 0 0.157765)
(9.34956 0 0.180138)
(9.16549 0 0.20428)
(8.95718 0 0.23046)
(8.72351 0 0.258938)
(8.46316 0 0.28997)
(8.17468 0 0.323787)
(7.85651 0 0.360583)
(7.50705 0 0.400476)
(7.12479 0 0.443465)
(6.70836 0 0.489369)
(6.25675 0 0.537741)
(5.76958 0 0.587776)
(5.24733 0 0.638195)
(4.69178 0 0.687131)
(4.10646 0 0.732024)
(3.49715 0 0.769571)
(2.87276 0 0.795794)
(2.24614 0 0.806448)
(1.64648 0 0.797939)
(1.06525 0 0.729465)
(0.630748 0 0.527422)
(0.143621 0 0.190374)
(-0.00930963 0 -0.457391)
(9.99541 0 0.0437827)
(9.97475 0 0.07647)
(9.92984 0 0.105206)
(9.86127 0 0.134922)
(9.77203 0 0.166319)
(9.66322 0 0.199375)
(9.53455 0 0.234428)
(9.38542 0 0.271974)
(9.21519 0 0.312483)
(9.02314 0 0.356399)
(8.80832 0 0.404157)
(8.5696 0 0.456187)
(8.3057 0 0.512897)
(8.01523 0 0.574634)
(7.69669 0 0.64164)
(7.34855 0 0.713972)
(6.96936 0 0.791403)
(6.55782 0 0.873287)
(6.11306 0 0.958386)
(5.63481 0 1.04467)
(5.12383 0 1.1291)
(4.58236 0 1.20738)
(4.01473 0 1.27372)
(3.4284 0 1.3205)
(2.83461 0 1.33754)
(2.25391 0 1.30976)
(1.69304 0 1.19756)
(1.18549 0 0.947329)
(0.681361 0 0.544215)
(0.340269 0 -0.186022)
(9.99384 0 0.0503007)
(9.971 0 0.0948723)
(9.92591 0 0.136153)
(9.85862 0 0.177743)
(9.77118 0 0.220941)
(9.66466 0 0.266149)
(9.53901 0 0.313884)
(9.39382 0 0.3648)
(9.22865 0 0.419547)
(9.04299 0 0.478744)
(8.83615 0 0.543007)
(8.60734 0 0.612942)
(8.35561 0 0.689135)
(8.07994 0 0.772112)
(7.77921 0 0.862276)
(7.45224 0 0.959821)
(7.09786 0 1.0646)
(6.71491 0 1.17596)
(6.30242 0 1.2925)
(5.85974 0 1.41178)
(5.3868 0 1.53)
(4.88448 0 1.64162)
(4.35512 0 1.73887)
(3.80314 0 1.81116)
(3.23517 0 1.84401)
(2.66197 0 1.81723)
(2.08856 0 1.69622)
(1.52533 0 1.4438)
(0.940187 0 1.04716)
(0.499489 0 0.467803)
(9.99313 0 0.0582425)
(9.96913 0 0.113099)
(9.92396 0 0.165419)
(9.85781 0 0.217884)
(9.77221 0 0.27214)
(9.66798 0 0.328951)
(9.54516 0 0.388972)
(9.40344 0 0.452942)
(9.24247 0 0.521613)
(9.06181 0 0.595712)
(8.86096 0 0.67596)
(8.63928 0 0.763068)
(8.39607 0 0.857727)
(8.13058 0 0.960569)
(7.842 0 1.07211)
(7.52946 0 1.19264)
(7.19209 0 1.32211)
(6.82898 0 1.45992)
(6.43923 0 1.60466)
(6.02202 0 1.75378)
(5.57669 0 1.90313)
(5.10296 0 2.04651)
(4.60114 0 2.17504)
(4.07249 0 2.27652)
(3.51909 0 2.3346)
(2.94462 0 2.32815)
(2.35007 0 2.22816)
(1.73802 0 2.00454)
(1.07264 0 1.64391)
(0.526652 0 1.10704)
(9.99284 0 0.0667962)
(9.96841 0 0.131317)
(9.92358 0 0.194163)
(9.85886 0 0.257384)
(9.77546 0 0.322639)
(9.67401 0 0.390907)
(9.55453 0 0.462965)
(9.41679 0 0.539631)
(9.26048 0 0.621749)
(9.08523 0 0.710148)
(8.89062 0 0.805645)
(8.67609 0 0.909048)
(8.44109 0 1.02114)
(8.18497 0 1.14263)
(7.90707 0 1.27413)
(7.60671 0 1.41602)
(7.28314 0 1.56835)
(6.93556 0 1.73061)
(6.56308 0 1.90151)
(6.16467 0 2.07857)
(5.73915 0 2.2577)
(5.28521 0 2.4326)
(4.80142 0 2.59416)
(4.28635 0 2.72982)
(3.73851 0 2.82298)
(3.1568 0 2.85293)
(2.53851 0 2.79402)
(1.88425 0 2.61944)
(1.15508 0 2.3159)
(0.540312 0 1.83543)
(9.99278 0 0.0755622)
(9.96844 0 0.149407)
(9.92437 0 0.222273)
(9.86139 0 0.295845)
(9.78056 0 0.371709)
(9.68234 0 0.45099)
(9.56675 0 0.534604)
(9.4336 0 0.623463)
(9.28265 0 0.718498)
(9.11357 0 0.820628)
(8.92597 0 0.930757)
(8.71936 0 1.04977)
(8.49323 0 1.17853)
(8.24701 0 1.31782)
(7.98007 0 1.46833)
(7.69175 0 1.63052)
(7.3813 0 1.80456)
(7.04787 0 1.9901)
(6.6904 0 2.18605)
(6.30755 0 2.3902)
(5.89758 0 2.59882)
(5.45819 0 2.80605)
(4.98647 0 3.00325)
(4.47883 0 3.17837)
(3.93101 0 3.31542)
(3.33856 0 3.39438)
(2.69605 0 3.3912)
(2.00461 0 3.27975)
(1.22262 0 3.0443)
(0.553643 0 2.6215)
(9.99288 0 0.0843067)
(9.96898 0 0.16718)
(9.92606 0 0.249586)
(9.86513 0 0.333055)
(9.78721 0 0.419106)
(9.69266 0 0.508966)
(9.5815 0 0.603667)
(9.45357 0 0.704214)
(9.30866 0 0.811616)
(9.14651 0 0.926874)
(8.96675 0 1.05097)
(8.76896 0 1.18487)
(8.55265 0 1.32951)
(8.31726 0 1.48576)
(8.06217 0 1.6544)
(7.78667 0 1.83602)
(7.48993 0 2.03092)
(7.17092 0 2.23898)
(6.82831 0 2.4594)
(6.46034 0 2.69044)
(6.06464 0 2.92898)
(5.63798 0 3.16996)
(5.17609 0 3.40576)
(4.67353 0 3.62546)
(4.1237 0 3.81418)
(3.5195 0 3.95266)
(2.85301 0 4.01722)
(2.12623 0 3.98008)
(1.29422 0 3.82002)
(0.572457 0 3.45455)
(9.99307 0 0.0928795)
(9.96989 0 0.184466)
(9.92844 0 0.275954)
(9.86988 0 0.368849)
(9.79521 0 0.464629)
(9.70476 0 0.564589)
(9.59851 0 0.669859)
(9.47635 0 0.781531)
(9.33814 0 0.900686)
(9.18364 0 1.0284)
(9.01254 0 1.16573)
(8.82445 0 1.31373)
(8.61892 0 1.47342)
(8.39541 0 1.64577)
(8.15329 0 1.83166)
(7.89179 0 2.03183)
(7.60996 0 2.24681)
(7.30657 0 2.47674)
(6.97999 0 2.72126)
(6.62802 0 2.97923)
(6.24763 0 3.24836)
(5.83469 0 3.52473)
(5.38367 0 3.80215)
(4.88738 0 4.07134)
(4.33696 0 4.31899)
(3.72258 0 4.52685)
(3.03316 0 4.67095)
(2.27031 0 4.72017)
(1.38436 0 4.64505)
(0.601885 0 4.34016)
(9.99334 0 0.101177)
(9.97107 0 0.201123)
(9.93137 0 0.301238)
(9.87547 0 0.403065)
(9.80439 0 0.508076)
(9.7184 0 0.617613)
(9.61752 0 0.732887)
(9.50167 0 0.855067)
(9.37074 0 0.985305)
(9.22456 0 1.12475)
(9.06286 0 1.27453)
(8.88532 0 1.43577)
(8.69152 0 1.6096)
(8.48095 0 1.79708)
(8.25298 0 1.99924)
(8.00681 0 2.21702)
(7.7414 0 2.45117)
(7.45536 0 2.70223)
(7.14681 0 2.97035)
(6.81316 0 3.25514)
(6.45083 0 3.55534)
(6.05488 0 3.86847)
(5.6186 0 4.19017)
(5.13311 0 4.51335)
(4.58711 0 4.82695)
(3.96741 0 5.11441)
(3.25821 0 5.35173)
(2.45791 0 5.50378)
(1.50903 0 5.53021)
(0.648917 0 5.29657)
(9.99365 0 0.109124)
(9.97246 0 0.217033)
(9.93475 0 0.325307)
(9.88179 0 0.435555)
(9.81458 0 0.549263)
(9.73341 0 0.667814)
(9.6383 0 0.792487)
(9.52922 0 0.924516)
(9.40611 0 1.06512)
(9.26885 0 1.2155)
(9.11725 0 1.37687)
(8.95102 0 1.55044)
(8.76983 0 1.7374)
(8.57321 0 1.93896)
(8.36057 0 2.15629)
(8.13111 0 2.39054)
(7.88378 0 2.64277)
(7.61712 0 2.91392)
(7.3291 0 3.20477)
(7.01691 0 3.51578)
(6.67659 0 3.84692)
(6.30264 0 4.19739)
(5.88741 0 4.56511)
(5.42049 0 4.94584)
(4.88799 0 5.33184)
(4.27252 0 5.70972)
(3.55128 0 6.05717)
(2.71474 0 6.33624)
(1.69081 0 6.49391)
(0.725309 0 6.35641)
(9.99401 0 0.116662)
(9.97403 0 0.2321)
(9.9385 0 0.348044)
(9.88871 0 0.466181)
(9.82564 0 0.588025)
(9.7496 0 0.714996)
(9.66063 0 0.848424)
(9.55873 0 0.989604)
(9.44392 0 1.13981)
(9.31612 0 1.3003)
(9.17521 0 1.47235)
(9.02101 0 1.65723)
(8.85322 0 1.85625)
(8.67149 0 2.07071)
(8.47528 0 2.30195)
(8.26389 0 2.55133)
(8.03631 0 2.82024)
(7.79113 0 3.11008)
(7.52638 0 3.42224)
(7.23923 0 3.75814)
(6.92567 0 4.1191)
(6.58002 0 4.5062)
(6.19419 0 4.92003)
(5.75672 0 5.36)
(5.25147 0 5.82315)
(4.65647 0 6.30178)
(3.9396 0 6.77933)
(3.07667 0 7.22027)
(1.96708 0 7.56171)
(0.853875 0 7.57651)
(9.99441 0 0.123745)
(9.97573 0 0.246241)
(9.94256 0 0.369347)
(9.89614 0 0.494822)
(9.83745 0 0.624217)
(9.7668 0 0.758982)
(9.68427 0 0.900493)
(9.58992 0 1.05009)
(9.48381 0 1.20909)
(9.36593 0 1.3788)
(9.23625 0 1.56056)
(9.09467 0 1.75569)
(8.941 0 1.96558)
(8.77498 0 2.19165)
(8.59621 0 2.43538)
(8.40412 0 2.69835)
(8.19787 0 2.98224)
(7.97624 0 3.28889)
(7.73748 0 3.62033)
(7.47906 0 3.9789)
(7.19732 0 4.36726)
(6.88696 0 4.78849)
(6.54024 0 5.24609)
(6.14579 0 5.74379)
(5.68654 0 6.28497)
(5.13718 0 6.87114)
(4.4559 0 7.49843)
(3.59699 0 8.14679)
(2.40652 0 8.76255)
(1.08445 0 9.06405)
(9.99482 0 0.130339)
(9.97754 0 0.259394)
(9.94686 0 0.389129)
(9.90398 0 0.521377)
(9.84986 0 0.657718)
(9.78484 0 0.799633)
(9.70902 0 0.948529)
(9.62251 0 1.10578)
(9.52543 0 1.27275)
(9.41786 0 1.45078)
(9.29985 0 1.64122)
(9.17138 0 1.84548)
(9.03241 0 2.065)
(8.8828 0 2.30128)
(8.72233 0 2.55594)
(8.55062 0 2.83073)
(8.36708 0 3.12759)
(8.17083 0 3.44873)
(7.96054 0 3.79676)
(7.73427 0 4.1748)
(7.48915 0 4.58672)
(7.22099 0 5.03744)
(6.92349 0 5.53328)
(6.58708 0 6.08243)
(6.19668 0 6.69559)
(5.72805 0 7.38655)
(5.13563 0 8.17286)
(4.35448 0 9.07324)
(3.14659 0 10.1041)
(1.53894 0 11.0533)
(9.99526 0 0.136414)
(9.97943 0 0.271503)
(9.95135 0 0.407318)
(9.91216 0 0.545746)
(9.86277 0 0.6884)
(9.80356 0 0.836783)
(9.73465 0 0.992327)
(9.65622 0 1.15643)
(9.56845 0 1.33048)
(9.47149 0 1.51584)
(9.36548 0 1.7139)
(9.25053 0 1.92609)
(9.12671 0 2.15389)
(8.99406 0 2.39887)
(8.85254 0 2.66274)
(8.70204 0 2.94737)
(8.54231 0 3.2549)
(8.37288 0 3.58781)
(8.19305 0 3.9491)
(8.00171 0 4.3425)
(7.7972 0 4.77275)
(7.57708 0 5.24612)
(7.33768 0 5.7711)
(7.07339 0 6.3595)
(6.77522 0 7.02838)
(6.42855 0 7.80355)
(6.00238 0 8.72736)
(5.45082 0 9.87749)
(4.49368 0 11.45)
(2.56324 0 14.1455)
(0.333873 0 -0.520548)
(0.810368 0 -0.376395)
(1.19678 0 -0.28688)
(1.48873 0 -0.22466)
(1.69622 0 -0.172491)
(1.8216 0 -0.117926)
(1.846 0 -0.0562325)
(1.77912 0 0.0025049)
(1.63854 0 0.0504946)
(1.43516 0 0.0873947)
(1.17933 0 0.112434)
(0.885404 0 0.127745)
(0.560973 0 0.134005)
(0.217565 0 0.13346)
(-0.126628 0 0.128133)
(-0.468209 0 0.120252)
(-0.802067 0 0.110067)
(-1.11932 0 0.0975295)
(-1.41174 0 0.0828435)
(-1.67096 0 0.0662374)
(-1.88822 0 0.0478713)
(-2.05408 0 0.0276463)
(-2.15909 0 0.00497715)
(-2.19567 0 -0.0214247)
(-2.15779 0 -0.0567431)
(-2.00449 0 -0.101404)
(-1.70813 0 -0.159069)
(-1.24126 0 -0.239485)
(-0.618031 0 -0.338796)
(0.44379 0 -0.314006)
(0.119755 0 -0.813598)
(0.468334 0 -0.57674)
(0.655433 0 -0.415998)
(0.767302 0 -0.285672)
(0.766957 0 -0.158636)
(0.654049 0 -0.0281114)
(0.49683 0 0.0831491)
(0.289096 0 0.172136)
(0.0340427 0 0.242536)
(-0.250266 0 0.295586)
(-0.567111 0 0.335512)
(-0.906955 0 0.363119)
(-1.26465 0 0.378394)
(-1.63253 0 0.38248)
(-2.00399 0 0.376855)
(-2.37155 0 0.363688)
(-2.72677 0 0.343446)
(-3.06128 0 0.316092)
(-3.36689 0 0.281881)
(-3.63519 0 0.241176)
(-3.85755 0 0.194378)
(-4.02513 0 0.141712)
(-4.12936 0 0.0827342)
(-4.16351 0 0.0158269)
(-4.12242 0 -0.0611963)
(-3.99665 0 -0.149513)
(-3.77845 0 -0.250004)
(-3.46716 0 -0.366156)
(-3.10346 0 -0.475165)
(-2.81663 0 -0.488016)
(-0.0264708 0 -0.965427)
(0.0962972 0 -0.682773)
(0.0351934 0 -0.430866)
(-0.0548885 0 -0.212456)
(-0.219622 0 -0.0164806)
(-0.397253 0 0.142929)
(-0.616343 0 0.273608)
(-0.869814 0 0.383304)
(-1.15258 0 0.472684)
(-1.46081 0 0.541316)
(-1.79092 0 0.591783)
(-2.13725 0 0.624505)
(-2.49498 0 0.640056)
(-2.8587 0 0.639529)
(-3.2227 0 0.624405)
(-3.58049 0 0.596257)
(-3.925 0 0.555884)
(-4.24911 0 0.503789)
(-4.54562 0 0.440609)
(-4.80724 0 0.367157)
(-5.02651 0 0.284433)
(-5.19599 0 0.193514)
(-5.30861 0 0.0952097)
(-5.3579 0 -0.0105624)
(-5.34454 0 -0.125096)
(-5.26542 0 -0.248513)
(-5.11745 0 -0.379282)
(-4.90433 0 -0.515102)
(-4.65973 0 -0.636379)
(-4.49591 0 -0.700059)
(-0.151469 0 -0.88492)
(-0.244831 0 -0.581677)
(-0.465606 0 -0.293875)
(-0.680314 0 -0.0419441)
(-0.89729 0 0.164898)
(-1.13765 0 0.339193)
(-1.40139 0 0.489276)
(-1.68486 0 0.615659)
(-1.98633 0 0.718278)
(-2.30407 0 0.797206)
(-2.63575 0 0.853949)
(-2.97814 0 0.889327)
(-3.32784 0 0.904204)
(-3.68091 0 0.899685)
(-4.03285 0 0.877099)
(-4.37842 0 0.837732)
(-4.7118 0 0.782493)
(-5.02682 0 0.712079)
(-5.3171 0 0.627217)
(-5.576 0 0.528764)
(-5.7967 0 0.417781)
(-5.97245 0 0.295523)
(-6.0972 0 0.163326)
(-6.16702 0 0.0220088)
(-6.17868 0 -0.129237)
(-6.13577 0 -0.285568)
(-6.03736 0 -0.443206)
(-5.88688 0 -0.596314)
(-5.71242 0 -0.731411)
(-5.60346 0 -0.82503)
(-0.249246 0 -0.647562)
(-0.480098 0 -0.338226)
(-0.797981 0 -0.0477985)
(-1.07279 0 0.190461)
(-1.35083 0 0.395096)
(-1.63715 0 0.575262)
(-1.93171 0 0.731765)
(-2.2348 0 0.863822)
(-2.54677 0 0.971031)
(-2.86761 0 1.05341)
(-3.19663 0 1.11161)
(-3.5324 0 1.14624)
(-3.8729 0 1.15798)
(-4.21544 0 1.14766)
(-4.55656 0 1.11625)
(-4.89204 0 1.0647)
(-5.217 0 0.99381)
(-5.52604 0 0.904338)
(-5.81336 0 0.797141)
(-6.07287 0 0.673327)
(-6.29823 0 0.534341)
(-6.4832 0 0.382007)
(-6.62227 0 0.21837)
(-6.71158 0 0.0455566)
(-6.74791 0 -0.133064)
(-6.73729 0 -0.314722)
(-6.67871 0 -0.492945)
(-6.57602 0 -0.659715)
(-6.45366 0 -0.805424)
(-6.38012 0 -0.910888)
(-0.30533 0 -0.285479)
(-0.611847 0 0.0103339)
(-0.976489 0 0.250802)
(-1.30671 0 0.468114)
(-1.6288 0 0.66419)
(-1.94541 0 0.839188)
(-2.25951 0 0.992063)
(-2.57358 0 1.12171)
(-2.8897 0 1.22733)
(-3.20937 0 1.30846)
(-3.53333 0 1.36505)
(-3.86151 0 1.39718)
(-4.19304 0 1.40511)
(-4.52623 0 1.38922)
(-4.85853 0 1.35006)
(-5.18656 0 1.28821)
(-5.50616 0 1.20424)
(-5.81253 0 1.09881)
(-6.10035 0 0.972737)
(-6.36385 0 0.82716)
(-6.59696 0 0.66366)
(-6.79367 0 0.484348)
(-6.94871 0 0.291903)
(-7.05828 0 0.0897861)
(-7.11954 0 -0.116977)
(-7.1377 0 -0.32297)
(-7.11321 0 -0.520904)
(-7.05034 0 -0.701757)
(-6.97021 0 -0.857412)
(-6.92292 0 -0.968038)
(-0.313242 0 0.147995)
(-0.655579 0 0.383699)
(-1.05977 0 0.588124)
(-1.42278 0 0.781157)
(-1.76909 0 0.958788)
(-2.10127 0 1.11955)
(-2.4238 0 1.26161)
(-2.74053 0 1.38329)
(-3.05483 0 1.48317)
(-3.36938 0 1.5601)
(-3.68601 0 1.61323)
(-4.00566 0 1.64197)
(-4.32837 0 1.64591)
(-4.65323 0 1.62488)
(-4.97841 0 1.57887)
(-5.30116 0 1.50797)
(-5.61787 0 1.41245)
(-5.92422 0 1.29269)
(-6.2152 0 1.14942)
(-6.48528 0 0.983769)
(-6.72854 0 0.797476)
(-6.93911 0 0.593045)
(-7.11181 0 0.373943)
(-7.24278 0 0.145002)
(-7.32927 0 -0.0873114)
(-7.37421 0 -0.315712)
(-7.38034 0 -0.532025)
(-7.35238 0 -0.726457)
(-7.3081 0 -0.890685)
(-7.2818 0 -1.00363)
(-0.302142 0 0.572661)
(-0.657195 0 0.779846)
(-1.07619 0 0.948652)
(-1.44888 0 1.11144)
(-1.80096 0 1.26415)
(-2.13422 0 1.40509)
(-2.45391 0 1.53195)
(-2.76475 0 1.64243)
(-3.07098 0 1.73431)
(-3.37607 0 1.80563)
(-3.68264 0 1.85467)
(-3.99233 0 1.88001)
(-4.30579 0 1.88052)
(-4.62271 0 1.85533)
(-4.94179 0 1.80381)
(-5.26075 0 1.72556)
(-5.57644 0 1.62038)
(-5.88486 0 1.48839)
(-6.18127 0 1.33009)
(-6.4603 0 1.14657)
(-6.71613 0 0.939655)
(-6.94287 0 0.712188)
(-7.13518 0 0.468297)
(-7.28881 0 0.213868)
(-7.4008 0 -0.043275)
(-7.47106 0 -0.293514)
(-7.50541 0 -0.527787)
(-7.50894 0 -0.735652)
(-7.49605 0 -0.907671)
(-7.48741 0 -1.02205)
(-0.282704 0 0.99982)
(-0.631302 0 1.17869)
(-1.04298 0 1.311)
(-1.40525 0 1.44102)
(-1.74612 0 1.56593)
(-2.06636 0 1.68464)
(-2.37189 0 1.79457)
(-2.66799 0 1.89278)
(-2.95944 0 1.97623)
(-3.25023 0 2.04202)
(-3.5434 0 2.0875)
(-3.84101 0 2.11037)
(-4.14413 0 2.1087)
(-4.45282 0 2.08088)
(-4.76615 0 2.02563)
(-5.08223 0 1.94198)
(-5.39822 0 1.82925)
(-5.71038 0 1.68718)
(-6.01418 0 1.51603)
(-6.30435 0 1.31674)
(-6.57505 0 1.09118)
(-6.82022 0 0.842473)
(-7.03407 0 0.575262)
(-7.21172 0 0.296272)
(-7.34949 0 0.0147607)
(-7.44469 0 -0.257262)
(-7.5056 0 -0.509347)
(-7.53826 0 -0.730696)
(-7.5536 0 -0.910222)
(-7.56044 0 -1.02593)
(-0.257522 0 1.40675)
(-0.585522 0 1.56038)
(-0.972209 0 1.65688)
(-1.30679 0 1.75374)
(-1.62076 0 1.85053)
(-1.91431 0 1.94716)
(-2.19435 0 2.04079)
(-2.46661 0 2.12775)
(-2.7362 0 2.20407)
(-3.00733 0 2.26582)
(-3.28319 0 2.30941)
(-3.56601 0 2.33162)
(-3.85703 0 2.32971)
(-4.15652 0 2.30133)
(-4.4638 0 2.24454)
(-4.77726 0 2.15777)
(-5.0943 0 2.03986)
(-5.41141 0 1.8901)
(-5.72418 0 1.70843)
(-6.02734 0 1.49558)
(-6.31491 0 1.25337)
(-6.58042 0 0.985067)
(-6.81743 0 0.695763)
(-7.02009 0 0.392987)
(-7.18385 0 0.087484)
(-7.30664 0 -0.207051)
(-7.39312 0 -0.47739)
(-7.45333 0 -0.712564)
(-7.4948 0 -0.89968)
(-7.51577 0 -1.01693)
(-0.229221 0 1.78027)
(-0.526634 0 1.91074)
(-0.874032 0 1.9711)
(-1.16535 0 2.03492)
(-1.43738 0 2.10493)
(-1.69073 0 2.18177)
(-1.93391 0 2.26187)
(-2.1731 0 2.34054)
(-2.41352 0 2.41265)
(-2.65927 0 2.47321)
(-2.91346 0 2.51764)
(-3.17819 0 2.54185)
(-3.45469 0 2.5423)
(-3.74329 0 2.51597)
(-4.04348 0 2.46028)
(-4.35384 0 2.37308)
(-4.67199 0 2.25267)
(-4.9946 0 2.09787)
(-5.31736 0 1.90824)
(-5.63496 0 1.68418)
(-5.94115 0 1.42733)
(-6.22898 0 1.141)
(-6.49132 0 0.830698)
(-6.72137 0 0.504778)
(-6.91352 0 0.175253)
(-7.06532 0 -0.142514)
(-7.1769 0 -0.432305)
(-7.26374 0 -0.681929)
(-7.33011 0 -0.876993)
(-7.36455 0 -0.996133)
(-0.201826 0 2.1146)
(-0.463364 0 2.21994)
(-0.759121 0 2.24018)
(-0.991496 0 2.27038)
(-1.20605 0 2.3162)
(-1.40541 0 2.37762)
(-1.60034 0 2.44908)
(-1.79724 0 2.52428)
(-2.00111 0 2.59667)
(-2.21562 0 2.66011)
(-2.44342 0 2.70908)
(-2.68627 0 2.73869)
(-2.94516 0 2.74472)
(-3.22039 0 2.72356)
(-3.51153 0 2.67205)
(-3.81735 0 2.58749)
(-4.13571 0 2.46763)
(-4.46349 0 2.3108)
(-4.79653 0 2.11607)
(-5.12954 0 1.88343)
(-5.45601 0 1.61419)
(-5.76852 0 1.31162)
(-6.05917 0 0.981674)
(-6.32 0 0.633403)
(-6.54376 0 0.279524)
(-6.72675 0 -0.0634203)
(-6.86338 0 -0.374339)
(-6.97653 0 -0.639155)
(-7.06752 0 -0.842721)
(-7.11536 0 -0.964149)
(-0.182311 0 2.41296)
(-0.409386 0 2.48152)
(-0.640937 0 2.45003)
(-0.795525 0 2.44473)
(-0.934984 0 2.47085)
(-1.06584 0 2.52381)
(-1.20123 0 2.59385)
(-1.34696 0 2.67227)
(-1.50722 0 2.75086)
(-1.68471 0 2.82233)
(-1.88127 0 2.88035)
(-2.09805 0 2.91938)
(-2.33561 0 2.93466)
(-2.59409 0 2.92218)
(-2.87312 0 2.87828)
(-3.17171 0 2.79981)
(-3.48804 0 2.68396)
(-3.8193 0 2.52852)
(-4.16166 0 2.33204)
(-4.51009 0 2.09401)
(-4.85803 0 1.8152)
(-5.19754 0 1.4987)
(-5.51987 0 1.15071)
(-5.81555 0 0.780659)
(-6.07477 0 0.401506)
(-6.2903 0 0.0315566)
(-6.4566 0 -0.303046)
(-6.59658 0 -0.584187)
(-6.71312 0 -0.797012)
(-6.77507 0 -0.921058)
(-0.184454 0 2.69544)
(-0.389391 0 2.69169)
(-0.538883 0 2.58156)
(-0.587613 0 2.53882)
(-0.630127 0 2.55413)
(-0.677207 0 2.60966)
(-0.74249 0 2.6882)
(-0.829083 0 2.77841)
(-0.939428 0 2.87032)
(-1.07459 0 2.95579)
(-1.23521 0 3.02794)
(-1.42157 0 3.08081)
(-1.63358 0 3.10926)
(-1.87106 0 3.10921)
(-2.13373 0 3.07658)
(-2.4209 0 3.00794)
(-2.73117 0 2.89993)
(-3.06217 0 2.74978)
(-3.41069 0 2.55554)
(-3.77245 0 2.31611)
(-4.14127 0 2.03134)
(-4.50881 0 1.70375)
(-4.86532 0 1.33949)
(-5.19946 0 0.948242)
(-5.49803 0 0.543427)
(-5.75021 0 0.14567)
(-5.9584 0 -0.216258)
(-6.127 0 -0.516427)
(-6.27148 0 -0.739532)
(-6.34918 0 -0.866267)
(-0.256334 0 3.09561)
(-0.452656 0 2.86663)
(-0.483205 0 2.60556)
(-0.37527 0 2.5272)
(-0.293042 0 2.55055)
(-0.242195 0 2.62502)
(-0.228945 0 2.7251)
(-0.249973 0 2.83777)
(-0.305326 0 2.95158)
(-0.393765 0 3.05777)
(-0.514239 0 3.14934)
(-0.665995 0 3.22027)
(-0.847964 0 3.26509)
(-1.0596 0 3.28059)
(-1.30066 0 3.26261)
(-1.57072 0 3.20746)
(-1.86898 0 3.11109)
(-2.1935 0 2.97018)
(-2.54183 0 2.7824)
(-2.91125 0 2.54631)
(-3.29682 0 2.26024)
(-3.69049 0 1.92577)
(-4.08232 0 1.54871)
(-4.4602 0 1.13897)
(-4.80812 0 0.710055)
(-5.11096 0 0.283525)
(-5.36833 0 -0.110212)
(-5.56917 0 -0.434296)
(-5.74582 0 -0.668884)
(-5.84235 0 -0.797894)
(9.99572 0 0.142047)
(9.98142 0 0.282735)
(9.95608 0 0.424181)
(9.92076 0 0.568319)
(9.87635 0 0.716785)
(9.82323 0 0.871099)
(9.76159 0 1.03271)
(9.69166 0 1.20302)
(9.61368 0 1.38343)
(9.5279 0 1.57532)
(9.43455 0 1.78009)
(9.33386 0 1.99917)
(9.22606 0 2.23407)
(9.11137 0 2.48639)
(8.98998 0 2.75786)
(8.86207 0 3.05044)
(8.72779 0 3.36636)
(8.58721 0 3.70823)
(8.44035 0 4.07925)
(8.28715 0 4.48343)
(8.12746 0 4.92592)
(7.96113 0 5.41358)
(7.78801 0 5.9558)
(7.60829 0 6.56583)
(7.42306 0 7.26319)
(7.23705 0 8.07814)
(7.06279 0 9.0609)
(6.98644 0 10.2988)
(7.38622 0 11.9263)
(7.51912 0 14.486)
(9.9962 0 0.147249)
(9.98352 0 0.293096)
(9.96105 0 0.439703)
(9.92979 0 0.589038)
(9.89056 0 0.742753)
(9.84377 0 0.902378)
(9.78966 0 1.06936)
(9.72851 0 1.24512)
(9.66064 0 1.43104)
(9.58638 0 1.6285)
(9.50607 0 1.8389)
(9.42008 0 2.06365)
(9.32879 0 2.30424)
(9.23261 0 2.56228)
(9.13199 0 2.83947)
(9.02742 0 3.13776)
(8.91947 0 3.45936)
(8.80878 0 3.80686)
(8.69613 0 4.18341)
(8.58255 0 4.59292)
(8.46946 0 5.04035)
(8.35898 0 5.53216)
(8.2545 0 6.07694)
(8.16179 0 6.68629)
(8.09126 0 7.37608)
(8.06365 0 8.16781)
(8.11545 0 9.089)
(8.29932 0 10.1696)
(8.87278 0 11.353)
(9.28067 0 12.3655)
(9.99671 0 0.15193)
(9.9857 0 0.302419)
(9.96623 0 0.453657)
(9.93916 0 0.607632)
(9.9053 0 0.766005)
(9.86505 0 0.930301)
(9.8187 0 1.10196)
(9.76659 0 1.28239)
(9.7091 0 1.47296)
(9.64665 0 1.67502)
(9.57968 0 1.88994)
(9.5087 0 2.1191)
(9.43423 0 2.36394)
(9.3569 0 2.62601)
(9.27741 0 2.90695)
(9.19655 0 3.20859)
(9.1153 0 3.53303)
(9.03482 0 3.88267)
(8.95663 0 4.26035)
(8.88269 0 4.66954)
(8.81572 0 5.11443)
(8.75961 0 5.60025)
(8.72011 0 6.1334)
(8.70601 0 6.72155)
(8.7307 0 7.37325)
(8.81475 0 8.0961)
(8.98691 0 8.89095)
(9.25424 0 9.74602)
(9.74226 0 10.6094)
(10.32 0 11.276)
(9.99722 0 0.156036)
(9.98795 0 0.310591)
(9.97155 0 0.465868)
(9.94881 0 0.623861)
(9.92046 0 0.786225)
(9.88691 0 0.954475)
(9.8485 0 1.13003)
(9.80562 0 1.31428)
(9.7587 0 1.50854)
(9.70826 0 1.71415)
(9.65483 0 1.9324)
(9.59903 0 2.16461)
(9.54155 0 2.41217)
(9.48318 0 2.67648)
(9.42486 0 2.95909)
(9.36768 0 3.26165)
(9.31294 0 3.58601)
(9.26228 0 3.93423)
(9.21775 0 4.30869)
(9.18203 0 4.71211)
(9.15865 0 5.14761)
(9.15243 0 5.61871)
(9.16999 0 6.12916)
(9.22037 0 6.68253)
(9.31565 0 7.28118)
(9.47117 0 7.92443)
(9.7077 0 8.60499)
(10.0311 0 9.30834)
(10.5063 0 10.0239)
(11.182 0 10.6399)
(9.99775 0 0.159518)
(9.99025 0 0.317518)
(9.97699 0 0.476196)
(9.95866 0 0.637538)
(9.93592 0 0.803184)
(9.90918 0 0.974624)
(9.87882 0 1.15325)
(9.84528 0 1.3404)
(9.80905 0 1.53737)
(9.7707 0 1.7454)
(9.73087 0 1.96574)
(9.69027 0 2.19962)
(9.64974 0 2.44829)
(9.61021 0 2.71303)
(9.57281 0 2.99521)
(9.53885 0 3.29623)
(9.50994 0 3.61763)
(9.488 0 3.96105)
(9.47545 0 4.32826)
(9.47534 0 4.72113)
(9.49157 0 5.1416)
(9.52913 0 5.59151)
(9.59445 0 6.07232)
(9.69564 0 6.58459)
(9.8427 0 7.12723)
(10.0474 0 7.69646)
(10.3253 0 8.28448)
(10.6858 0 8.87734)
(11.1514 0 9.46452)
(11.793 0 9.97264)
(9.99829 0 0.162331)
(9.99258 0 0.323109)
(9.98251 0 0.484507)
(9.96863 0 0.648487)
(9.95155 0 0.816663)
(9.93168 0 0.99049)
(9.90942 0 1.17132)
(9.88525 0 1.36043)
(9.85972 0 1.55907)
(9.83344 0 1.76839)
(9.80713 0 1.98955)
(9.78159 0 2.22367)
(9.75775 0 2.47185)
(9.73668 0 2.73523)
(9.71964 0 3.01493)
(9.7081 0 3.31208)
(9.70382 0 3.62786)
(9.70893 0 3.96342)
(9.72598 0 4.3199)
(9.75813 0 4.69836)
(9.80922 0 5.09961)
(9.88397 0 5.52412)
(9.98809 0 5.97163)
(10.1284 0 6.44081)
(10.3127 0 6.92864)
(10.5498 0 7.42978)
(10.8496 0 7.93572)
(11.2186 0 8.43199)
(11.6577 0 8.90362)
(12.2325 0 9.31)
(9.99883 0 0.164432)
(9.99492 0 0.32728)
(9.98804 0 0.490677)
(9.97864 0 0.656548)
(9.96723 0 0.826465)
(9.95422 0 1.00184)
(9.94004 0 1.18397)
(9.92519 0 1.37408)
(9.91026 0 1.57332)
(9.89591 0 1.78277)
(9.8829 0 2.00347)
(9.8721 0 2.23642)
(9.86451 0 2.48257)
(9.86129 0 2.74284)
(9.86376 0 3.01812)
(9.87348 0 3.30926)
(9.89229 0 3.61703)
(9.92233 0 3.94212)
(9.96616 0 4.28508)
(10.0268 0 4.64621)
(10.1077 0 5.02543)
(10.2132 0 5.42215)
(10.3479 0 5.83495)
(10.5171 0 6.2613)
(10.7266 0 6.69712)
(10.9821 0 7.13635)
(11.2888 0 7.57051)
(11.65 0 7.98732)
(12.0599 0 8.37384)
(12.5764 0 8.71033)
(9.99937 0 0.165785)
(9.99726 0 0.32996)
(9.99356 0 0.4946)
(9.98861 0 0.661579)
(9.98283 0 0.83242)
(9.97662 0 1.00848)
(9.97042 0 1.19099)
(9.96476 0 1.3811)
(9.96023 0 1.57987)
(9.95753 0 1.78829)
(9.95747 0 2.00728)
(9.96093 0 2.23769)
(9.96896 0 2.4803)
(9.98274 0 2.73584)
(10.0036 0 3.00493)
(10.0332 0 3.28813)
(10.0732 0 3.58586)
(10.1258 0 3.89837)
(10.1934 0 4.22567)
(10.2786 0 4.56748)
(10.3845 0 4.92303)
(10.5146 0 5.29099)
(10.6725 0 5.66924)
(10.8622 0 6.05461)
(11.0874 0 6.44272)
(11.3514 0 6.82769)
(11.6567 0 7.20213)
(12.0042 0 7.55676)
(12.3869 0 7.88185)
(12.854 0 8.16687)
(9.9999 0 0.166359)
(9.99956 0 0.331086)
(9.999 0 0.496185)
(9.99845 0 0.663465)
(9.99821 0 0.834388)
(9.99868 0 1.01025)
(10.0003 0 1.1922)
(10.0036 0 1.38131)
(10.0092 0 1.57856)
(10.0178 0 1.78481)
(10.0301 0 2.00086)
(10.0472 0 2.22741)
(10.0701 0 2.46508)
(10.0999 0 2.71438)
(10.1379 0 2.97571)
(10.1857 0 3.24934)
(10.2449 0 3.53536)
(10.3175 0 3.83366)
(10.4056 0 4.14383)
(10.5115 0 4.46511)
(10.6378 0 4.7963)
(10.7872 0 5.13562)
(10.9622 0 5.48058)
(11.1656 0 5.8279)
(11.3997 0 6.17334)
(11.666 0 6.51172)
(11.9653 0 6.83698)
(12.2971 0 7.14221)
(12.6543 0 7.42018)
(13.0793 0 7.66471)
(10.0004 0 0.166128)
(10.0018 0 0.330608)
(10.0043 0 0.495359)
(10.0081 0 0.662113)
(10.0132 0 0.832261)
(10.0202 0 1.00703)
(10.0294 0 1.18748)
(10.0414 0 1.37461)
(10.0567 0 1.56928)
(10.0761 0 1.77226)
(10.1003 0 1.9842)
(10.1303 0 2.20567)
(10.167 0 2.43711)
(10.2116 0 2.67884)
(10.2653 0 2.93104)
(10.3295 0 3.19375)
(10.4058 0 3.46677)
(10.4959 0 3.74969)
(10.6015 0 4.0418)
(10.7246 0 4.34203)
(10.8671 0 4.64891)
(11.031 0 4.96044)
(11.2182 0 5.27408)
(11.4302 0 5.58667)
(11.6683 0 5.8944)
(11.9329 0 6.19291)
(12.2236 0 6.47734)
(12.5392 0 6.74256)
(12.8732 0 6.98337)
(13.2628 0 7.19609)
(10.0009 0 0.165073)
(10.004 0 0.328489)
(10.0095 0 0.492069)
(10.0174 0 0.657457)
(10.0278 0 0.825969)
(10.0411 0 0.998746)
(10.0575 0 1.17678)
(10.0778 0 1.36095)
(10.1024 0 1.55204)
(10.132 0 1.75068)
(10.1673 0 1.95742)
(10.2093 0 2.17267)
(10.2588 0 2.39672)
(10.317 0 2.62972)
(10.3849 0 2.87167)
(10.4637 0 3.12237)
(10.555 0 3.38144)
(10.66 0 3.64824)
(10.7802 0 3.92184)
(10.9171 0 4.20102)
(11.0722 0 4.48415)
(11.2468 0 4.76923)
(11.4421 0 5.05381)
(11.6589 0 5.33502)
(11.8976 0 5.60959)
(12.158 0 5.87393)
(12.439 0 6.12425)
(12.7391 0 6.35679)
(13.0524 0 6.5679)
(13.4126 0 6.75541)
(10.0014 0 0.163183)
(10.0061 0 0.324705)
(10.0145 0 0.486282)
(10.0264 0 0.649462)
(10.0418 0 0.815474)
(10.061 0 0.985378)
(10.0845 0 1.16008)
(10.1125 0 1.34035)
(10.1459 0 1.52688)
(10.185 0 1.7202)
(10.2307 0 1.92072)
(10.2837 0 2.12873)
(10.3449 0 2.34439)
(10.4153 0 2.56768)
(10.4958 0 2.79845)
(10.5875 0 3.03635)
(10.6916 0 3.28082)
(10.8091 0 3.5311)
(10.9412 0 3.78614)
(11.0891 0 4.04462)
(11.2537 0 4.30492)
(11.4358 0 4.56512)
(11.6362 0 4.82299)
(11.8549 0 5.07601)
(12.0919 0 5.32144)
(12.3466 0 5.55641)
(12.6175 0 5.77803)
(12.9031 0 5.98354)
(13.1984 0 6.17045)
(13.534 0 6.33743)
(10.0019 0 0.160451)
(10.0081 0 0.319246)
(10.0193 0 0.477986)
(10.035 0 0.638116)
(10.0551 0 0.800777)
(10.08 0 0.96694)
(10.11 0 1.13742)
(10.1454 0 1.3129)
(10.1868 0 1.49396)
(10.2348 0 1.68103)
(10.29 0 1.87442)
(10.3531 0 2.07429)
(10.4248 0 2.28068)
(10.506 0 2.49345)
(10.5976 0 2.71234)
(10.7003 0 2.93687)
(10.8152 0 3.16638)
(10.9431 0 3.40002)
(11.0847 0 3.63671)
(11.241 0 3.87512)
(11.4125 0 4.11371)
(11.5996 0 4.35071)
(11.8025 0 4.58415)
(12.0211 0 4.81189)
(12.255 0 5.03167)
(12.5031 0 5.24125)
(12.7642 0 5.43843)
(13.0366 0 5.62123)
(13.316 0 5.78793)
(13.6308 0 5.93774)
(10.0023 0 0.156879)
(10.01 0 0.312116)
(10.0237 0 0.46719)
(10.043 0 0.62344)
(10.0677 0 0.781912)
(10.0979 0 0.943492)
(10.1339 0 1.1089)
(10.1761 0 1.27874)
(10.2251 0 1.45348)
(10.2811 0 1.63346)
(10.3449 0 1.81889)
(10.417 0 2.00984)
(10.4981 0 2.20623)
(10.5888 0 2.40786)
(10.6899 0 2.61434)
(10.802 0 2.82514)
(10.9258 0 3.03954)
(11.062 0 3.25665)
(11.2111 0 3.47541)
(11.3736 0 3.69454)
(11.5498 0 3.91263)
(11.7398 0 4.1281)
(11.9435 0 4.33925)
(12.1605 0 4.54428)
(12.3902 0 4.74139)
(12.6314 0 4.92883)
(12.883 0 5.10495)
(13.1434 0 5.26832)
(13.409 0 5.41777)
(13.706 0 5.55285)
(10.0027 0 0.152475)
(10.0118 0 0.303331)
(10.0279 0 0.453922)
(10.0506 0 0.605477)
(10.0794 0 0.758949)
(10.1145 0 0.915134)
(10.1561 0 1.07466)
(10.2046 0 1.23805)
(10.2603 0 1.40569)
(10.3237 0 1.57783)
(10.3952 0 1.75458)
(10.4753 0 1.93594)
(10.5645 0 2.12176)
(10.6634 0 2.31175)
(10.7726 0 2.50548)
(10.8924 0 2.70236)
(11.0235 0 2.90167)
(11.1662 0 3.10253)
(11.3209 0 3.30391)
(11.4878 0 3.50465)
(11.667 0 3.70347)
(11.8582 0 3.899)
(12.0613 0 4.08978)
(12.2757 0 4.27437)
(12.5006 0 4.45131)
(12.7349 0 4.61925)
(12.9775 0 4.77697)
(13.227 0 4.92345)
(13.4803 0 5.05787)
(13.7621 0 5.18002)
(10.0031 0 0.147253)
(10.0135 0 0.29292)
(10.0318 0 0.438229)
(10.0575 0 0.584298)
(10.0902 0 0.731985)
(10.1298 0 0.882001)
(10.1765 0 1.03489)
(10.2307 0 1.1911)
(10.2926 0 1.35092)
(10.3625 0 1.51453)
(10.4407 0 1.68198)
(10.5278 0 1.8532)
(10.6241 0 2.02798)
(10.7299 0 2.20598)
(10.8458 0 2.38675)
(10.972 0 2.56968)
(11.1088 0 2.75406)
(11.2565 0 2.93905)
(11.4152 0 3.12369)
(11.5849 0 3.30695)
(11.7656 0 3.4877)
(11.9568 0 3.66476)
(12.1583 0 3.83692)
(12.3693 0 4.003)
(12.5891 0 4.16186)
(12.8166 0 4.31247)
(13.0507 0 4.45391)
(13.2902 0 4.58545)
(13.5326 0 4.70654)
(13.8011 0 4.81709)
(10.0035 0 0.141232)
(10.015 0 0.280921)
(10.0354 0 0.420172)
(10.0639 0 0.559991)
(10.1001 0 0.701145)
(10.1437 0 0.844261)
(10.1951 0 0.989807)
(10.2544 0 1.13814)
(10.3217 0 1.2895)
(10.3973 0 1.444)
(10.4815 0 1.60162)
(10.5746 0 1.76225)
(10.6768 0 1.92563)
(10.7884 0 2.09142)
(10.9098 0 2.25912)
(11.041 0 2.42817)
(11.1822 0 2.59787)
(11.3335 0 2.76745)
(11.4949 0 2.93605)
(11.6662 0 3.10273)
(11.8472 0 3.26654)
(12.0375 0 3.42647)
(12.2366 0 3.58153)
(12.4438 0 3.73077)
(12.6582 0 3.87331)
(12.8791 0 4.00833)
(13.1052 0 4.13518)
(13.3357 0 4.25333)
(13.5681 0 4.36241)
(13.8249 0 4.4624)
(10.0038 0 0.134436)
(10.0164 0 0.267385)
(10.0386 0 0.399829)
(10.0697 0 0.532666)
(10.109 0 0.666575)
(10.1564 0 0.802103)
(10.2118 0 0.939645)
(10.2756 0 1.07949)