/*--------------------------------*- C++ -*----------------------------------*\
  =========                 |
  \\      /  F ield         | OpenFOAM: The Open Source CFD Toolbox
   \\    /   O peration     | Website:  https://openfoam.org
    \\  /    A nd           | Version:  dev
     \\/     M anipulation  |
\*---------------------------------------------------------------------------*/
FoamFile
{
    version     2.0;
    format      ascii;
    class       volScalarField;
    location    "8.6";
    object      p;
}
// * * * * * * * * * * * * * * * * * * * * * * * * * * * * * * * * * * * * * //

dimensions      [0 2 -2 0 0 0 0];

internalField   nonuniform List<scalar> 
2790
(
146.71
146.617
146.885
147.456
148.236
149.193
150.326
151.632
153.109
154.75
156.549
158.5
160.594
162.819
165.16
167.596
170.1
172.639
175.171
177.645
180.003
182.181
184.111
185.732
186.991
187.865
188.301
188.357
188.407
188.62
146.507
146.525
146.817
147.385
148.162
149.116
150.244
151.544
153.014
154.646
156.437
158.377
160.46
162.674
165.004
167.429
169.925
172.459
174.989
177.467
179.835
182.03
183.985
185.633
186.918
187.792
188.189
188.243
188.376
188.66
146.309
146.396
146.708
147.265
148.029
148.97
150.083
151.365
152.813
154.421
156.184
158.093
160.141
162.317
164.605
166.987
169.439
171.93
174.422
176.869
179.219
181.412
183.384
185.074
186.425
187.4
187.993
188.348
188.664
188.962
146.084
146.202
146.526
147.075
147.824
148.749
149.842
151.1
152.52
154.094
155.818
157.683
159.682
161.803
164.031
166.349
168.734
171.157
173.584
175.974
178.281
180.453
182.435
184.174
185.629
186.781
187.649
188.319
188.872
189.391
145.823
145.955
146.288
146.829
147.561
148.465
149.533
150.76
152.142
153.673
155.348
157.157
159.093
161.143
163.295
165.531
167.829
170.164
172.506
174.819
177.064
179.199
181.182
182.972
184.542
185.885
187.015
187.977
188.788
189.535
145.522
145.66
145.995
146.527
147.239
148.117
149.153
150.342
151.679
153.159
154.774
156.517
158.378
160.346
162.407
164.545
166.74
168.969
171.206
173.422
175.584
177.662
179.624
181.445
183.108
184.609
185.955
187.161
188.181
189.099
145.179
145.319
145.65
146.169
146.858
147.706
148.705
149.85
151.136
152.556
154.103
155.769
157.544
159.417
161.374
163.4
165.476
167.582
169.695
171.791
173.846
175.837
177.745
179.555
181.261
182.862
184.356
185.735
186.899
187.946
144.795
144.932
145.256
145.759
146.422
147.236
148.193
149.289
150.517
151.87
153.34
154.92
156.598
158.364
160.205
162.104
164.045
166.009
167.977
169.929
171.846
173.714
175.521
177.263
178.942
180.561
182.116
183.588
184.838
185.988
144.369
144.502
144.816
145.298
145.933
146.709
147.62
148.661
149.824
151.103
152.489
153.974
155.546
157.194
158.905
160.664
162.453
164.257
166.056
167.835
169.579
171.277
172.925
174.526
176.088
177.623
179.131
180.602
181.873
183.111
143.902
144.03
144.331
144.791
145.394
146.128
146.989
147.97
149.064
150.263
151.557
152.939
154.396
155.916
157.486
159.09
160.711
162.334
163.94
165.513
167.042
168.516
169.935
171.303
172.636
173.955
175.276
176.614
177.814
179.119
143.397
143.518
143.804
144.239
144.807
145.498
146.305
147.221
148.24
149.353
150.55
151.822
153.155
154.538
155.955
157.391
158.829
160.25
161.637
162.972
164.24
165.43
166.538
167.566
168.531
169.46
170.391
171.39
172.353
173.671
142.855
142.969
143.237
143.646
144.177
144.82
145.57
146.419
147.359
148.381
149.475
150.63
151.833
153.07
154.326
155.582
156.821
158.022
159.164
160.226
161.188
162.031
162.739
163.306
163.733
164.044
164.288
164.597
164.98
166.154
142.278
142.384
142.634
143.014
143.506
144.1
144.79
145.568
146.426
147.353
148.34
149.373
150.439
151.524
152.609
153.676
154.703
155.667
156.542
157.301
157.914
158.349
158.572
158.547
158.245
157.649
156.776
155.787
154.842
155.348
141.668
141.767
141.997
142.346
142.797
143.34
143.968
144.673
145.445
146.275
147.151
148.058
148.984
149.911
150.819
151.688
152.494
153.208
153.799
154.231
154.461
154.439
154.1
153.369
152.148
150.321
147.761
144.465
140.524
138.494
141.029
141.119
141.329
141.646
142.055
142.545
143.109
143.739
144.424
145.154
145.916
146.696
147.477
148.243
148.97
149.637
150.215
150.671
150.967
151.058
150.885
150.374
149.43
147.916
145.638
142.309
137.47
130.463
120.018
107.822
0.597546
0.577755
0.508682
0.412934
0.31353
0.222478
0.144621
0.0815551
0.0333081
-0.00125995
-0.0231414
-0.0346148
-0.0382238
-0.0362977
-0.0309713
-0.0241417
-0.0173198
-0.0115321
-0.00733154
-0.00486024
-0.00391427
-0.00403078
-0.00463794
-0.00521887
-0.0054387
-0.00519381
-0.00455392
-0.00364049
-0.00252322
-0.00119582
0.549222
0.526856
0.461819
0.37349
0.281815
0.197318
0.124559
0.0653422
0.0201909
-0.0108953
-0.0302333
-0.0398213
-0.0418596
-0.0385638
-0.0320802
-0.0243469
-0.0169051
-0.0107796
-0.00649301
-0.00413289
-0.00341358
-0.00377664
-0.00457693
-0.00526038
-0.00549625
-0.00522302
-0.00455712
-0.0036442
-0.00254059
-0.00104925
0.494971
0.468255
0.405793
0.324483
0.241127
0.164168
0.0976566
0.0434717
0.00221665
-0.0265041
-0.0432208
-0.0500153
-0.0493013
-0.043344
-0.0344169
-0.0246228
-0.0156062
-0.0084551
-0.00372743
-0.00147559
-0.00127017
-0.00231561
-0.00373782
-0.00482531
-0.0052159
-0.00495104
-0.00427367
-0.00340191
-0.00237104
-0.000979404
0.441594
0.410463
0.349772
0.274486
0.198878
0.129141
0.0687816
0.0196765
-0.017438
-0.0427831
-0.0568932
-0.0611119
-0.0575888
-0.048722
-0.0370816
-0.0249964
-0.0142379
-0.00598968
-0.000860119
0.00114229
0.000638767
-0.00125006
-0.00337349
-0.00484889
-0.00533409
-0.00502627
-0.00432235
-0.00351084
-0.00261979
-0.00143478
0.402479
0.367248
0.308185
0.23728
0.167368
0.102791
0.0468243
0.0013499
-0.0327505
-0.055452
-0.067536
-0.0701982
-0.0646985
-0.0535008
-0.0396293
-0.0256548
-0.0134598
-0.00431029
0.00112981
0.00288176
0.00172545
-0.000892452
-0.00356015
-0.00523925
-0.00563604
-0.00510437
-0.00421837
-0.00335125
-0.00248091
-0.00146942
0.38986
0.349556
0.29171
0.222506
0.154891
0.0921211
0.0376112
-0.00672965
-0.0399581
-0.0621655
-0.0742612
-0.0761929
-0.0694693
-0.0568566
-0.0416977
-0.0265984
-0.0134705
-0.0036392
0.00216424
0.00378618
0.00219107
-0.00089989
-0.00390964
-0.00574295
-0.00614708
-0.00553857
-0.00456424
-0.00366491
-0.00287365
-0.00163345
0.41461
0.366346
0.307719
0.235938
0.165599
0.100278
0.0435585
-0.00257634
-0.0370921
-0.0599856
-0.0727174
-0.076513
-0.0710449
-0.058642
-0.0434588
-0.0282652
-0.0150307
-0.0051101
0.000758649
0.00257796
0.00130984
-0.00151457
-0.00438135
-0.00616203
-0.00655349
-0.00593056
-0.00494206
-0.00413141
-0.00354123
-0.00185297
0.481335
0.42443
0.357019
0.276732
0.197963
0.125783
0.063712
0.0134938
-0.0243405
-0.0504287
-0.0665033
-0.0728022
-0.0692511
-0.0588713
-0.0451166
-0.0308417
-0.0180785
-0.00820304
-0.0020158
0.000377533
-0.000297949
-0.00272973
-0.00545075
-0.00726719
-0.00769226
-0.00699079
-0.00588819
-0.00511881
-0.00455856
-0.00210307
0.591843
0.517358
0.43127
0.334987
0.242826
0.160341
0.0908057
0.0353296
-0.00707366
-0.0380463
-0.0578048
-0.0664262
-0.0655474
-0.0577816
-0.0462391
-0.0336283
-0.0219132
-0.0124182
-0.00599111
-0.00295512
-0.00295672
-0.00498829
-0.00763012
-0.00951072
-0.0098785
-0.00889272
-0.0074461
-0.00648647
-0.00564623
-0.00235722
0.73108
0.625983
0.510544
0.39235
0.285306
0.192588
0.114813
0.0526534
0.00568556
-0.0276993
-0.0493224
-0.0601094
-0.0615909
-0.0562553
-0.0470507
-0.036492
-0.0262578
-0.0174125
-0.0107977
-0.00708756
-0.00647377
-0.00833735
-0.0112364
-0.0134034
-0.0136389
-0.0120162
-0.00977468
-0.00818243
-0.0066968
-0.00260046
0.868312
0.71735
0.575007
0.43279
0.308352
0.206114
0.124718
0.0611501
0.0131474
-0.0212897
-0.0439929
-0.0561049
-0.0590409
-0.0553213
-0.0480494
-0.0396313
-0.0311944
-0.0231738
-0.0162684
-0.0116937
-0.0104895
-0.012577
-0.0163585
-0.0192999
-0.019411
-0.0166643
-0.0129517
-0.0101423
-0.00767229
-0.00282524
0.985039
0.778952
0.595504
0.435282
0.303534
0.198972
0.117687
0.0558369
0.0103321
-0.0221436
-0.044085
-0.056226
-0.0592314
-0.0557084
-0.0495023
-0.0431908
-0.036956
-0.0299408
-0.0224193
-0.016471
-0.0145398
-0.0173759
-0.0230294
-0.0276068
-0.0277214
-0.0231521
-0.0169771
-0.0122484
-0.00854427
-0.00302598
1.02253
0.74684
0.534327
0.369039
0.24532
0.154025
0.0844494
0.0316401
-0.00578734
-0.0320114
-0.0508658
-0.0618559
-0.0633356
-0.0578777
-0.0513164
-0.0471283
-0.0439036
-0.0382499
-0.0294512
-0.0210442
-0.0179156
-0.0221682
-0.0312053
-0.0388515
-0.0392977
-0.0318747
-0.0217514
-0.0142708
-0.00927545
-0.00319859
0.817749
0.460851
0.300934
0.196357
0.114933
0.0633808
0.022867
-0.01273
-0.0359926
-0.0506278
-0.0642699
-0.0741221
-0.0725769
-0.0617744
-0.0524094
-0.0506332
-0.0522556
-0.0489147
-0.0377486
-0.024845
-0.0194876
-0.0260342
-0.0407448
-0.05377
-0.0552196
-0.0433923
-0.0270077
-0.0157411
-0.00979337
-0.00334085
0.158024
-0.272019
-0.209631
-0.106904
-0.100668
-0.0663996
-0.054594
-0.0758216
-0.0845959
-0.0788269
-0.0831604
-0.0934178
-0.0879453
-0.0666428
-0.0505139
-0.0524796
-0.0630588
-0.0642376
-0.0487769
-0.0274704
-0.017733
-0.0276591
-0.0514063
-0.0734097
-0.077124
-0.0585683
-0.0322022
-0.0157334
-0.0099284
-0.00345245
140.35
140.431
140.619
140.904
141.269
141.704
142.202
142.753
143.348
143.975
144.62
145.268
145.902
146.501
147.044
147.503
147.846
148.038
148.032
147.771
147.185
146.176
144.612
142.299
138.938
134.034
126.668
114.928
92.7979
33.1275
139.623
139.694
139.86
140.11
140.429
140.807
141.236
141.707
142.208
142.728
143.253
143.765
144.247
144.676
145.029
145.276
145.382
145.305
144.995
144.385
143.391
141.901
139.755
136.722
132.445
126.339
117.371
103.811
84.2919
55.826
138.853
138.915
139.057
139.271
139.542
139.862
140.22
140.608
141.014
141.426
141.827
142.202
142.529
142.788
142.951
142.986
142.856
142.516
141.91
140.967
139.596
137.676
135.043
131.466
126.62
120.049
111.162
99.3192
85.0638
68.3925
138.043
138.094
138.213
138.39
138.612
138.871
139.158
139.462
139.771
140.073
140.351
140.587
140.762
140.851
140.826
140.654
140.296
139.705
138.823
137.576
135.875
133.6
130.601
126.681
121.591
115.039
106.727
96.3203
83.7529
68.5826
137.193
137.234
137.328
137.468
137.641
137.839
138.053
138.273
138.485
138.677
138.832
138.932
138.956
138.879
138.672
138.302
137.729
136.905
135.773
134.263
132.287
129.741
126.494
122.39
117.249
110.871
103.053
93.5521
82.1998
69.2015
136.306
136.336
136.406
136.508
136.632
136.769
136.911
137.046
137.162
137.246
137.28
137.247
137.124
136.887
136.508
135.952
135.181
134.147
132.798
131.066
128.876
126.136
122.741
118.571
113.497
107.382
100.104
91.5624
81.7471
71.0699
135.385
135.405
135.45
135.514
135.589
135.665
135.735
135.787
135.808
135.786
135.703
135.541
135.278
134.891
134.35
133.623
132.674
131.457
129.924
128.017
125.669
122.805
119.344
115.199
110.282
104.513
97.839
90.2467
81.7795
72.7732
134.433
134.442
134.463
134.49
134.516
134.532
134.531
134.502
134.432
134.307
134.111
133.827
133.432
132.904
132.215
131.335
130.229
128.858
127.176
125.136
122.681
119.754
116.294
112.241
107.542
102.156
96.0696
89.3027
81.9047
74.1482
133.453
133.452
133.449
133.439
133.417
133.376
133.306
133.198
133.039
132.816
132.514
132.114
131.597
130.94
130.119
129.104
127.864
126.366
124.569
122.435
119.919
116.978
113.568
109.653
105.201
100.2
94.6541
88.5981
82.0853
75.3436
132.45
132.439
132.412
132.367
132.298
132.201
132.065
131.881
131.638
131.323
130.921
130.414
129.786
129.013
128.074
126.944
125.593
123.994
122.114
119.921
117.381
114.463
111.14
107.389
103.197
98.5648
93.5108
88.0739
82.3072
76.3959
131.428
131.408
131.358
131.278
131.165
131.013
130.815
130.56
130.238
129.836
129.341
128.738
128.008
127.133
126.093
124.865
123.426
121.751
119.815
117.592
115.059
112.194
108.98
105.407
101.474
97.1897
92.578
87.6782
82.5384
77.3071
130.392
130.363
130.291
130.179
130.023
129.82
129.562
129.24
128.844
128.363
127.784
127.093
126.274
125.311
124.186
122.879
121.371
119.642
117.673
115.446
112.942
110.15
107.06
103.671
99.9872
96.024
91.8062
87.3704
82.7584
78.0895
129.348
129.309
129.218
129.074
128.878
128.627
128.314
127.93
127.467
126.913
126.259
125.49
124.593
123.555
122.359
120.99
119.432
117.669
115.688
113.474
111.017
108.311
105.353
102.145
98.6976
95.027
91.1579
87.1228
82.9576
78.7585
128.301
128.254
128.143
127.97
127.737
127.442
127.077
126.637
126.112
125.494
124.772
123.935
122.973
121.872
120.62
119.204
117.611
115.831
113.853
111.668
109.271
106.659
103.834
100.801
97.5732
94.167
90.6054
86.9168
83.1315
79.3274
127.257
127.202
127.073
126.874
126.607
126.27
125.859
125.367
124.787
124.112
123.331
122.437
121.419
120.267
118.972
117.522
115.91
114.126
112.164
110.019
107.689
105.174
102.48
99.6134
96.5875
93.4188
90.1278
86.7391
83.2782
79.8084
126.222
126.161
126.016
125.791
125.493
125.119
124.667
124.129
123.5
122.774
121.944
121.001
119.938
118.746
117.419
115.947
114.326
112.549
110.613
108.515
106.257
103.841
101.272
98.5609
95.7193
92.7627
89.7096
86.5809
83.3979
80.2125
125.204
125.136
124.976
124.73
124.403
123.996
123.506
122.928
122.257
121.488
120.615
119.633
118.533
117.312
115.962
114.479
112.859
111.097
109.194
107.148
104.963
102.643
100.194
97.626
94.9511
92.1834
89.3391
86.4359
83.492
80.5497
124.209
124.136
123.962
123.696
123.344
122.908
122.385
121.772
121.065
120.259
119.352
118.337
117.21
115.967
114.604
113.117
111.505
109.765
107.899
105.908
103.796
101.567
99.2302
96.7938
94.2691
91.669
89.0077
86.3005
83.5624
80.8285
123.245
123.166
122.981
122.697
122.323
121.861
121.31
120.667
119.929
119.093
118.157
117.117
115.97
114.713
113.343
111.86
110.261
108.548
106.722
104.786
102.745
100.603
98.3695
96.0524
93.6622
91.2104
88.7094
86.1722
83.6118
81.0571
122.319
122.235
122.04
121.74
121.347
120.863
120.287
119.619
118.855
117.996
117.037
115.978
114.817
113.552
112.182
110.706
109.126
107.442
105.657
103.775
101.801
99.7406
97.6015
95.3921
93.1217
90.8006
88.4397
86.0502
83.6431
81.2424
121.438
121.35
121.146
120.833
120.423
119.92
119.324
118.634
117.85
116.971
115.996
114.923
113.753
112.485
111.118
109.654
108.095
106.441
104.698
102.868
100.957
98.9714
96.9181
94.805
92.6408
90.4345
88.1956
85.934
83.6591
81.3909
120.61
120.519
120.307
119.982
119.558
119.039
118.427
117.72
116.919
116.025
115.037
113.956
112.781
111.513
110.154
108.704
107.166
105.544
103.84
102.059
100.207
98.2891
96.3129
94.2854
92.2146
90.1085
87.9756
85.8245
83.6632
81.5086
119.843
119.75
119.531
119.196
118.76
118.228
117.601
116.881
116.067
115.162
114.165
113.078
111.902
110.638
109.288
107.853
106.338
104.745
103.079
101.344
99.5448
97.6883
95.7806
93.8285
91.8392
89.82
87.7785
85.7221
83.6581
81.6004
119.146
119.05
118.825
118.482
118.036
117.493
116.855
116.123
115.3
114.387
113.384
112.295
111.12
109.861
108.521
107.103
105.61
104.045
102.413
100.719
98.9683
97.1659
95.3182
93.4316
91.5127
89.5682
87.6048
85.6292
83.6478
81.6724
118.527
118.428
118.198
117.847
117.392
116.84
116.193
115.454
114.623
113.704
112.698
111.608
110.435
109.183
107.855
106.452
104.979
103.441
101.84
100.183
98.4734
96.718
94.922
93.0915
91.2325
89.3512
87.4536
85.5458
83.6335
81.7266
117.996
117.894
117.657
117.3
116.837
116.278
115.625
114.879
114.043
113.12
112.113
111.024
109.855
108.61
107.292
105.904
104.45
102.934
101.361
99.7348
98.0615
96.3458
94.5935
92.8099
91.0009
89.1721
87.3291
85.4774
83.6224
81.7723
117.561
117.456
117.212
116.846
116.377
115.812
115.153
114.402
113.563
112.638
111.63
110.542
109.378
108.139
106.831
105.456
104.018
102.521
100.971
99.3715
97.7276
96.0445
94.3274
92.5818
90.8128
89.026
87.2263
85.419
83.6089
81.8029
117.235
117.124
116.871
116.499
116.025
115.456
114.792
114.038
113.196
112.269
111.262
110.176
109.015
107.783
106.482
105.118
103.693
102.213
100.68
99.1017
97.481
95.8235
94.1341
92.4179
90.6802
88.9259
87.1599
85.3871
83.6123
81.8414
117.033
116.898
116.628
116.25
115.774
115.202
114.536
113.78
112.937
112.011
111.004
109.92
108.763
107.535
106.241
104.884
103.469
101.999
100.48
98.9152
97.3103
95.6699
93.999
92.3025
90.5853
88.8523
87.1082
85.3577
83.6051
81.8554
117.015
116.816
116.518
116.133
115.654
115.079
114.41
113.652
112.809
111.882
110.876
109.794
108.639
107.415
106.126
104.775
103.366
101.904
100.393
98.8381
97.2435
95.6143
93.9552
92.271
90.5667
88.8469
87.1163
85.3794
83.6404
81.9036
-50.4647
-30.1982
-11.1259
35.4372
27.9442
15.8099
50.8512
38.7338
27.482
52.287
41.8495
33.7872
56.6307
48.3299
41.5589
61.021
54.1019
48.2008
64.2999
58.411
53.3552
66.9025
61.8719
57.5578
69.0972
64.7605
61.048
70.9503
67.1682
63.9385
72.509
69.1762
66.3373
73.8227
70.8585
68.3386
74.932
72.2729
70.0158
75.8691
73.4651
71.4267
76.6606
74.4717
72.6168
77.3283
75.3222
73.6227
77.8906
76.0407
74.4734
78.3626
76.6469
75.1926
78.7574
77.1572
75.7999
79.0861
77.5855
76.3115
79.358
77.9435
76.7411
79.582
78.2416
77.1004
79.7648
78.4877
77.3989
79.9142
78.6912
77.6465
80.033
78.8553
77.8478
80.1328
78.9925
78.0151
80.2051
79.0946
78.142
80.2782
79.1906
78.2552
80.3126
79.2412
78.3198
80.3818
79.3245
78.4096
-3.01646
-2.93649
-1.48542
-0.346916
-0.308079
-0.206829
-0.148558
-0.180729
-0.163592
-0.10045
-0.0878394
-0.113548
-0.11351
-0.0760815
-0.0435378
-0.0505096
-0.076976
-0.086549
-0.0632995
-0.0264627
-0.00857371
-0.0240213
-0.0624752
-0.099508
-0.108022
-0.0792188
-0.0364635
-0.0124315
-0.00920109
-0.00353814
2.02778
-0.840056
0.756383
0.23189
-1.14045
-0.881806
-0.215235
-0.197001
-0.173869
-0.0714225
-0.0949341
-0.183354
-0.194305
-0.0981822
-0.00944958
-0.0276808
-0.0895865
-0.12123
-0.0887649
-0.0237965
0.00967219
-0.0145953
-0.0759976
-0.136726
-0.153749
-0.108762
-0.0380152
-0.00197868
-0.006141
-0.00361886
13.1998
4.84246
2.01349
-0.445872
-0.741074
0.836631
0.983265
-0.443413
-0.792705
-0.412093
-0.0730064
-0.172514
-0.1959
-0.018266
0.0792999
-0.00254002
-0.137256
-0.20715
-0.146568
-0.0124442
0.0573947
0.0163419
-0.081301
-0.179692
-0.214238
-0.148946
-0.0334351
0.0226886
0.00276082
-0.00378057
23.0057
13.107
7.21045
3.44154
1.7434
1.24714
-0.0205529
-0.697868
-0.250575
0.921861
0.758025
-0.338623
-0.708459
-0.458079
0.0717799
0.100879
-0.136244
-0.264881
-0.161496
0.0601116
0.140917
0.0534024
-0.102847
-0.260079
-0.326383
-0.233087
-0.0218472
0.0717663
0.0237415
-0.00429678
32.1932
22.4091
15.079
9.79138
6.16776
3.70288
1.82409
0.841066
0.603895
0.565781
0.0379908
-0.56448
-0.59718
0.468609
0.981553
0.289402
-0.296854
-0.608012
-0.527139
-0.0473317
0.236881
0.130904
-0.0973869
-0.322765
-0.420802
-0.250857
0.0210963
0.160443
0.0642675
-0.00592045
40.1861
31.2452
23.348
16.9131
11.9897
8.35217
5.68676
3.81133
2.54368
1.62413
0.854082
0.26678
0.0845533
0.425527
0.422858
0.131633
-0.339152
-0.614872
-0.291772
0.505106
0.65398
0.197106
-0.14876
-0.468426
-0.684773
-0.589674
-0.00394113
0.288095
0.12813
-0.0110473
46.7105
38.8926
31.1059
24.2092
18.5842
14.1304
10.6125
7.86075
5.76765
4.19504
2.97735
2.02951
1.41728
1.12914
0.86906
0.513088
0.0371739
-0.245525
-0.0975397
0.259869
0.393781
0.206451
-0.122811
-0.497391
-0.729473
-0.406079
0.371882
0.547688
0.205605
-0.0240916
52.0243
45.2831
38.0159
31.1797
25.2952
20.3517
16.2138
12.7939
10.0281
7.8174
6.0343
4.60134
3.51934
2.7562
2.15263
1.55291
0.965125
0.570113
0.477943
0.564822
0.580406
0.366682
0.000178527
-0.364504
-0.540146
-0.303688
0.164329
0.396235
0.304164
-0.0641465
56.359
50.5349
43.9429
37.4637
31.6432
26.5317
22.0641
18.2054
14.9265
12.1713
9.86489
7.95118
6.40188
5.17219
4.15684
3.25578
2.46764
1.87202
1.51722
1.32865
1.13162
0.803721
0.393273
0.0286977
-0.151705
-0.0437294
0.238957
0.392489
0.260572
-0.303208
59.8967
54.8237
48.9152
42.9257
37.3694
32.3244
27.7615
23.6763
20.0707
16.9261
14.2062
11.8734
9.89566
8.23181
6.81689
5.59033
4.53561
3.67692
3.02745
2.53474
2.08876
1.61028
1.11853
0.694817
0.429469
0.373634
0.446783
0.432955
0.171976
-0.51815
62.8025
58.3391
53.0547
47.583
42.3849
37.544
33.0474
28.9068
25.1433
21.7627
18.7533
16.0951
13.7653
11.7354
9.96602
8.41797
7.07025
5.92208
4.96879
4.17282
3.46715
2.79899
2.1687
1.62081
1.2087
0.953431
0.791817
0.575325
0.170485
-0.593046
65.2095
61.2432
56.5021
51.5208
46.705
42.1336
37.7999
33.721
29.9267
26.436
23.2526
20.3708
17.7798
15.4632
13.3979
11.559
9.92827
8.49609
7.25101
6.16573
5.19791
4.31115
3.49753
2.77727
2.17697
1.69986
1.29658
0.86564
0.306406
-0.522268
67.2176
63.6604
59.3834
54.8429
50.3962
46.1138
41.9898
38.0414
34.3005
30.7918
27.528
24.5132
21.7459
19.2194
16.9219
14.8392
12.9579
11.2674
9.75562
8.40249
7.18022
6.06341
5.04136
4.1194
3.30653
2.5965
1.95116
1.30102
0.575573
-0.331472
68.9022
65.6854
61.8027
57.6494
53.5416
49.5417
45.6424
41.8584
38.2202
34.7543
31.4775
28.3998
25.5259
22.8563
20.3871
18.1114
16.0212
14.108
12.3619
10.7684
9.3088
7.9652
6.72653
5.59004
4.55461
3.60971
2.72596
1.85593
0.952808
-0.0565644
70.3211
67.39
63.8429
60.0263
56.2225
52.4861
48.8082
45.2002
41.6896
38.3023
35.0569
31.9659
29.0382
26.2787
23.6889
21.2671
19.0099
16.9118
14.9659
13.1622
11.4881
9.93071
8.4798
7.129
5.8722
4.69757
3.58242
2.49425
1.40272
0.262554
71.5197
68.8299
65.5694
62.0447
58.5099
55.0135
51.5446
48.1112
44.7377
41.448
38.2606
35.1893
32.245
29.4354
26.7653
24.2369
21.8498
19.602
17.4893
15.5053
13.6415
11.8885
10.2378
8.6817
7.21223
5.81777
4.48052
3.17763
1.88888
0.590443
72.5337
70.0487
67.0336
63.7619
60.4639
57.1829
53.9065
50.6397
47.4034
44.2192
41.1047
38.0738
35.138
32.3068
29.5869
26.983
24.4973
22.1302
19.8799
17.7429
15.7136
13.7856
11.9515
10.204
8.53487
6.93322
5.38466
3.87215
2.38075
0.901572
73.3919
71.0813
68.2768
65.2243
62.134
59.0448
55.9432
52.8314
49.7272
46.6497
43.6151
40.6366
37.7259
34.893
32.1458
29.4905
26.9312
24.4699
22.1071
19.8412
17.6691
15.5861
13.5865
11.6638
9.80988
8.01504
6.267
4.55181
2.85659
1.18156
74.1176
71.9557
69.3324
66.4699
63.5612
60.6417
57.6971
54.7274
51.7471
48.7733
45.8204
42.9008
40.0254
37.2044
34.4463
31.758
29.1448
26.6101
24.1557
21.7819
19.4871
17.2682
15.1209
13.0394
11.0164
9.04289
7.10793
5.19897
3.3032
1.42542
74.7303
72.6954
70.2278
67.5298
64.7796
62.0094
59.2047
56.3634
53.4976
50.622
47.7493
44.8907
42.0566
39.2565
36.4991
33.7917
31.1401
28.5487
26.0205
23.5567
21.1571
18.8199
16.5417
14.3176
12.141
10.0036
7.89499
5.80304
3.71409
1.63447
75.2461
73.3194
70.9856
68.4298
65.8173
63.178
60.497
57.7706
55.0088
52.2242
49.428
46.63
43.8397
41.0661
38.3175
35.6012
32.9234
30.289
27.7015
25.1632
22.6747
20.2351
17.8418
15.4907
13.1758
10.8892
8.62071
6.35821
4.08694
1.81287
75.6789
73.8442
71.625
69.1916
66.6983
64.1728
61.6003
58.9759
56.3074
53.6057
50.8806
48.1408
45.3946
42.6503
39.9158
37.198
34.5033
31.8367
29.2023
26.6027
24.0393
21.5117
19.0181
16.5548
14.1165
11.6953
9.28132
6.86213
4.42199
1.96554
76.0397
74.283
72.1616
69.833
67.442
65.0149
62.5367
60.0015
57.4156
54.7884
52.1281
49.4425
46.7388
44.0246
41.3072
38.5931
35.8884
33.1984
30.527
27.8775
25.2514
22.6489
20.0686
17.5073
14.9599
12.4188
9.87413
7.31315
4.71945
2.09588
76.3396
74.6484
72.6097
70.3701
68.0663
65.7232
63.326
60.868
58.3542
55.7925
53.1901
50.5537
47.8897
45.2048
42.5057
39.7984
37.0889
34.3821
31.6822
28.9923
26.3143
23.6487
20.9945
18.3486
15.7061
13.0597
10.3994
7.71229
4.98149
2.20762
76.5848
74.9479
72.9783
70.8133
68.5826
66.3103
63.9816
61.5893
59.1371
56.6319
54.0801
51.4872
48.8589
46.2012
43.5202
40.8214
38.1104
35.392
32.6701
29.948
27.2277
24.5097
21.7932
19.0755
16.3515
13.6143
10.8537
8.05662
5.20605
2.30034
76.787
75.1943
73.2814
71.1777
69.0073
66.7932
64.5212
62.1835
59.7828
57.3252
54.8161
52.2605
49.6633
47.0299
44.3656
41.6758
38.9655
36.2392
33.5008
30.7535
27.9992
25.2386
22.4709
19.6934
16.9013
14.0876
11.242
8.35147
5.39873
2.37915
76.9431
75.3853
73.5172
71.4621
69.3395
67.1719
64.9451
62.6511
60.2918
57.8726
55.3983
52.8732
50.3017
47.6886
45.0388
42.3572
39.6485
36.917
34.1665
31.3999
28.6191
25.8248
23.0163
20.1909
17.3438
14.4679
11.5531
8.58602
5.54964
2.43704
77.0752
75.5431
73.7091
71.6909
69.6045
67.472
65.2795
63.0186
60.6908
58.301
55.8534
53.3518
50.8002
48.203
45.5647
42.89
40.1831
37.4482
34.6889
31.908
29.1073
26.2876
23.448
20.586
17.6966
14.7727
11.8041
8.77732
5.67501
2.48653
77.1566
75.6406
73.829
71.8358
69.7738
67.6647
65.4952
63.2565
60.9499
58.5798
56.1501
53.6644
51.1263
48.54
45.9097
43.2397
40.5343
37.7973
35.0323
32.242
29.4282
26.5915
23.7311
20.8443
17.9262
14.9696
11.9641
8.89571
5.74727
2.50646
77.2456
75.7308
73.9314
71.9532
69.9049
67.8084
65.651
63.424
61.1284
58.7684
56.3477
53.8698
51.3381
48.7567
46.1297
43.4612
40.7555
38.0164
35.2472
32.4508
29.6288
26.782
23.9094
21.0085
18.0742
15.0992
12.0728
8.98011
5.80142
2.51284
)
;

boundaryField
{
    inlet
    {
        type            zeroGradient;
    }
    outlet
    {
        type            fixedValue;
        value           uniform 0;
    }
    flap
    {
        type            zeroGradient;
    }
    upperWall
    {
        type            zeroGradient;
    }
    lowerWall
    {
        type            zeroGradient;
    }
    frontAndBack
    {
        type            empty;
    }
}


// ************************************************************************* //
