/*--------------------------------*- C++ -*----------------------------------*\
  =========                 |
  \\      /  F ield         | OpenFOAM: The Open Source CFD Toolbox
   \\    /   O peration     | Website:  https://openfoam.org
    \\  /    A nd           | Version:  dev
     \\/     M anipulation  |
\*---------------------------------------------------------------------------*/
FoamFile
{
    version     2.0;
    format      ascii;
    class       surfaceScalarField;
    location    "8.6";
    object      phi;
}
// * * * * * * * * * * * * * * * * * * * * * * * * * * * * * * * * * * * * * //

dimensions      [0 3 -1 0 0 0 0];

internalField   nonuniform List<scalar> 
5457
(
0.198418
0.00158238
0.19648
0.00193737
0.194192
0.00228809
0.191509
0.00268359
0.188427
0.00308121
0.184951
0.00347679
0.181072
0.00387861
0.176778
0.00429406
0.17205
0.00472828
0.166864
0.0051853
0.161196
0.0056686
0.155015
0.00618114
0.148289
0.0067251
0.140988
0.00730148
0.133078
0.00790966
0.124532
0.00854661
0.115326
0.00920605
0.105448
0.00987734
0.0949041
0.0105442
0.0837205
0.0111836
0.0719558
0.0117647
0.0597074
0.0122483
0.0471188
0.0125887
0.0343787
0.0127401
0.0216838
0.0126949
0.00903376
0.01265
-0.00291859
0.0119524
-0.00847306
0.00555446
-0.00804333
-0.000429724
-0.00804333
0.199928
0.00165423
0.199176
0.00268982
0.197965
0.00349904
0.196332
0.00431679
0.194271
0.00514128
0.191781
0.00596689
0.188854
0.00680563
0.185477
0.00767098
0.181632
0.00857326
0.177297
0.00952079
0.172445
0.0105208
0.167046
0.0115796
0.161069
0.012702
0.15448
0.0138906
0.147245
0.0151449
0.139332
0.0164599
0.130714
0.0178242
0.121373
0.0192177
0.111308
0.0206092
0.100538
0.0219536
0.0891138
0.0231893
0.0771261
0.024236
0.0647201
0.0249946
0.0521127
0.0253475
0.0396526
0.025155
0.028103
0.0241996
0.0185925
0.0214628
0.00879479
0.0153522
0.00118231
0.00718275
-0.00686102
0.199781
0.00187367
0.199087
0.00338367
0.197946
0.00463998
0.196409
0.00585342
0.194483
0.00706744
0.192164
0.00828597
0.189446
0.0095231
0.186321
0.0107965
0.182773
0.0121212
0.178784
0.0135097
0.174332
0.014973
0.169391
0.0165208
0.163932
0.0181607
0.157925
0.0198979
0.151336
0.0217333
0.144134
0.0236618
0.136288
0.0256698
0.127774
0.0277318
0.118577
0.0298063
0.108699
0.0318317
0.0981673
0.0337213
0.0870449
0.0353584
0.0754482
0.0365914
0.0635711
0.0372246
0.0517294
0.0369966
0.0403946
0.0355345
0.0297366
0.0321208
0.0191643
0.0259245
0.00959659
0.0167505
0.00273557
0.199703
0.00217061
0.199008
0.00407898
0.197887
0.00576051
0.196376
0.00736434
0.194488
0.00895558
0.192222
0.010552
0.189574
0.0121708
0.186538
0.0138325
0.183104
0.0155558
0.179257
0.0173563
0.174982
0.0192482
0.170259
0.0212435
0.165068
0.0233525
0.159383
0.0255823
0.153181
0.0279352
0.146436
0.0304072
0.139121
0.0329844
0.131214
0.0356393
0.122694
0.0383257
0.113553
0.0409728
0.103796
0.0434783
0.0934536
0.0457011
0.0825923
0.0474527
0.0713296
0.0484873
0.0598378
0.0484884
0.0483141
0.0470582
0.0368086
0.0436263
0.0251862
0.0375469
0.0133347
0.028602
0.0160703
0.199667
0.0025032
0.198964
0.00478225
0.197863
0.00686184
0.196381
0.00884604
0.194532
0.0108044
0.192318
0.0127667
0.189734
0.0147547
0.186775
0.0167912
0.183433
0.0188975
0.179698
0.0210921
0.175555
0.0233912
0.170989
0.0258087
0.165985
0.0283565
0.160525
0.0310427
0.154589
0.0338709
0.148159
0.036838
0.141213
0.0399304
0.133731
0.043121
0.125694
0.0463628
0.117084
0.0495824
0.10789
0.052672
0.0981112
0.0554803
0.0877612
0.0578027
0.0768752
0.0593733
0.0655053
0.0598582
0.0537049
0.0588586
0.0414514
0.0558798
0.0285859
0.0504125
0.0148514
0.0423365
0.0309217
0.199653
0.0028504
0.198949
0.00548632
0.197871
0.00793979
0.196427
0.0102902
0.194627
0.0126044
0.192473
0.0149202
0.189963
0.0172643
0.187093
0.0196621
0.183853
0.0221369
0.180236
0.0247094
0.176229
0.0273978
0.17182
0.0302175
0.166995
0.0331814
0.161739
0.0362988
0.156036
0.039574
0.149869
0.0430048
0.143221
0.0465789
0.136071
0.0502707
0.128399
0.0540353
0.120179
0.0578023
0.111384
0.0614667
0.101985
0.0648793
0.0919508
0.0678371
0.0812499
0.0700741
0.0698502
0.071258
0.0577132
0.0709956
0.0447576
0.0688354
0.0308469
0.0643232
0.0158719
0.0573114
0.0467936
0.19965
0.00320035
0.198954
0.00618231
0.197904
0.00898943
0.196505
0.01169
0.194762
0.0143466
0.19268
0.0170022
0.190257
0.019688
0.187487
0.0224317
0.184365
0.025259
0.180882
0.0281924
0.177028
0.0312518
0.172791
0.0344542
0.168159
0.0378136
0.163117
0.0413405
0.157651
0.0450405
0.151743
0.0489126
0.145375
0.0529467
0.138525
0.0571205
0.131167
0.061394
0.123266
0.0657035
0.114778
0.0699538
0.10565
0.0740075
0.0958121
0.0776752
0.0851814
0.0807049
0.0736635
0.0827759
0.061157
0.0835021
0.0475514
0.082441
0.0327558
0.0791188
0.0167814
0.0732859
0.063575
0.199655
0.0035457
0.198975
0.00686242
0.197959
0.0100052
0.19661
0.0130387
0.194934
0.0160227
0.192933
0.0190028
0.190607
0.0220141
0.187952
0.025087
0.184962
0.028249
0.18163
0.0315246
0.177946
0.0349353
0.173901
0.0384997
0.169481
0.0422333
0.164674
0.0461481
0.159463
0.0502516
0.15383
0.0545452
0.147754
0.0590223
0.141209
0.0636656
0.134161
0.0684427
0.126563
0.0733008
0.118358
0.0781594
0.109464
0.0829008
0.0997812
0.0873584
0.0891817
0.0913044
0.0775194
0.0944381
0.0646419
0.0963796
0.0504127
0.0966703
0.0347645
0.0947669
0.0177879
0.0902625
0.0813628
0.199664
0.00388153
0.199006
0.00752023
0.19803
0.0109814
0.196739
0.0143301
0.195137
0.0176247
0.193227
0.0209126
0.191009
0.024232
0.18848
0.0276156
0.185636
0.031093
0.182471
0.0346903
0.178975
0.0384308
0.17514
0.0423347
0.170954
0.0464193
0.166403
0.0506987
0.161472
0.0551829
0.156141
0.0598768
0.150384
0.0647789
0.144171
0.0698789
0.137459
0.0751547
0.130191
0.0805679
0.122293
0.0860578
0.113661
0.0915326
0.104162
0.0968575
0.0936273
0.101839
0.0818577
0.106208
0.0686426
0.109595
0.0537958
0.111517
0.0372318
0.111331
0.0190808
0.108414
0.100444
0.199677
0.00420431
0.199047
0.00815047
0.198116
0.0119128
0.196887
0.0155584
0.195366
0.0191456
0.193556
0.0227232
0.191456
0.0263318
0.189065
0.0300064
0.18638
0.0337783
0.183395
0.0376752
0.180104
0.0417221
0.176498
0.0459409
0.172566
0.0503511
0.168296
0.054969
0.163671
0.0598079
0.15867
0.0648773
0.153267
0.0701819
0.147426
0.0757203
0.141097
0.0814829
0.134216
0.0874492
0.126691
0.0935829
0.118399
0.0998245
0.109177
0.10608
0.0988115
0.112204
0.087044
0.117975
0.0735812
0.123058
0.0581404
0.126958
0.0405455
0.128926
0.0208977
0.128061
0.121341
0.199693
0.00451138
0.199095
0.00874885
0.198213
0.0127943
0.197053
0.0167181
0.19562
0.020579
0.193916
0.0244271
0.191943
0.0283048
0.1897
0.0322493
0.187185
0.0362933
0.184394
0.0404662
0.181322
0.0447943
0.177961
0.0493015
0.174303
0.0540092
0.170336
0.0589364
0.166044
0.0641002
0.161406
0.069515
0.156395
0.0751926
0.150974
0.0811418
0.145089
0.0873675
0.138669
0.0938692
0.131613
0.100639
0.123783
0.107655
0.114988
0.114875
0.104973
0.122219
0.0934085
0.12954
0.0798869
0.136579
0.0639571
0.142888
0.0452257
0.147657
0.0236063
0.149681
0.144948
0.199711
0.00480068
0.199148
0.00931186
0.19832
0.0136219
0.197234
0.0178043
0.195894
0.0219191
0.194303
0.0260174
0.192465
0.0301433
0.190379
0.0343355
0.188044
0.038628
0.185458
0.0430517
0.182618
0.0476344
0.179519
0.0524013
0.176152
0.0573759
0.172508
0.0625801
0.168574
0.0680344
0.16433
0.0737585
0.159752
0.0797715
0.154801
0.0860928
0.149426
0.092742
0.143555
0.0997401
0.137085
0.107109
0.129871
0.114869
0.121707
0.123039
0.112304
0.131622
0.10126
0.140583
0.088031
0.149808
0.0719082
0.15901
0.052073
0.167492
0.0278772
0.173877
0.172825
0.19973
0.00507061
0.199205
0.00983663
0.198435
0.0143919
0.197427
0.018813
0.196185
0.0231612
0.194713
0.0274886
0.193016
0.0318407
0.191094
0.0362573
0.188948
0.0407739
0.186578
0.0454221
0.183981
0.050231
0.181155
0.0552272
0.178095
0.0604359
0.174794
0.0658814
0.171241
0.0715876
0.167421
0.0775788
0.163311
0.0838812
0.15888
0.0905235
0.154083
0.0975396
0.148852
0.10497
0.143095
0.112866
0.136672
0.121292
0.129382
0.130329
0.120929
0.140075
0.110867
0.150645
0.0985247
0.162151
0.0828807
0.174654
0.0624155
0.187958
0.0351104
0.201182
0.207935
0.199751
0.0053199
0.199266
0.0103209
0.198557
0.0151013
0.19763
0.0197405
0.19649
0.024301
0.195142
0.0288359
0.193592
0.0333915
0.19184
0.0380088
0.18989
0.0427239
0.187743
0.0475693
0.185399
0.052575
0.182858
0.0577685
0.180117
0.0631765
0.177173
0.068825
0.174021
0.0747405
0.170648
0.0809512
0.167041
0.0874887
0.163175
0.0943896
0.159015
0.101699
0.154511
0.109474
0.149588
0.11779
0.144134
0.126746
0.137982
0.136481
0.130871
0.147185
0.122388
0.159128
0.111837
0.172702
0.0979888
0.188502
0.0785052
0.207441
0.0486369
0.23105
0.256572
0.199772
0.00554759
0.19933
0.0107628
0.198684
0.0157478
0.19784
0.020584
0.196806
0.0253354
0.195586
0.0300555
0.194186
0.0347916
0.19261
0.039585
0.190861
0.0444726
0.188943
0.0494873
0.186859
0.0546595
0.18461
0.0600173
0.182199
0.0655881
0.179625
0.071399
0.176887
0.0774783
0.173981
0.0838565
0.170902
0.0905686
0.167635
0.0976562
0.164163
0.105171
0.160455
0.113181
0.156469
0.121776
0.152137
0.131078
0.147361
0.141258
0.141979
0.152567
0.13573
0.165378
0.128141
0.180291
0.118272
0.198371
0.103872
0.221842
0.0776328
0.257289
0.334205
0.00383208
-0.00383208
0.00749189
-0.00365981
0.0105118
-0.00301989
0.0128665
-0.00235468
0.0146266
-0.00176013
0.0158695
-0.00124288
0.0166621
-0.000792629
0.0170629
-0.000400757
0.017133
-7.00903e-05
0.0169124
0.00022057
0.0164697
0.000442725
0.0158593
0.000610388
0.0151332
0.000726062
0.0143442
0.000788983
0.0135434
0.0008008
0.0127762
0.000767217
0.0120784
0.000697822
0.0114736
0.000604808
0.0109714
0.000502131
0.0105674
0.000404001
0.010246
0.000321462
0.0099864
0.00025959
0.00976921
0.000217184
0.00958095
0.000188265
0.00941532
0.000165631
0.0092701
0.00014522
0.00914277
0.000127329
0.00902813
0.000114632
0.00892052
0.00010761
8.8038e-05
0.00355609
-0.00738817
0.00697498
-0.00707869
0.00985999
-0.0059049
0.0121986
-0.00469333
0.0140614
-0.00362288
0.0155194
-0.00270094
0.0166325
-0.00190574
0.0174483
-0.00121653
0.0179932
-0.000615021
0.0183011
-8.73227e-05
0.0183702
0.000373621
0.0182493
0.000731303
0.0179909
0.000984479
0.0176482
0.00113166
0.0172731
0.00117591
0.0169115
0.00112887
0.0165989
0.00101044
0.0163582
0.000845468
0.016198
0.000662326
0.0161123
0.000489671
0.0160849
0.000348902
0.0160955
0.000248942
0.0161263
0.00018639
0.0161659
0.000148696
0.01621
0.00012149
0.0162578
9.74434e-05
0.0163076
7.75855e-05
0.0163551
6.70607e-05
0.0163947
6.80888e-05
7.74749e-05
0.00302153
-0.0104097
0.00583508
-0.00989224
0.00817388
-0.0082437
0.0100688
-0.00658828
0.011593
-0.00514704
0.0128055
-0.0039134
0.0137534
-0.00285366
0.0144751
-0.00193828
0.015007
-0.00114685
0.0153854
-0.000465703
0.0156336
0.00012534
0.0157375
0.000627449
0.0157335
0.000988458
0.0156625
0.00120264
0.0155639
0.00127458
0.0154708
0.0012219
0.0154089
0.00107234
0.015394
0.000860437
0.01543
0.000626309
0.0155083
0.000411346
0.015612
0.00024522
0.0157217
0.0001392
0.015821
8.70826e-05
0.0159012
6.85761e-05
0.0159629
5.97884e-05
0.0160115
4.87852e-05
0.0160532
3.58902e-05
0.0160906
2.97092e-05
0.0161205
3.81613e-05
6.94688e-05
0.00243194
-0.0128416
0.00453096
-0.0119913
0.00620318
-0.00991591
0.00754636
-0.00793147
0.00863306
-0.00623374
0.00950691
-0.00478724
0.0102006
-0.00354732
0.010738
-0.00247577
0.0111414
-0.00155023
0.0114393
-0.00076362
0.0116534
-8.87607e-05
0.0117857
0.000495157
0.011846
0.000928201
0.0118664
0.00118225
0.0118742
0.00126676
0.0118885
0.00120761
0.0119221
0.00103876
0.0119809
0.000801612
0.0120622
0.000545022
0.012151
0.000322503
0.0122286
0.000167621
0.0122781
8.97161e-05
0.012288
7.72153e-05
0.0122578
9.87825e-05
0.0121971
0.000120446
0.0121168
0.000129054
0.012027
0.000125754
0.0119331
0.000123636
0.0118362
0.000135006
0.000158219
0.00174804
-0.0145897
0.00305096
-0.0132942
0.00398459
-0.0108495
0.00471199
-0.00865888
0.00529558
-0.00681732
0.00576527
-0.00525693
0.00614331
-0.00392536
0.00644273
-0.00277519
0.00667223
-0.00177973
0.00684274
-0.000934132
0.00699235
-0.000238368
0.00710111
0.000386397
0.00714421
0.000885098
0.00716003
0.00116643
0.00716601
0.00126078
0.00716742
0.0012062
0.00716373
0.00104245
0.00715154
0.000813804
0.0071254
0.000571164
0.00706683
0.000381072
0.00696402
0.000270429
0.00681058
0.000243152
0.00660611
0.000281691
0.00635505
0.00034984
0.00606902
0.000406479
0.00576191
0.000436154
0.00544537
0.000442294
0.00512703
0.000441982
0.00482197
0.000440065
0.000392021
0.000970675
-0.0155604
0.0013902
-0.0137137
0.00153769
-0.010997
0.00160051
-0.00872169
0.00161277
-0.00682958
0.00160257
-0.00524674
0.00158527
-0.00390806
0.00157264
-0.00276255
0.00157567
-0.00178276
0.00160672
-0.000965177
0.00161642
-0.000248068
0.00159306
0.000409754
0.00152541
0.000952746
0.00142682
0.00126503
0.00129299
0.00139461
0.00110582
0.00139338
0.000847625
0.00130065
0.000509255
0.00115217
9.80268e-05
0.000982392
-0.000342968
0.000822066
-0.000789042
0.000716503
-0.00121472
0.00066883
-0.00160315
0.000670117
-0.00195248
0.000699179
-0.0022704
0.000724396
-0.00256534
0.000731095
-0.00284615
0.0007231
-0.00311483
0.000710659
-0.00335769
0.000682929
0.000601959
5.24482e-06
-0.0155656
-0.000458274
-0.0132502
-0.00111677
-0.0103385
-0.00178178
-0.00805669
-0.0024208
-0.00619056
-0.00300211
-0.00466543
-0.00350884
-0.00340134
-0.00393814
-0.00233324
-0.004316
-0.00140491
-0.00470018
-0.000580995
-0.00509092
0.000142664
-0.00540004
0.000718881
-0.00560169
0.00115439
-0.00580954
0.00147288
-0.00606491
0.00164998
-0.0063761
0.00170456
-0.00673949
0.00166404
-0.00714417
0.00155685
-0.00757606
0.00141429
-0.0080242
0.00127021
-0.00846555
0.00115785
-0.00888367
0.00108695
-0.00926287
0.00104931
-0.0095904
0.00102671
-0.00986601
0.00100001
-0.0100978
0.000962888
-0.0102972
0.000922523
-0.0104714
0.000884803
-0.0106233
0.000834813
0.00076939
-0.000953394
-0.0146122
-0.0024351
-0.0117685
-0.00396123
-0.0088124
-0.00544012
-0.0065778
-0.00679769
-0.00483298
-0.00801411
-0.00344901
-0.00908264
-0.00233281
-0.0100065
-0.00140942
-0.0108045
-0.000606845
-0.0114747
8.91585e-05
-0.0119599
0.000627858
-0.0123055
0.00106449
-0.0125941
0.00144304
-0.0128551
0.00173384
-0.0131236
0.00191847
-0.0134173
0.00199831
-0.0137391
0.00198582
-0.014085
0.00190272
-0.01445
0.00177933
-0.0148294
0.00164963
-0.0152121
0.00154055
-0.0155836
0.00145843
-0.0159259
0.00139161
-0.0162214
0.00132218
-0.0164612
0.00123983
-0.0166489
0.00115062
-0.0167966
0.00107021
-0.0169173
0.00100552
-0.0170286
0.000946023
0.000901365
-0.00207678
-0.0125354
-0.00457851
-0.00926676
-0.00706658
-0.00632432
-0.00936559
-0.0042788
-0.0113922
-0.00280637
-0.0131364
-0.00170484
-0.0146142
-0.000854996
-0.0158467
-0.000176919
-0.0168114
0.000357847
-0.0175046
0.000782345
-0.0180234
0.00114671
-0.0184412
0.00148232
-0.0187754
0.00177719
-0.0190561
0.00201453
-0.0193168
0.00217922
-0.0195806
0.00226206
-0.019857
0.00226229
-0.0201476
0.0021933
-0.0204519
0.00208361
-0.0207697
0.00196746
-0.0210973
0.00186814
-0.0214246
0.00178568
-0.0217337
0.00170071
-0.0220033
0.00159182
-0.0222186
0.00145507
-0.0223786
0.00131064
-0.0224956
0.00118719
-0.0225872
0.00109718
-0.0226758
0.00103461
0.00100728
-0.00341533
-0.0091201
-0.00708195
-0.00560014
-0.010577
-0.00282928
-0.013649
-0.00120683
-0.0162462
-0.000209102
-0.0183363
0.000385246
-0.0199474
0.000756122
-0.0211509
0.00102658
-0.0220543
0.00126117
-0.0227639
0.00149197
-0.0233362
0.00171901
-0.02379
0.00193616
-0.0241464
0.0021336
-0.0244351
0.00230323
-0.0246898
0.00243391
-0.024936
0.0025082
-0.0251849
0.00251123
-0.0254383
0.00244668
-0.0256972
0.00234249
-0.0259662
0.00223651
-0.0262494
0.00215132
-0.0265425
0.00207874
-0.0268284
0.00198669
-0.0270816
0.00184496
-0.02728
0.00165347
-0.0274186
0.00144929
-0.0275116
0.00128015
-0.0275819
0.00116752
-0.0276525
0.00110522
0.00109094
-0.00525424
-0.00386585
-0.0107929
-6.14452e-05
-0.0151926
0.00157042
-0.018592
0.00219253
-0.0211405
0.0023394
-0.0230644
0.00230912
-0.0245615
0.00225328
-0.0257437
0.00220876
-0.0266789
0.00219633
-0.0274194
0.00223249
-0.0280092
0.0023088
-0.028474
0.00240096
-0.0288341
0.00249374
-0.0291191
0.0025882
-0.0293655
0.00268029
-0.0296012
0.00274388
-0.0298353
0.00274535
-0.0300645
0.00267591
-0.0302882
0.00256615
-0.0305163
0.00246466
-0.0307628
0.00239777
-0.0310309
0.00234683
-0.0313042
0.00226003
-0.0315502
0.00209101
-0.0317374
0.00184061
-0.0318558
0.00156772
-0.0319242
0.00134854
-0.0319736
0.00121695
-0.032027
0.0011586
0.00115429
-0.00795669
0.00409084
-0.014423
0.0064049
-0.0191075
0.00625484
-0.0226
0.00568503
-0.0252321
0.00497151
-0.0272245
0.00430154
-0.02875
0.00377878
-0.0299316
0.00339037
-0.0308478
0.0031125
-0.0315652
0.00294988
-0.0321378
0.00288147
-0.0325913
0.00285443
-0.0329372
0.0028397
-0.0332028
0.00285377
-0.033432
0.00290952
-0.0336585
0.00297035
-0.0338862
0.00297301
-0.0341
0.0028897
-0.034293
0.00275917
-0.0344818
0.00265349
-0.0346944
0.00261037
-0.0349446
0.00259703
-0.0352159
0.00253133
-0.0354652
0.00234027
-0.0356462
0.00202165
-0.0357424
0.00166389
-0.0357806
0.00138678
-0.0358057
0.00124202
-0.0358418
0.00119477
0.00119915
-0.00997912
0.01407
-0.0177065
0.0141323
-0.0230789
0.0116273
-0.026776
0.00938208
-0.0294029
0.00759846
-0.0312879
0.00618648
-0.0326973
0.0051882
-0.0337872
0.00448025
-0.0346163
0.00394159
-0.0352544
0.00358799
-0.0357746
0.00340174
-0.0361993
0.00327904
-0.0365154
0.00315583
-0.0367413
0.00307968
-0.0369378
0.003106
-0.0371528
0.00318533
-0.037382
0.00320221
-0.0375879
0.00309568
-0.0377501
0.00292132
-0.0378939
0.00279728
-0.0380697
0.00278618
-0.038307
0.00283432
-0.038588
0.00281231
-0.0388531
0.00260545
-0.0390341
0.00220264
-0.0391031
0.00173289
-0.0391002
0.00138387
-0.0390942
0.00123596
-0.0391142
0.00121478
0.00122869
-0.0132298
0.0272998
-0.0227941
0.0236966
-0.0281993
0.0170324
-0.0314695
0.0126523
-0.0337843
0.00991324
-0.0353099
0.0077121
-0.0364115
0.00628983
-0.0373169
0.00538567
-0.0379983
0.00462299
-0.0384974
0.00408709
-0.0389307
0.00383498
-0.0393208
0.00366916
-0.0395973
0.00343231
-0.039755
0.00323738
-0.039892
0.003243
-0.0400907
0.00338402
-0.0403341
0.00344568
-0.0405434
0.00330495
-0.0406704
0.00304834
-0.0407539
0.00288081
-0.0408824
0.00291465
-0.04111
0.00306191
-0.0414149
0.00311725
-0.0417129
0.00290343
-0.0419021
0.0023918
-0.0419355
0.00176631
-0.0418727
0.00132105
-0.0418242
0.00118745
-0.0418322
0.00122281
0.0012509
-0.0188318
0.0461316
-0.0304352
0.0353
-0.0351724
0.0217696
-0.0367811
0.014261
-0.0384484
0.0115805
-0.0392315
0.00849521
-0.0397456
0.00680386
-0.0404593
0.00609944
-0.04101
0.00517371
-0.0412911
0.00436813
-0.0415785
0.0041224
-0.0419377
0.00402832
-0.0421745
0.00366911
-0.042225
0.00328789
-0.0422584
0.00327647
-0.0424375
0.00356308
-0.0427218
0.00372994
-0.0429554
0.00353858
-0.0430377
0.00313062
-0.0430293
0.00287242
-0.043087
0.00297234
-0.0433053
0.00328027
-0.043652
0.00346397
-0.0440054
0.00325676
-0.0442143
0.00260072
-0.0441989
0.00175097
-0.0440449
0.00116697
-0.0439347
0.00107724
-0.0439409
0.0012291
0.00128596
0.207447
0.00576034
0.207034
0.0111753
0.206432
0.0163503
0.205647
0.0213684
0.204688
0.0262946
0.203561
0.0311829
0.202271
0.036081
0.200826
0.0410307
0.199229
0.0460688
0.197488
0.0512286
0.195607
0.0565402
0.193593
0.0620321
0.191449
0.0677316
0.189182
0.073666
0.186796
0.079864
0.184296
0.0863568
0.181684
0.0931804
0.178963
0.100378
0.176131
0.108003
0.173188
0.116125
0.170129
0.124835
0.16695
0.134257
0.163644
0.144564
0.160213
0.155997
0.15668
0.168911
0.153135
0.183835
0.149943
0.201564
0.148772
0.223012
0.16039
0.245672
0.258896
0.235698
0.21249
0.00595275
0.212118
0.0115482
0.211574
0.0168938
0.210868
0.0220743
0.210008
0.027155
0.209
0.0321903
0.207853
0.037228
0.206574
0.0423098
0.205171
0.0474724
0.203651
0.0527486
0.202023
0.0581682
0.200296
0.063759
0.19848
0.0695476
0.196585
0.0755606
0.194624
0.0818257
0.192608
0.0883727
0.190552
0.095236
0.188474
0.102456
0.186395
0.110082
0.184344
0.118176
0.18236
0.126819
0.180504
0.136113
0.178875
0.146193
0.177645
0.157228
0.177132
0.169424
0.177991
0.182976
0.181633
0.197922
0.190655
0.213991
0.206061
0.230266
0.245833
0.219125
0.217658
0.00612268
0.217329
0.0118771
0.21685
0.0173725
0.21623
0.022694
0.215478
0.0279073
0.214602
0.0330669
0.213609
0.0382201
0.212511
0.0434083
0.211316
0.0486676
0.210034
0.05403
0.208678
0.0595243
0.20726
0.0651769
0.205795
0.0710131
0.204298
0.0770576
0.202788
0.0833354
0.201287
0.0898735
0.199821
0.0967015
0.198424
0.103854
0.197135
0.11137
0.196013
0.119299
0.195133
0.127698
0.194611
0.136636
0.194615
0.146189
0.195408
0.156435
0.197401
0.167431
0.201203
0.179174
0.207584
0.191541
0.217207
0.204368
0.229798
0.217674
0.228885
0.246746
0.222951
0.00626812
0.22267
0.0121584
0.222262
0.0177806
0.221736
0.0232202
0.2211
0.0285428
0.220365
0.0338024
0.219539
0.0390457
0.218634
0.0443132
0.217662
0.0496402
0.216635
0.0550572
0.215567
0.0605916
0.214476
0.0662679
0.21338
0.072109
0.212301
0.0781368
0.211264
0.0843726
0.210299
0.0908385
0.209443
0.0975576
0.208742
0.104555
0.208253
0.111858
0.208055
0.119498
0.208248
0.127504
0.208974
0.13591
0.210425
0.144737
0.212865
0.153995
0.216641
0.163655
0.222172
0.173643
0.229908
0.183804
0.240423
0.193852
0.254637
0.203461
0.210378
0.273144
0.228374
0.00638722
0.228144
0.0123884
0.227812
0.0181131
0.227386
0.0236464
0.226875
0.0290534
0.22629
0.0343874
0.225641
0.0396941
0.224942
0.0450128
0.224205
0.0503773
0.223445
0.0558166
0.222681
0.0613559
0.221931
0.0670173
0.22122
0.0728208
0.220572
0.0787843
0.22002
0.0849247
0.219601
0.0912579
0.219359
0.0977993
0.21935
0.104564
0.219645
0.111564
0.220329
0.118813
0.221518
0.126316
0.223355
0.134073
0.226025
0.142067
0.22976
0.15026
0.234839
0.158576
0.241592
0.16689
0.250399
0.174998
0.261706
0.182545
0.275989
0.189178
0.19381
0.292556
0.233929
0.00647829
0.233754
0.0125638
0.233502
0.0183652
0.233182
0.0239667
0.232803
0.0294321
0.232376
0.0348139
0.231914
0.0401563
0.23143
0.0454972
0.230938
0.0508686
0.230458
0.0562974
0.230007
0.0618064
0.229609
0.0674149
0.229291
0.0731391
0.229082
0.078993
0.229019
0.0849879
0.229144
0.0911333
0.229507
0.0974362
0.23017
0.103901
0.231207
0.110527
0.232709
0.11731
0.234789
0.124236
0.237583
0.131279
0.241253
0.138396
0.245994
0.145519
0.252025
0.152545
0.25959
0.159325
0.268931
0.165657
0.280228
0.171248
0.293578
0.175828
0.178881
0.308508
0.23962
0.00653985
0.239502
0.0126819
0.239334
0.018533
0.239125
0.0241757
0.238884
0.0296727
0.238623
0.0350748
0.238355
0.0404248
0.238094
0.0457586
0.237856
0.0511061
0.237662
0.056492
0.237532
0.0619363
0.237492
0.067455
0.23757
0.0730607
0.2378
0.0787627
0.238221
0.0845671
0.238878
0.0904766
0.239824
0.0964902
0.241122
0.102603
0.242847
0.108802
0.245086
0.115071
0.247942
0.12138
0.251535
0.127686
0.256001
0.13393
0.26149
0.140031
0.268157
0.145877
0.276154
0.151328
0.285602
0.15621
0.296545
0.160305
0.308975
0.163398
0.165222
0.322633
0.245448
0.00657063
0.24539
0.0127401
0.24531
0.0186128
0.245217
0.0242692
0.245119
0.0297702
0.245029
0.0351648
0.24496
0.0404938
0.244928
0.0457912
0.244949
0.0510845
0.245045
0.0563959
0.245239
0.0617424
0.245558
0.0671368
0.24603
0.0725878
0.246693
0.0781002
0.247585
0.083675
0.248753
0.0893088
0.250249
0.0949937
0.252136
0.100716
0.254482
0.106456
0.257368
0.112185
0.260883
0.117865
0.265126
0.123443
0.270201
0.128855
0.276215
0.134017
0.283268
0.138824
0.291442
0.143155
0.300784
0.146868
0.311283
0.149805
0.322873
0.151808
0.152744
0.335351
0.251418
0.00656962
0.251422
0.0127366
0.251432
0.018602
0.251458
0.0242438
0.251507
0.0297208
0.251592
0.0350798
0.251726
0.0403596
0.251926
0.0455917
0.252209
0.0508014
0.252597
0.0560081
0.253113
0.0612258
0.253786
0.0664642
0.254645
0.0717282
0.255727
0.0770186
0.257071
0.0823316
0.258721
0.0876588
0.260728
0.0929865
0.263148
0.0982954
0.266045
0.103559
0.269487
0.108743
0.273547
0.113805
0.278301
0.118689
0.283825
0.123332
0.290188
0.127653
0.297448
0.131565
0.305638
0.134965
0.31476
0.137746
0.324769
0.139797
0.335566
0.141011
0.141331
0.346979
0.257532
0.00653606
0.257599
0.0126698
0.257702
0.0184987
0.257849
0.0240974
0.258048
0.0295222
0.25831
0.0348177
0.258649
0.0400203
0.259081
0.0451593
0.259625
0.0502573
0.260303
0.0553309
0.261137
0.0603915
0.262156
0.0654456
0.263389
0.0704949
0.264871
0.0755364
0.26664
0.0805626
0.268738
0.0855611
0.27121
0.0905142
0.274107
0.0953984
0.277482
0.100184
0.281391
0.104834
0.285891
0.109305
0.291036
0.113544
0.296877
0.11749
0.303454
0.121076
0.310791
0.124227
0.318891
0.126865
0.327726
0.128911
0.337232
0.13029
0.347304
0.130939
0.130834
0.357801
0.263794
0.00646948
0.263925
0.0125391
0.264122
0.0183017
0.264391
0.0238286
0.26474
0.0291733
0.265179
0.034378
0.265723
0.0394764
0.266387
0.0444955
0.267189
0.0494552
0.26815
0.0543699
0.269294
0.059248
0.270646
0.0640934
0.272236
0.0689049
0.274096
0.0736766
0.27626
0.0783982
0.278767
0.0830544
0.281656
0.0876249
0.28497
0.0920843
0.288752
0.0964018
0.293046
0.100541
0.297892
0.104459
0.303326
0.108109
0.309378
0.111438
0.316066
0.114389
0.323389
0.116904
0.331331
0.118924
0.339847
0.120395
0.348868
0.121269
0.358295
0.121511
0.121121
0.368009
0.270207
0.00636972
0.270402
0.012344
0.270693
0.0180107
0.271084
0.0234374
0.271583
0.0286746
0.272199
0.0337617
0.272945
0.0387301
0.273837
0.0436041
0.274891
0.0484013
0.276127
0.0531336
0.277568
0.0578072
0.279238
0.0624234
0.281164
0.066979
0.283375
0.0714658
0.285901
0.0758716
0.288776
0.0801793
0.292033
0.0843677
0.295707
0.0884111
0.299829
0.0922793
0.304432
0.0959379
0.309543
0.0993488
0.315182
0.10247
0.321361
0.105259
0.328082
0.107668
0.33533
0.109656
0.343074
0.11118
0.351265
0.112204
0.359833
0.112702
0.368689
0.112656
0.112077
0.377732
0.276774
0.00623687
0.277033
0.0120848
0.277417
0.0176263
0.27793
0.0229248
0.278577
0.0280278
0.279367
0.0329718
0.280311
0.0377856
0.281424
0.0424911
0.282722
0.0471037
0.284222
0.0516331
0.285946
0.0560835
0.287915
0.0604544
0.290153
0.0647406
0.292686
0.0689328
0.29554
0.0730175
0.298742
0.0769773
0.302319
0.0807909
0.306297
0.0844337
0.310698
0.0878776
0.315545
0.0910917
0.320851
0.0940427
0.326625
0.096696
0.332867
0.0990165
0.339566
0.10097
0.346697
0.102524
0.354225
0.103652
0.362097
0.104332
0.370248
0.10455
0.3786
0.104303
0.103608
0.387069
0.283498
0.00607131
0.283821
0.0117622
0.284297
0.0171497
0.284929
0.0222929
0.285721
0.0272358
0.286681
0.0320123
0.287817
0.0366487
0.289144
0.0411645
0.290675
0.0455729
0.292426
0.0498818
0.294416
0.0540937
0.296664
0.0582068
0.299189
0.0622148
0.302015
0.0661075
0.305161
0.0698713
0.308649
0.0734891
0.312499
0.0769407
0.31673
0.0802032
0.321356
0.0832517
0.326388
0.0860595
0.331832
0.0885987
0.337686
0.0908415
0.343942
0.092761
0.350579
0.0943321
0.35757
0.0955333
0.364875
0.0963475
0.372442
0.0967639
0.380214
0.0967787
0.388122
0.0963951
0.0956339
0.396097
0.290384
0.00587369
0.290768
0.0113777
0.291335
0.0165831
0.292083
0.0215446
0.293016
0.0263029
0.29414
0.0308891
0.295461
0.0353269
0.296992
0.0396337
0.298744
0.0438208
0.300732
0.0478945
0.302969
0.0518562
0.305473
0.0557027
0.30826
0.0594275
0.311348
0.0630203
0.314751
0.0664677
0.318487
0.0697536
0.322568
0.0728597
0.327005
0.0757656
0.331807
0.0784499
0.336977
0.0808901
0.342511
0.083064
0.348403
0.08495
0.354635
0.0865284
0.361186
0.0877819
0.368022
0.0886971
0.375104
0.0892649
0.382387
0.0894818
0.389815
0.0893502
0.397332
0.0888783
0.0880874
0.404878
0.297435
0.00564487
0.297879
0.0109328
0.298534
0.0159291
0.299394
0.0206837
0.300463
0.0252342
0.301743
0.0296087
0.303242
0.0338287
0.304966
0.0379095
0.306926
0.0418608
0.309133
0.0456875
0.311599
0.0493899
0.314337
0.0529647
0.31736
0.0564049
0.320679
0.0597007
0.324307
0.0628396
0.328254
0.0658071
0.332527
0.0685869
0.337131
0.0711616
0.342067
0.0735133
0.347333
0.0756239
0.352921
0.0774763
0.358817
0.0790544
0.365
0.0803446
0.371446
0.081336
0.378122
0.0820212
0.38499
0.0823971
0.392007
0.082465
0.399126
0.0822314
0.406297
0.0817071
0.080913
0.413471
0.304654
0.00538591
0.305157
0.0104298
0.305895
0.0151908
0.306864
0.0197148
0.308063
0.0240356
0.309493
0.0281789
0.311157
0.0321638
0.313063
0.0360037
0.315217
0.0397069
0.317627
0.0432772
0.320303
0.0467145
0.323252
0.0500151
0.326485
0.0531723
0.330009
0.056177
0.33383
0.0590181
0.337955
0.0616826
0.342385
0.0641569
0.34712
0.0664264
0.352157
0.0684767
0.357487
0.0702938
0.363098
0.071865
0.368973
0.0731791
0.375091
0.0742273
0.381423
0.0750037
0.387939
0.0755055
0.394602
0.0757335
0.401375
0.0756926
0.408215
0.0753913
0.41508
0.0748417
0.0740636
0.42193
0.312046
0.00509803
0.312605
0.00987098
0.313424
0.0143721
0.314496
0.0186428
0.315817
0.0227138
0.317388
0.026608
0.31921
0.0303422
0.321285
0.0339284
0.323619
0.0373735
0.326215
0.0406807
0.329081
0.0438492
0.33222
0.0468756
0.335639
0.0497538
0.33934
0.0524755
0.343327
0.055031
0.3476
0.0574095
0.352158
0.0595996
0.356994
0.0615896
0.362103
0.0633684
0.367471
0.0649256
0.373084
0.0662522
0.378922
0.0673411
0.384962
0.0681873
0.391177
0.0687885
0.397537
0.0691453
0.404009
0.0692614
0.410558
0.0691434
0.417149
0.0688011
0.423743
0.0682469
0.0674989
0.430308
0.319615
0.00478256
0.320227
0.00925897
0.321122
0.0134768
0.322292
0.0174732
0.32373
0.0212756
0.325434
0.0249044
0.327402
0.0283744
0.329634
0.031696
0.332132
0.0348751
0.334899
0.0379142
0.337936
0.0408125
0.341245
0.0435667
0.344827
0.0461715
0.348683
0.0486197
0.35281
0.0509032
0.357207
0.0530131
0.361866
0.0549402
0.36678
0.0566755
0.371938
0.0582109
0.377325
0.0595389
0.382923
0.0606537
0.388713
0.0615513
0.39467
0.0622298
0.40077
0.0626894
0.406982
0.0629332
0.413277
0.0629662
0.419624
0.0627964
0.425991
0.062434
0.432347
0.0618908
0.0611834
0.438662
0.327365
0.00444085
0.328027
0.00859646
0.328995
0.012509
0.330257
0.0162115
0.331805
0.0197281
0.333632
0.0230769
0.335736
0.0262708
0.338113
0.0293186
0.340763
0.0322255
0.343684
0.0349934
0.346875
0.0376215
0.350334
0.0401071
0.35406
0.0424454
0.358049
0.0446306
0.362297
0.046656
0.366795
0.0485145
0.371536
0.0501992
0.376508
0.0517032
0.381698
0.0530209
0.38709
0.0541474
0.392664
0.0550794
0.3984
0.0558153
0.404274
0.0563553
0.410262
0.0567016
0.416337
0.0568585
0.422471
0.0568322
0.428636
0.0566309
0.434806