/*--------------------------------*- C++ -*----------------------------------*\
  =========                 |
  \\      /  F ield         | OpenFOAM: The Open Source CFD Toolbox
   \\    /   O peration     | Website:  https://openfoam.org
    \\  /    A nd           | Version:  dev
     \\/     M anipulation  |
\*---------------------------------------------------------------------------*/
FoamFile
{
    version     2.0;
    format      ascii;
    class       volVectorField;
    location    "8.6";
    object      U;
}
// * * * * * * * * * * * * * * * * * * * * * * * * * * * * * * * * * * * * * //

dimensions      [0 1 -1 0 0 0 0];

internalField   nonuniform List<vector> 
2790
(
(9.94399 0 0.0205234)
(9.87572 0 0.0295881)
(9.7752 0 0.0359901)
(9.64943 0 0.042557)
(9.50408 0 0.0493866)
(9.34005 0 0.0564298)
(9.15653 0 0.0638177)
(8.9526 0 0.0717139)
(8.72743 0 0.0802581)
(8.48004 0 0.0895771)
(8.20922 0 0.0997978)
(7.91359 0 0.111051)
(7.59161 0 0.123466)
(7.24169 0 0.137172)
(6.86222 0 0.152281)
(6.45167 0 0.16888)
(6.00874 0 0.187008)
(5.53253 0 0.20663)
(5.02279 0 0.227601)
(4.48026 0 0.249622)
(3.90696 0 0.272186)
(3.30663 0 0.294533)
(2.68508 0 0.315625)
(2.05042 0 0.334291)
(1.41161 0 0.350606)
(0.797876 0 0.372885)
(0.110489 0 0.324975)
(-0.469575 0 -0.1149)
(-0.453802 0 -0.297121)
(-0.231165 0 -0.423846)
(9.9985 0 0.0407036)
(9.98145 0 0.0623839)
(9.93574 0 0.0791419)
(9.86416 0 0.0966272)
(9.77096 0 0.115127)
(9.65714 0 0.134492)
(9.52204 0 0.15498)
(9.36483 0 0.17695)
(9.18469 0 0.200715)
(8.98063 0 0.226559)
(8.75148 0 0.254756)
(8.49583 0 0.285574)
(8.21213 0 0.319265)
(7.89873 0 0.356041)
(7.55394 0 0.39604)
(7.17607 0 0.439285)
(6.76365 0 0.485616)
(6.31551 0 0.534611)
(5.83108 0 0.585485)
(5.3107 0 0.636975)
(4.75596 0 0.687221)
(4.17021 0 0.733658)
(3.5591 0 0.772957)
(2.93136 0 0.801089)
(2.29977 0 0.813737)
(1.6928 0 0.807234)
(1.10701 0 0.747205)
(0.658802 0 0.547873)
(0.186297 0 0.224525)
(-0.0081981 0 -0.453769)
(9.99559 0 0.0432079)
(9.97556 0 0.0752736)
(9.9318 0 0.103349)
(9.86489 0 0.132375)
(9.77777 0 0.163065)
(9.67154 0 0.195405)
(9.54586 0 0.229751)
(9.40011 0 0.266613)
(9.23362 0 0.306483)
(9.0456 0 0.349822)
(8.83504 0 0.39709)
(8.60076 0 0.448743)
(8.34138 0 0.505216)
(8.05542 0 0.566891)
(7.74128 0 0.634041)
(7.39733 0 0.706763)
(7.02198 0 0.784871)
(6.61381 0 0.867758)
(6.17178 0 0.954227)
(5.69546 0 1.04228)
(5.18545 0 1.1289)
(4.64377 0 1.2098)
(4.0746 0 1.27916)
(3.48519 0 1.32932)
(2.88667 0 1.35006)
(2.29931 0 1.32639)
(1.73171 0 1.22071)
(1.21615 0 0.972928)
(0.701073 0 0.57006)
(0.357997 0 -0.156681)
(9.99403 0 0.0495006)
(9.97181 0 0.0932089)
(9.92788 0 0.133576)
(9.86224 0 0.174215)
(9.77693 0 0.216441)
(9.67297 0 0.26067)
(9.5503 0 0.307441)
(9.40847 0 0.357429)
(9.247 0 0.411308)
(9.0653 0 0.469725)
(8.86264 0 0.533326)
(8.63814 0 0.602751)
(8.39078 0 0.678624)
(8.11944 0 0.76151)
(7.82291 0 0.851859)
(7.4999 0 0.949916)
(7.14912 0 1.05559)
(6.7693 0 1.16828)
(6.35934 0 1.28664)
(5.91843 0 1.4083)
(5.44635 0 1.5295)
(4.94381 0 1.6447)
(4.41298 0 1.74614)
(3.85808 0 1.8232)
(3.28564 0 1.86133)
(2.70624 0 1.84026)
(2.12551 0 1.72592)
(1.55416 0 1.47776)
(0.957884 0 1.08357)
(0.509403 0 0.502195)
(9.99331 0 0.0572153)
(9.96994 0 0.110962)
(9.92593 0 0.162109)
(9.86145 0 0.213355)
(9.77798 0 0.266366)
(9.67634 0 0.321926)
(9.55652 0 0.380716)
(9.41819 0 0.443506)
(9.26095 0 0.511077)
(9.0843 0 0.584195)
(8.88766 0 0.663617)
(8.67033 0 0.750097)
(8.43152 0 0.844373)
(8.17038 0 0.947127)
(7.88598 0 1.05892)
(7.57737 0 1.18012)
(7.24354 0 1.31074)
(6.88347 0 1.45023)
(6.49613 0 1.59727)
(6.08056 0 1.74937)
(5.63597 0 1.90244)
(5.16193 0 2.05034)
(4.65858 0 2.18418)
(4.12702 0 2.29172)
(3.56921 0 2.35651)
(2.98872 0 2.35724)
(2.38669 0 2.26484)
(1.76628 0 2.0475)
(1.08992 0 1.69124)
(0.536621 0 1.15397)
(9.99302 0 0.0655406)
(9.96923 0 0.128706)
(9.92556 0 0.19012)
(9.86252 0 0.251852)
(9.78128 0 0.315589)
(9.68243 0 0.382333)
(9.56599 0 0.452892)
(9.43169 0 0.528122)
(9.27918 0 0.608905)
(9.10803 0 0.696114)
(8.91773 0 0.790614)
(8.70769 0 0.893265)
(8.47722 0 1.0049)
(8.2256 0 1.12631)
(7.95206 0 1.25815)
(7.65578 0 1.40087)
(7.33591 0 1.5546)
(6.9915 0 1.71893)
(6.62153 0 1.89261)
(6.22483 0 2.07328)
(5.80009 0 2.25689)
(5.34584 0 2.43723)
(4.8605 0 2.6052)
(4.34249 0 2.74819)
(3.79019 0 2.84948)
(3.20238 0 2.8881)
(2.5764 0 2.83809)
(1.91334 0 2.67143)
(1.17267 0 2.37379)
(0.54993 0 1.89417)
(9.99297 0 0.0740771)
(9.96926 0 0.146318)
(9.92637 0 0.21749)
(9.86508 0 0.289301)
(9.78642 0 0.363368)
(9.69084 0 0.440843)
(9.57833 0 0.52268)
(9.4487 0 0.609835)
(9.30162 0 0.703284)
(9.13675 0 0.803999)
(8.9536 0 0.912941)
(8.75165 0 1.03106)
(8.53027 0 1.15927)
(8.2888 0 1.29846)
(8.0265 0 1.44936)
(7.74258 0 1.61255)
(7.43617 0 1.78826)
(7.10626 0 1.97624)
(6.75164 0 2.17548)
(6.37083 0 2.38388)
(5.9619 0 2.59779)
(5.52242 0 2.81142)
(5.0493 0 3.01616)
(4.53877 0 3.19994)
(3.98643 0 3.34661)
(3.38769 0 3.43585)
(2.73705 0 3.44314)
(2.03608 0 3.34127)
(1.24165 0 3.11331)
(0.563467 0 2.69286)
(9.99306 0 0.0825905)
(9.96981 0 0.163611)
(9.92807 0 0.244058)
(9.86884 0 0.32549)
(9.79312 0 0.40946)
(9.70125 0 0.497224)
(9.59322 0 0.589861)
(9.46886 0 0.688423)
(9.32794 0 0.793972)
(9.17011 0 0.907568)
(8.99499 0 1.03026)
(8.80206 0 1.16309)
(8.59076 0 1.30707)
(8.36043 0 1.46316)
(8.11036 0 1.63222)
(7.8397 0 1.81495)
(7.54749 0 2.01175)
(7.23253 0 2.2226)
(6.89334 0 2.44682)
(6.52798 0 2.68277)
(6.13388 0 2.92742)
(5.70762 0 3.17582)
(5.24472 0 3.42038)
(4.73952 0 3.65017)
(4.18521 0 3.85016)
(3.57449 0 4.00075)
(2.89927 0 4.0777)
(2.16191 0 4.05211)
(1.31599 0 3.90136)
(0.583158 0 3.53978)
(9.99326 0 0.090931)
(9.97072 0 0.180414)
(9.93046 0 0.269676)
(9.87362 0 0.360253)
(9.80117 0 0.453662)
(9.71343 0 0.551229)
(9.61037 0 0.654136)
(9.49187 0 0.763526)
(9.35774 0 0.880541)
(9.20771 0 1.00632)
(9.04142 0 1.14201)
(8.85843 0 1.28873)
(8.65822 0 1.44759)
(8.44015 0 1.61966)
(8.20349 0 1.80595)
(7.94736 0 2.0073)
(7.67066 0 2.22435)
(7.37202 0 2.45738)
(7.04963 0 2.70616)
(6.70108 0 2.96967)
(6.32312 0 3.24575)
(5.9114 0 3.5306)
(5.46008 0 3.8181)
(4.9617 0 4.09898)
(4.40708 0 4.35979)
(3.78607 0 4.58195)
(3.08725 0 4.74084)
(2.31244 0 4.80412)
(1.41046 0 4.74066)
(0.614224 0 4.44145)
(9.99352 0 0.098995)
(9.97191 0 0.196585)
(9.9334 0 0.294204)
(9.87924 0 0.393429)
(9.8104 0 0.495772)
(9.72716 0 0.602609)
(9.62952 0 0.715208)
(9.5174 0 0.834793)
(9.39067 0 0.962583)
(9.24911 0 1.09979)
(9.09243 0 1.24765)
(8.92024 0 1.40736)
(8.73208 0 1.58014)
(8.52736 0 1.76719)
(8.30536 0 1.96965)
(8.06517 0 2.18859)
(7.80561 0 2.42491)
(7.52516 0 2.67929)
(7.22174 0 2.95205)
(6.89256 0 3.24295)
(6.53379 0 3.55091)
(6.1402 0 3.87359)
(5.70473 0 4.20677)
(5.21812 0 4.5434)
(4.6686 0 4.87237)
(4.04245 0 5.17681)
(3.32328 0 5.43203)
(2.5094 0 5.60156)
(1.54161 0 5.64296)
(0.663935 0 5.41742)
(9.99384 0 0.106707)
(9.9733 0 0.212006)
(9.9368 0 0.317511)
(9.88558 0 0.424868)
(9.82063 0 0.535605)
(9.74225 0 0.651142)
(9.65044 0 0.772814)
(9.54517 0 0.901918)
(9.42637 0 1.03974)
(9.29388 0 1.18757)
(9.1475 0 1.34669)
(8.98691 0 1.51842)
(8.81171 0 1.70407)
(8.62138 0 1.90496)
(8.41525 0 2.12242)
(8.19244 0 2.35772)
(7.95177 0 2.6121)
(7.69165 0 2.88669)
(7.40988 0 3.18244)
(7.10343 0 3.50002)
(6.76809 0 3.83963)
(6.39803 0 4.20068)
(5.98519 0 4.58129)
(5.51866 0 4.97738)
(4.98389 0 5.38129)
(4.36273 0 5.77941)
(3.63135 0 6.14884)
(2.77961 0 6.45018)
(1.73307 0 6.62783)
(0.744648 0 6.50227)
(9.9942 0 0.114009)
(9.97487 0 0.226581)
(9.94056 0 0.339482)
(9.89252 0 0.454436)
(9.83173 0 0.573)
(9.75851 0 0.696631)
(9.67288 0 0.826721)
(9.57487 0 0.964627)
(9.46447 0 1.11169)
(9.34161 0 1.26927)
(9.20614 0 1.43871)
(9.05784 0 1.62141)
(8.89641 0 1.81878)
(8.72143 0 2.03226)
(8.53231 0 2.26335)
(8.32829 0 2.51357)
(8.10825 0 2.7845)
(7.87068 0 3.07773)
(7.61344 0 3.39491)
(7.33352 0 3.73768)
(7.02665 0 4.10765)
(6.68681 0 4.50621)
(6.30547 0 4.93427)
(5.87058 0 5.39156)
(5.36517 0 5.87538)
(4.7662 0 6.37814)
(4.03996 0 6.88292)
(3.16072 0 7.35294)
(2.02415 0 7.72232)
(0.880431 0 7.75594)
(9.99459 0 0.120856)
(9.97657 0 0.24023)
(9.94461 0 0.360017)
(9.89995 0 0.482013)
(9.84356 0 0.607813)
(9.77575 0 0.738905)
(9.69662 0 0.876725)
(9.60623 0 1.02268)
(9.50463 0 1.17816)
(9.39184 0 1.34457)
(9.2678 0 1.52332)
(9.13241 0 1.71586)
(8.98545 0 1.9237)
(8.82665 0 2.1484)
(8.65558 0 2.39161)
(8.47161 0 2.65508)
(8.27383 0 2.9407)
(8.06096 0 3.25053)
(7.8311 0 3.5869)
(7.58158 0 3.95241)
(7.30851 0 4.35008)
(7.00628 0 4.78341)
(6.66674 0 5.25634)
(6.27788 0 5.77316)
(5.82172 0 6.33782)
(5.27159 0 6.9524)
(4.58349 0 7.61338)
(3.70886 0 8.3003)
(2.48722 0 8.95708)
(1.12394 0 9.29152)
(9.99501 0 0.127214)
(9.97838 0 0.25289)
(9.94891 0 0.37903)
(9.9078 0 0.507499)
(9.85598 0 0.639925)
(9.79382 0 0.777824)
(9.72143 0 0.922666)
(9.63894 0 1.07589)
(9.54647 0 1.23894)
(9.44413 0 1.41323)
(9.33195 0 1.60022)
(9.20994 0 1.80144)
(9.07804 0 2.01843)
(8.93612 0 2.25287)
(8.78394 0 2.50652)
(8.62111 0 2.78134)
(8.44701 0 3.07948)
(8.2607 0 3.40341)
(8.0608 0 3.75602)
(7.84524 0 4.14078)
(7.61102 0 4.56199)
(7.35369 0 5.02504)
(7.06663 0 5.53688)
(6.73973 0 6.10649)
(6.35704 0 6.74554)
(5.89294 0 7.46908)
(5.29938 0 8.29623)
(4.50722 0 9.2474)
(3.26718 0 10.3404)
(1.60397 0 11.3564)
(9.99545 0 0.133054)
(9.98026 0 0.264509)
(9.95339 0 0.396451)
(9.91596 0 0.530801)
(9.86888 0 0.669216)
(9.81253 0 0.813234)
(9.74708 0 0.96435)
(9.67272 0 1.12403)
(9.58964 0 1.29372)
(9.49802 0 1.47489)
(9.39803 0 1.66902)
(9.28978 0 1.87765)
(9.17337 0 2.10239)
(9.04885 0 2.34496)
(8.91622 0 2.60724)
(8.77535 0 2.89129)
(8.62601 0 3.19948)
(8.46774 0 3.53455)
(8.29982 0 3.89983)
(8.1211 0 4.29939)
(7.92987 0 4.73847)
(7.72357 0 5.22389)
(7.49835 0 5.76489)
(7.24832 0 6.37426)
(6.96395 0 7.07043)
(6.62969 0 7.88121)
(6.21271 0 8.85194)
(5.66357 0 10.0655)
(4.68735 0 11.7295)
(2.68526 0 14.5872)
(0.120642 0 -0.119586)
(0.283281 0 -0.108917)
(0.449337 0 -0.0856103)
(0.587745 0 -0.0630002)
(0.692892 0 -0.0437393)
(0.768381 0 -0.0277862)
(0.818924 0 -0.0146102)
(0.848261 0 -0.00374206)
(0.859348 0 0.00500854)
(0.85495 0 0.0110999)
(0.837723 0 0.0152172)
(0.810604 0 0.0178454)
(0.776411 0 0.0191891)
(0.73779 0 0.0193578)
(0.697329 0 0.0184844)
(0.657479 0 0.0167709)
(0.620339 0 0.0144941)
(0.587444 0 0.011974)
(0.559642 0 0.0095288)
(0.537047 0 0.0074215)
(0.519113 0 0.00579829)
(0.504862 0 0.00466713)
(0.493219 0 0.00393107)
(0.483304 0 0.00344184)
(0.474598 0 0.00306314)
(0.466906 0 0.00272866)
(0.460144 0 0.00244153)
(0.454151 0 0.00223165)
(0.448634 0 0.00207725)
(0.442584 0 0.00166122)
(0.104718 0 -0.281964)
(0.264526 0 -0.264329)
(0.420839 0 -0.21464)
(0.554259 0 -0.165237)
(0.660872 0 -0.122796)
(0.744144 0 -0.0873566)
(0.808146 0 -0.0577804)
(0.85599 0 -0.0330034)
(0.889828 0 -0.0122586)
(0.911426 0 0.00490148)
(0.920207 0 0.0182148)
(0.918158 0 0.0279218)
(0.907921 0 0.034254)
(0.892138 0 0.0374063)
(0.873462 0 0.0376916)
(0.854395 0 0.0355997)
(0.837041 0 0.031754)
(0.822908 0 0.0268642)
(0.812793 0 0.0216774)
(0.806739 0 0.0168841)
(0.804133 0 0.0129638)
(0.803985 0 0.0100895)
(0.805269 0 0.00814646)
(0.807201 0 0.00682172)
(0.809385 0 0.00577699)
(0.811721 0 0.00484089)
(0.814185 0 0.00403253)
(0.816649 0 0.00346053)
(0.8188 0 0.00315194)
(0.820586 0 0.00283233)
(0.0843527 0 -0.447749)
(0.22377 0 -0.418896)
(0.35033 0 -0.342784)
(0.458294 0 -0.267967)
(0.544766 0 -0.204116)
(0.613354 0 -0.150942)
(0.667257 0 -0.106718)
(0.708815 0 -0.069876)
(0.739906 0 -0.0391363)
(0.761938 0 -0.0131293)
(0.778485 0 0.00848521)
(0.786672 0 0.0250842)
(0.788564 0 0.0364671)
(0.786097 0 0.0426766)
(0.781261 0 0.0441616)
(0.775932 0 0.0417268)
(0.771646 0 0.0363866)
(0.769466 0 0.0292999)
(0.769901 0 0.0217044)
(0.772832 0 0.0147659)
(0.777581 0 0.00928302)
(0.783175 0 0.00552877)
(0.78865 0 0.00330383)
(0.793302 0 0.00208424)
(0.796886 0 0.00132683)
(0.79958 0 0.000752279)
(0.801737 0 0.000358914)
(0.803643 0 0.000273651)
(0.805333 0 0.000558652)
(0.806693 0 0.00122034)
(0.0644999 0 -0.581256)
(0.177653 0 -0.535967)
(0.267594 0 -0.435963)
(0.345223 0 -0.341213)
(0.406399 0 -0.261667)
(0.455564 0 -0.19573)
(0.494853 0 -0.140939)
(0.5257 0 -0.095216)
(0.549243 0 -0.0571278)
(0.566292 0 -0.0258314)
(0.579311 0 -6.39614e-05)
(0.588109 0 0.0204131)
(0.59247 0 0.0347897)
(0.593996 0 0.0427347)
(0.594213 0 0.0447941)
(0.594345 0 0.0420382)
(0.595225 0 0.035793)
(0.597323 0 0.0275573)
(0.600723 0 0.0189282)
(0.605023 0 0.0114359)
(0.609352 0 0.00603379)
(0.612746 0 0.00295833)
(0.614443 0 0.00180763)
(0.61408 0 0.00171475)
(0.611802 0 0.00182785)
(0.608147 0 0.0016879)
(0.603721 0 0.00132196)
(0.598984 0 0.0010306)
(0.594137 0 0.00106802)
(0.588526 0 0.00177788)
(0.0439246 0 -0.684158)
(0.125501 0 -0.617557)
(0.17326 0 -0.496909)
(0.218121 0 -0.388626)
(0.250572 0 -0.299384)
(0.277147 0 -0.225803)
(0.298636 0 -0.164801)
(0.315901 0 -0.11386)
(0.32951 0 -0.0713814)
(0.339751 0 -0.036422)
(0.346731 0 -0.00732497)
(0.354625 0 0.0161163)
(0.358182 0 0.0324792)
(0.35918 0 0.0413303)
(0.359236 0 0.0435574)
(0.359064 0 0.0405217)
(0.358754 0 0.0337469)
(0.358126 0 0.0248877)
(0.356907 0 0.0157747)
(0.354658 0 0.00851201)
(0.350594 0 0.00391655)
(0.344245 0 0.00210807)
(0.335552 0 0.00240632)
(0.324474 0 0.0036615)
(0.311135 0 0.00490564)
(0.296185 0 0.0055864)
(0.280328 0 0.00572951)
(0.26416 0 0.00580648)
(0.248331 0 0.00627034)
(0.231552 0 0.00640674)
(0.0221312 0 -0.751157)
(0.0669143 0 -0.659444)
(0.0683923 0 -0.521553)
(0.0785853 0 -0.405749)
(0.0790882 0 -0.31164)
(0.0795774 0 -0.234733)
(0.079279 0 -0.171447)
(0.0791712 0 -0.118864)
(0.079707 0 -0.0752535)
(0.0806691 0 -0.0403265)
(0.0816013 0 -0.0133372)
(0.0827486 0 0.0110015)
(0.0804636 0 0.0312092)
(0.0758894 0 0.0418427)
(0.0698346 0 0.0448947)
(0.0616874 0 0.0426875)
(0.0503982 0 0.0370751)
(0.0351536 0 0.0297323)
(0.0156855 0 0.0222552)
(-0.00659066 0 0.0164029)
(-0.0295191 0 0.0133011)
(-0.0516588 0 0.012746)
(-0.0718267 0 0.0140238)
(-0.0895648 0 0.0157405)
(-0.105707 0 0.0169501)
(-0.120716 0 0.0172317)
(-0.135139 0 0.016852)
(-0.149251 0 0.0163264)
(-0.163093 0 0.0153245)
(-0.175216 0 0.0126228)
(-0.00239431 0 -0.775566)
(0.000383491 0 -0.656584)
(-0.045532 0 -0.506015)
(-0.0735876 0 -0.388555)
(-0.107655 0 -0.294503)
(-0.137556 0 -0.219256)
(-0.164314 0 -0.158653)
(-0.186954 0 -0.109344)
(-0.205723 0 -0.0684575)
(-0.222995 0 -0.0338005)
(-0.244073 0 -0.00362899)
(-0.265112 0 0.0215046)
(-0.272748 0 0.0385711)
(-0.283123 0 0.0485705)
(-0.295136 0 0.052685)
(-0.309683 0 0.052468)
(-0.326957 0 0.0492785)
(-0.346637 0 0.0443198)
(-0.368146 0 0.038696)
(-0.390721 0 0.0333215)
(-0.413234 0 0.0292521)
(-0.434869 0 0.0267099)
(-0.454734 0 0.0254444)
(-0.472094 0 0.0247923)
(-0.486873 0 0.0241175)
(-0.499351 0 0.0231463)
(-0.510075 0 0.0219957)
(-0.519686 0 0.0207797)
(-0.528513 0 0.0191283)
(-0.534844 0 0.0169116)
(-0.0329214 0 -0.749986)
(-0.0764672 0 -0.606018)
(-0.167047 0 -0.452737)
(-0.23869 0 -0.33771)
(-0.309567 0 -0.248541)
(-0.373116 0 -0.178806)
(-0.429632 0 -0.123462)
(-0.478838 0 -0.0785631)
(-0.521019 0 -0.0408432)
(-0.5578 0 -0.00913515)
(-0.589207 0 0.0156766)
(-0.606586 0 0.0337373)
(-0.621978 0 0.0478216)
(-0.635331 0 0.0576442)
(-0.648562 0 0.0626522)
(-0.662788 0 0.0635463)
(-0.678401 0 0.0612388)
(-0.695342 0 0.0567437)
(-0.713403 0 0.0512089)
(-0.732316 0 0.0457804)
(-0.751606 0 0.0413704)
(-0.770652 0 0.0381652)
(-0.788586 0 0.0357973)
(-0.80447 0 0.0336778)
(-0.817685 0 0.0313696)
(-0.828162 0 0.028886)
(-0.836428 0 0.0265417)
(-0.843375 0 0.0244771)
(-0.849465 0 0.0224215)
(-0.853221 0 0.0205593)
(-0.0697902 0 -0.672375)
(-0.160808 0 -0.507377)
(-0.300037 0 -0.357074)
(-0.416755 0 -0.25)
(-0.524275 0 -0.172049)
(-0.617547 0 -0.113707)
(-0.697026 0 -0.0684121)
(-0.763944 0 -0.0327021)
(-0.819902 0 -0.00434106)
(-0.86108 0 0.0174775)
(-0.889191 0 0.0343494)
(-0.912309 0 0.0481522)
(-0.930617 0 0.0594146)
(-0.945585 0 0.0674943)
(-0.958944 0 0.0720372)
(-0.972052 0 0.0731494)
(-0.985642 0 0.0712601)
(-0.999933 0 0.0671307)
(-1.01494 0 0.0618411)
(-1.03065 0 0.0565354)
(-1.04697 0 0.0519989)
(-1.06356 0 0.0483092)
(-1.07965 0 0.0449807)
(-1.09418 0 0.0414289)
(-1.10621 0 0.0374522)
(-1.11538 0 0.0334135)
(-1.12217 0 0.0298949)
(-1.1276 0 0.0271306)
(-1.13216 0 0.024936)
(-1.13469 0 0.0234807)
(-0.116792 0 -0.537037)
(-0.261624 0 -0.359181)
(-0.454035 0 -0.221452)
(-0.613682 0 -0.130857)
(-0.754086 0 -0.0690239)
(-0.871581 0 -0.0271442)
(-0.962873 0 0.000260293)
(-1.03191 0 0.0194127)
(-1.08256 0 0.0335712)
(-1.12216 0 0.0452292)
(-1.15391 0 0.05552)
(-1.17917 0 0.0646098)
(-1.19897 0 0.0721158)
(-1.21469 0 0.0776802)
(-1.22804 0 0.0809927)
(-1.2405 0 0.081778)
(-1.2529 0 0.0799554)
(-1.26549 0 0.0759536)
(-1.27831 0 0.0707817)
(-1.29155 0 0.065628)
(-1.30549 0 0.0612162)
(-1.32014 0 0.0574241)
(-1.33488 0 0.0535049)
(-1.34851 0 0.0487422)
(-1.35973 0 0.0431068)
(-1.36793 0 0.0373936)
(-1.37358 0 0.0326112)
(-1.37782 0 0.0291843)
(-1.38128 0 0.0269303)
(-1.38307 0 0.0257894)
(-0.184141 0 -0.343203)
(-0.404747 0 -0.168108)
(-0.671371 0 -0.0292888)
(-0.859055 0 0.0286298)
(-1.00308 0 0.0526223)
(-1.11085 0 0.0612477)
(-1.19477 0 0.0650235)
(-1.26086 0 0.0676318)
(-1.31303 0 0.0704545)
(-1.35439 0 0.0739789)
(-1.38729 0 0.0779919)
(-1.41327 0 0.0819431)
(-1.43343 0 0.0853199)
(-1.44913 0 0.0879779)
(-1.46217 0 0.0897221)
(-1.47418 0 0.0899378)
(-1.48596 0 0.087949)
(-1.49752 0 0.0837797)
(-1.50874 0 0.078438)
(-1.51995 0 0.0733174)
(-1.5319 0 0.0691852)
(-1.54504 0 0.0656469)
(-1.55895 0 0.0615073)
(-1.57217 0 0.0557377)
(-1.58294 0 0.0484114)
(-1.59031 0 0.0408639)
(-1.59479 0 0.034734)
(-1.59784 0 0.0307198)
(-1.60031 0 0.0284868)
(-1.60156 0 0.0275839)
(-0.299639 0 -0.00600156)
(-0.586198 0 0.166925)
(-0.85854 0 0.188352)
(-1.0556 0 0.181745)
(-1.2048 0 0.164201)
(-1.31774 0 0.145234)
(-1.40397 0 0.129334)
(-1.47046 0 0.117084)
(-1.52201 0 0.108245)
(-1.56227 0 0.102947)
(-1.5942 0 0.100495)
(-1.61951 0 0.0993375)
(-1.639 0 0.0984509)
(-1.65379 0 0.0979851)
(-1.66593 0 0.0980976)
(-1.67737 0 0.097818)
(-1.68884 0 0.0956337)
(-1.69982 0 0.0910155)
(-1.70975 0 0.0851064)
(-1.71906 0 0.0798069)
(-1.72911 0 0.0761067)
(-1.74104 0 0.073239)
(-1.7546 0 0.0692944)
(-1.76797 0 0.0626825)
(-1.77865 0 0.0534983)
(-1.7852 0 0.0437956)
(-1.78828 0 0.0361602)
(-1.78993 0 0.0316743)
(-1.79139 0 0.0296051)
(-1.79219 0 0.0289038)
(-0.383324 0 0.459418)
(-0.721077 0 0.494901)
(-1.04585 0 0.423009)
(-1.26161 0 0.34775)
(-1.41432 0 0.283733)
(-1.52377 0 0.230789)
(-1.60426 0 0.191784)
(-1.66552 0 0.164083)
(-1.71243 0 0.143701)
(-1.74848 0 0.129897)
(-1.77729 0 0.121656)
(-1.80072 0 0.115946)
(-1.81866 0 0.110724)
(-1.83155 0 0.106841)
(-1.84187 0 0.10544)
(-1.8524 0 0.105158)
(-1.86382 0 0.10309)
(-1.87464 0 0.0978061)
(-1.88339 0 0.0907953)
(-1.89058 0 0.0850034)
(-1.8985 0 0.0819621)
(-1.9093 0 0.0803661)
(-1.92304 0 0.0771768)
(-1.93723 0 0.0698926)
(-1.94826 0 0.0585214)
(-1.95392 0 0.0461029)
(-1.95514 0 0.0366744)
(-1.95496 0 0.0319078)
(-1.95533 0 0.0302854)
(-1.95576 0 0.0297934)
(-0.509037 0 0.984441)
(-0.941463 0 0.904434)
(-1.30589 0 0.687851)
(-1.50808 0 0.512853)
(-1.64161 0 0.39547)
(-1.7332 0 0.304638)
(-1.79699 0 0.244779)
(-1.84633 0 0.206557)
(-1.88479 0 0.176336)
(-1.91354 0 0.153702)
(-1.93708 0 0.1403)
(-1.95785 0 0.131048)
(-1.97378 0 0.121583)
(-1.98359 0 0.11398)
(-1.99067 0 0.111519)
(-1.99966 0 0.112417)
(-2.0114 0 0.111223)
(-2.02269 0 0.104937)
(-2.03032 0 0.0958049)
(-2.03475 0 0.0888286)
(-2.03987 0 0.0866747)
(-2.04945 0 0.087192)
(-2.06393 0 0.0855286)
(-2.07982 0 0.0777698)
(-2.09181 0 0.0636716)
(-2.09641 0 0.0476211)
(-2.09498 0 0.0359009)
(-2.09229 0 0.0311853)
(-2.09146 0 0.0305669)
(-2.09165 0 0.0303639)
(-0.749087 0 2.03092)
(-1.28834 0 1.5912)
(-1.67952 0 0.986983)
(-1.81382 0 0.598181)
(-1.89001 0 0.464718)
(-1.94525 0 0.357898)
(-1.97642 0 0.288583)
(-2.00821 0 0.244942)
(-2.03835 0 0.200353)
(-2.0576 0 0.164692)
(-2.07269 0 0.150158)
(-2.08991 0 0.143352)
(-2.10383 0 0.131795)
(-2.10915 0 0.119439)
(-2.11078 0 0.115189)
(-2.11735 0 0.118507)
(-2.13035 0 0.11913)
(-2.14333 0 0.111283)
(-2.14987 0 0.0985294)
(-2.15027 0 0.0895182)
(-2.15117 0 0.088991)
(-2.15908 0 0.0933221)
(-2.17496 0 0.0945913)
(-2.19375 0 0.0867851)
(-2.20751 0 0.0692148)
(-2.21074 0 0.0481009)
(-2.20536 0 0.0332224)
(-2.19903 0 0.0291171)
(-2.1969 0 0.0305666)
(-2.19711 0 0.030911)
(9.9959 0 0.138448)
(9.98225 0 0.275244)
(9.95811 0 0.412533)
(9.92454 0 0.552285)
(9.88242 0 0.696176)
(9.83217 0 0.84576)
(9.77399 0 1.00254)
(9.70816 0 1.168)
(9.63493 0 1.3436)
(9.55459 0 1.5308)
(9.4674 0 1.73109)
(9.37364 0 1.94603)
(9.27356 0 2.17725)
(9.16743 0 2.42648)
(9.05548 0 2.69564)
(8.93794 0 2.98686)
(8.81501 0 3.3026)
(8.6868 0 3.64576)
(8.5534 0 4.01983)
(8.4148 0 4.42922)
(8.27092 0 4.87954)
(8.12164 0 5.37827)
(7.96689 0 5.93559)
(7.80692 0 6.56583)
(7.64292 0 7.29006)
(7.4798 0 8.14087)
(7.33072 0 9.17217)
(7.28549 0 10.4774)
(7.74098 0 12.2013)
(7.91762 0 14.9184)
(9.99638 0 0.143408)
(9.98434 0 0.285098)
(9.96305 0 0.42726)
(9.93352 0 0.571894)
(9.89657 0 0.72069)
(9.85263 0 0.875207)
(9.80197 0 1.03695)
(9.74493 0 1.2074)
(9.68185 0 1.38802)
(9.6131 0 1.58025)
(9.53908 0 1.78558)
(9.4602 0 2.00554)
(9.37689 0 2.24174)
(9.28965 0 2.4959)
(9.19897 0 2.76992)
(9.10545 0 3.06591)
(9.00974 0 3.38629)
(8.91258 0 3.73392)
(8.81488 0 4.11225)
(8.71782 0 4.52554)
(8.62301 0 4.97921)
(8.53279 0 5.4803)
(8.45088 0 6.03814)
(8.38352 0 6.6653)
(8.34184 0 7.37904)
(8.34787 0 8.20277)
(8.44035 0 9.16667)
(8.67506 0 10.3041)
(9.32054 0 11.5601)
(9.80826 0 12.6516)
(9.99688 0 0.147845)
(9.98651 0 0.293909)
(9.96819 0 0.44041)
(9.94283 0 0.589363)
(9.91121 0 0.742462)
(9.87378 0 0.90126)
(9.83086 0 1.06725)
(9.78284 0 1.2419)
(9.73015 0 1.42663)
(9.67325 0 1.62288)
(9.61265 0 1.83209)
(9.5489 0 2.05574)
(9.48264 0 2.29539)
(9.41454 0 2.5527)
(9.34542 0 2.82946)
(9.27619 0 3.12769)
(9.20795 0 3.44964)
(9.14203 0 3.79797)
(9.08012 0 4.17579)
(9.02443 0 4.58687)
(8.97799 0 5.0358)
(8.94504 0 5.52828)
(8.93189 0 6.07129)
(8.94805 0 6.67324)
(9.00797 0 7.3436)
(9.13379 0 8.09104)
(9.3565 0 8.91753)
(9.68563 0 9.81211)
(10.2512 0 10.7236)
(10.9387 0 11.4428)
(9.9974 0 0.151706)
(9.98874 0 0.30157)
(9.97347 0 0.451816)
(9.95239 0 0.604461)
(9.92623 0 0.761191)
(9.89545 0 0.923543)
(9.86042 0 1.09299)
(9.82158 0 1.27095)
(9.77944 0 1.45883)
(9.73453 0 1.65801)
(9.68749 0 1.86986)
(9.63901 0 2.09579)
(9.58986 0 2.33727)
(9.54095 0 2.59583)
(9.49332 0 2.87314)
(9.44821 0 3.17099)
(9.4071 0 3.49139)
(9.37182 0 3.83661)
(9.34467 0 4.20923)
(9.32861 0 4.61221)
(9.32758 0 5.04899)
(9.34687 0 5.52339)
(9.39373 0 6.03956)
(9.47806 0 6.60148)
(9.61306 0 7.21195)
(9.81558 0 7.87067)
(10.1084 0 8.57061)
(10.5003 0 9.29718)
(11.0582 0 10.0403)
(11.8519 0 10.6868)
(9.99792 0 0.154945)
(9.99101 0 0.307988)
(9.97884 0 0.461342)
(9.96212 0 0.61701)
(9.94151 0 0.776659)
(9.91746 0 0.941795)
(9.8904 0 1.11385)
(9.86083 0 1.29422)
(9.82929 0 1.48422)
(9.79643 0 1.68518)
(9.76295 0 1.89838)
(9.72966 0 2.12514)
(9.69749 0 2.36679)
(9.66752 0 2.62471)
(9.641 0 2.90034)
(9.6194 0 3.19523)
(9.60452 0 3.51103)
(9.59852 0 3.84952)
(9.60411 0 4.21261)
(9.62467 0 4.60237)
(9.66451 0 5.0209)
(9.72916 0 5.47021)
(9.82572 0 5.95194)
(9.96312 0 6.46679)
(10.1525 0 7.0137)
(10.4068 0 7.58881)
(10.7435 0 8.18403)
(11.1742 0 8.78469)
(11.7221 0 9.37922)
(12.4761 0 9.89268)
(9.99845 0 0.157518)
(9.9933 0 0.313078)
(9.98427 0 0.468862)
(9.97194 0 0.626846)
(9.9569 0 0.788662)
(9.93962 0 0.955777)
(9.92055 0 1.12958)
(9.90023 0 1.31138)
(9.87926 0 1.50246)
(9.85834 0 1.70404)
(9.83827 0 1.9173)
(9.81995 0 2.14343)
(9.80442 0 2.38359)
(9.79287 0 2.63899)
(9.78672 0 2.91082)
(9.78763 0 3.2003)
(9.79755 0 3.50867)
(9.81885 0 3.8372)
(9.85441 0 4.1871)
(9.9077 0 4.5595)
(9.98303 0 4.9553)
(10.0856 0 5.37499)
(10.2218 0 5.8183)
(10.3991 0 6.28379)
(10.6264 0 6.76821)
(10.9134 0 7.2658)
(11.2713 0 7.76735)
(11.7082 0 8.25728)
(12.2249 0 8.71892)
(12.9018 0 9.11068)
(9.99898 0 0.159387)
(9.9956 0 0.316763)
(9.98971 0 0.474263)
(9.98177 0 0.633819)
(9.97229 0 0.79702)
(9.96174 0 0.965279)
(9.9506 0 1.13992)
(9.93943 0 1.32219)
(9.92888 0 1.51328)
(9.9197 0 1.7143)
(9.91274 0 1.92632)
(9.90896 0 2.15038)
(9.90948 0 2.38747)
(9.9156 0 2.63856)
(9.9288 0 2.90458)
(9.95082 0 3.18642)
(9.98371 0 3.48491)
(10.0299 0 3.80076)
(10.0921 0 4.13453)
(10.1738 0 4.48653)
(10.279 0 4.85666)
(10.4121 0 5.24423)
(10.5786 0 5.64765)
(10.7843 0 6.06413)
(11.0357 0 6.48919)
(11.3392 0 6.91613)
(11.701 0 7.3356)
(12.1253 0 7.73416)
(12.6059 0 8.09724)
(13.2123 0 8.40426)
(9.99951 0 0.160518)
(9.99789 0 0.318976)
(9.9951 0 0.477448)
(9.99151 0 0.637806)
(9.98753 0 0.801582)
(9.98362 0 0.970128)
(9.98028 0 1.1447)
(9.97808 0 1.32645)
(9.97769 0 1.51648)
(9.9799 0 1.71578)
(9.98559 0 1.9253)
(9.99577 0 2.1459)
(10.0116 0 2.3784)
(10.0344 0 2.62353)
(10.0656 0 2.88194)
(10.1071 0 3.1542)
(10.1608 0 3.44072)
(10.229 0 3.74173)
(10.3145 0 4.05723)
(10.4202 0 4.38683)
(10.5495 0 4.72967)
(10.7063 0 5.08424)
(10.8947 0 5.44814)
(11.1191 0 5.81787)
(11.3838 0 6.18851)
(11.6925 0 6.5535)
(12.0481 0 6.90455)
(12.4522 0 7.23133)
(12.8971 0 7.52268)
(13.441 0 7.76722)
(10 0 0.160882)
(10.0001 0 0.319663)
(10.0004 0 0.478336)
(10.0011 0 0.638704)
(10.0025 0 0.80223)
(10.0051 0 0.970195)
(10.0093 0 1.14377)
(10.0158 0 1.32402)
(10.0252 0 1.51194)
(10.0384 0 1.7084)
(10.0561 0 1.91419)
(10.0795 0 2.13004)
(10.1097 0 2.35654)
(10.1479 0 2.59422)
(10.1957 0 2.84347)
(10.2548 0 3.10452)
(10.327 0 3.37743)
(10.4144 0 3.66202)
(10.5194 0 3.95781)
(10.6447 0 4.26392)
(10.793 0 4.57896)
(10.9673 0 4.90091)
(11.1707 0 5.22698)
(11.4061 0 5.55345)
(11.676 0 5.87558)
(11.9825 0 6.1875)
(12.3262 0 6.48233)
(12.7071 0 6.75223)
(13.1174 0 6.98882)
(13.6058 0 7.18523)
(10.0005 0 0.160459)
(10.0023 0 0.318781)
(10.0056 0 0.476869)
(10.0104 0 0.63644)
(10.0171 0 0.798882)
(10.0259 0 0.965394)
(10.0375 0 1.13706)
(10.0523 0 1.31485)
(10.0711 0 1.49963)
(10.0946 0 1.69217)
(10.1237 0 1.8931)
(10.1594 0 2.10299)
(10.2028 0 2.32225)
(10.2552 0 2.55119)
(10.3179 0 2.78995)
(10.3926 0 3.0385)
(10.4808 0 3.29659)
(10.5845 0 3.56371)
(10.7056 0 3.83903)
(10.8464 0 4.12132)
(11.0089 0 4.40889)
(11.1955 0 4.69948)
(11.4081 0 4.99022)
(11.6485 0 5.27751)
(11.9181 0 5.55706)
(12.2175 0 5.82388)
(12.5462 0 6.07243)
(12.903 0 6.29681)
(13.2807 0 6.49094)
(13.7211 0 6.65066)
(10.001 0 0.159233)
(10.0044 0 0.316302)
(10.0106 0 0.473005)
(10.0194 0 0.630968)
(10.0311 0 0.791492)
(10.0459 0 0.955689)
(10.0645 0 1.12455)
(10.0872 0 1.29894)
(10.1148 0 1.47962)
(10.148 0 1.66721)
(10.1877 0 1.86224)
(10.2348 0 2.06509)
(10.2902 0 2.27602)
(10.3553 0 2.49513)
(10.4312 0 2.72235)
(10.5194 0 2.95744)
(10.6212 0 3.1999)
(10.7383 0 3.44897)
(10.8723 0 3.7036)
(11.0249 0 3.96237)
(11.1976 0 4.22342)
(11.392 0 4.48448)
(11.6093 0 4.74277)
(11.8504 0 4.99504)
(12.1157 0 5.23755)
(12.4051 0 5.46621)
(12.7172 0 5.67668)
(13.0504 0 5.86458)
(13.3983 0 6.02568)
(13.7976 0 6.15743)
(10.0015 0 0.157196)
(10.0065 0 0.312211)
(10.0154 0 0.466728)
(10.028 0 0.622271)
(10.0445 0 0.780051)
(10.065 0 0.941087)
(10.0901 0 1.10627)
(10.1203 0 1.27637)
(10.1561 0 1.45203)
(10.1983 0 1.63375)
(10.2476 0 1.82193)
(10.305 0 2.0168)
(10.3713 0 2.21846)
(10.4475 0 2.42687)
(10.5349 0 2.64177)
(10.6345 0 2.86274)
(10.7476 0 3.08912)
(10.8755 0 3.31998)
(11.0194 0 3.55415)
(11.1805 0 3.7901)
(11.3599 0 4.02601)
(11.5585 0 4.25967)
(11.777 0 4.48855)
(12.0156 0 4.7098)
(12.2741 0 4.92029)
(12.5517 0 5.11675)
(12.8469 0 5.29584)
(13.1578 0 5.45441)
(13.4789 0 5.58951)
(13.8428 0 5.69964)
(10.0019 0 0.154348)
(10.0084 0 0.306507)
(10.0199 0 0.458041)
(10.0362 0 0.610363)
(10.0571 0 0.764588)
(10.083 0 0.921644)
(10.1142 0 1.08232)
(10.1513 0 1.24729)
(10.1947 0 1.41708)
(10.245 0 1.59209)
(10.3031 0 1.77258)
(10.3696 0 1.95866)
(10.4454 0 2.15032)
(10.5314 0 2.34735)
(10.6284 0 2.54939)
(10.7376 0 2.75586)
(10.8598 0 2.96601)
(10.996 0 3.17884)
(11.1471 0 3.39309)
(11.3139 0 3.60727)
(11.4971 0 3.81962)
(11.6972 0 4.02814)
(11.9142 0 4.23059)
(12.148 0 4.42453)
(12.398 0 4.60743)
(12.6632 0 4.7767)
(12.9418 0 4.92985)
(13.232 0 5.0646)
(13.5292 0 5.17897)
(13.8625 0 5.27209)
(10.0024 0 0.150694)
(10.0102 0 0.299204)
(10.0241 0 0.446967)
(10.0438 0 0.595283)
(10.0689 0 0.745169)
(10.0997 0 0.897458)
(10.1366 0 1.05285)
(10.18 0 1.2119)
(10.2302 0 1.37505)
(10.288 0 1.54259)
(10.3538 0 1.71468)
(10.4284 0 1.89132)
(10.5124 0 2.07238)
(10.6066 0 2.25756)
(10.7117 0 2.4464)
(10.8285 0 2.63825)
(10.9578 0 2.83229)
(11.1001 0 3.02749)
(11.2561 0 3.22261)
(11.4264 0 3.41625)
(11.6111 0 3.60677)
(11.8103 0 3.7924)
(12.024 0 3.97121)
(12.2515 0 4.1412)
(12.4922 0 4.30032)
(12.7447 0 4.44658)
(13.0075 0 4.57814)
(13.2787 0 4.69339)
(13.5546 0 4.79099)
(13.8614 0 4.87052)
(10.0027 0 0.146247)
(10.0119 0 0.290327)
(10.0281 0 0.43355)
(10.0508 0 0.577098)
(10.0798 0 0.72189)
(10.1152 0 0.868666)
(10.1572 0 1.01803)
(10.2063 0 1.17045)
(10.2627 0 1.32627)
(10.327 0 1.48569)
(10.3996 0 1.64878)
(10.4811 0 1.81545)
(10.5721 0 1.98548)
(10.6731 0 2.15852)
(10.7847 0 2.33402)
(10.9075 0 2.51131)
(11.042 0 2.68955)
(11.1886 0 2.86772)
(11.3476 0 3.04467)
(11.5193 0 3.21908)
(11.7036 0 3.38951)
(11.9005 0 3.55441)
(12.1094 0 3.71217)
(12.3298 0 3.86115)
(12.5606 0 3.99975)
(12.8007 0 4.12646)
(13.0485 0 4.23993)
(13.3024 0 4.33903)
(13.5593 0 4.42289)
(13.8431 0 4.49136)
(10.0031 0 0.141025)
(10.0134 0 0.279916)
(10.0317 0 0.417851)
(10.0573 0 0.555898)
(10.0898 0 0.694878)
(10.1293 0 0.835441)
(10.1759 0 0.978101)
(10.23 0 1.12325)
(10.2919 0 1.27113)
(10.3619 0 1.42187)
(10.4404 0 1.57547)
(10.5278 0 1.73177)
(10.6245 0 1.89049)
(10.731 0 2.05122)
(10.8478 0 2.21341)
(10.975 0 2.37637)
(11.1132 0 2.53927)
(11.2624 0 2.70115)
(11.4228 0 2.86094)
(11.5943 0 3.01748)
(11.7769 0 3.1695)
(11.9701 0 3.31569)
(12.1734 0 3.45472)
(12.386 0 3.58528)
(12.607 0 3.70612)
(12.8351 0 3.81612)
(13.069 0 3.91429)
(13.3072 0 3.99988)
(13.547 0 4.07234)
(13.8107 0 4.13166)
(10.0034 0 0.135053)
(10.0148 0 0.268018)
(10.035 0 0.399947)
(10.0632 0 0.531793)
(10.0988 0 0.664285)
(10.142 0 0.797983)