/*--------------------------------*- C++ -*----------------------------------*\
  =========                 |
  \\      /  F ield         | OpenFOAM: The Open Source CFD Toolbox
   \\    /   O peration     | Website:  https://openfoam.org
    \\  /    A nd           | Version:  dev
     \\/     M anipulation  |
\*---------------------------------------------------------------------------*/
FoamFile
{
    version     2.0;
    format      ascii;
    class       surfaceVectorField;
    location    "4.9";
    object      Uf;
}
// * * * * * * * * * * * * * * * * * * * * * * * * * * * * * * * * * * * * * //

dimensions      [0 1 -1 0 0 0 0];

internalField   nonuniform List<vector> 
5457
(
(9.92088 0 0.0251096)
(9.97125 0 0.0387458)
(9.82401 0 0.0328269)
(9.92859 0 0.0485852)
(9.70961 0 0.0393121)
(9.85548 0 0.0587682)
(9.57544 0 0.0460117)
(9.7568 0 0.0705935)
(9.42138 0 0.0529491)
(9.63753 0 0.0830136)
(9.24754 0 0.0601664)
(9.49861 0 0.0959368)
(9.05362 0 0.0678111)
(9.3393 0 0.109613)
(8.83892 0 0.0760347)
(9.15874 0 0.124289)
(8.60252 0 0.0849704)
(8.95609 0 0.140168)
(8.34326 0 0.0947451)
(8.73038 0 0.157434)
(8.05984 0 0.105487)
(8.4804 0 0.17627)
(7.7508 0 0.117328)
(8.20477 0 0.196857)
(7.41456 0 0.130396)
(7.90195 0 0.219362)
(7.0495 0 0.144811)
(7.5703 0 0.243924)
(6.65403 0 0.160673)
(7.20819 0 0.270634)
(6.22672 0 0.178045)
(6.814 0 0.299502)
(5.76643 0 0.196929)
(6.38634 0 0.330415)
(5.27258 0 0.217234)
(5.92418 0 0.363085)
(4.74539 0 0.238736)
(5.42711 0 0.396977)
(4.18622 0 0.261033)
(4.89567 0 0.431238)
(3.59799 0 0.283489)
(4.33166 0 0.46462)
(2.98558 0 0.305203)
(3.73863 0 0.495426)
(2.35614 0 0.325069)
(3.1223 0 0.521513)
(1.71913 0 0.342548)
(2.4911 0 0.540558)
(1.08438 0 0.361881)
(1.85589 0 0.551674)
(0.451863 0 0.348691)
(1.24551 0 0.563021)
(-0.145822 0 0.102475)
(0.60895 0 0.54489)
(-0.423616 0 -0.207098)
(0.0946718 0 0.259381)
(-0.402155 0 -0.361267)
(-0.133652 0 -0.0205227)
(-0.119682 0 -0.393886)
(9.99641 0 0.0516725)
(9.99705 0 0.0405046)
(9.95879 0 0.0708616)
(9.97851 0 0.0674546)
(9.89824 0 0.087987)
(9.93377 0 0.0898701)
(9.81659 0 0.105985)
(9.86453 0 0.113555)
(9.71359 0 0.124922)
(9.77438 0 0.138515)
(9.58909 0 0.144854)
(9.66435 0 0.164647)
(9.44274 0 0.166091)
(9.53397 0 0.192332)
(9.2739 0 0.188968)
(9.3825 0 0.222031)
(9.08166 0 0.213784)
(9.20919 0 0.254149)
(8.8649 0 0.240816)
(9.01316 0 0.289065)
(8.6223 0 0.270338)
(8.79331 0 0.327154)
(8.35239 0 0.302608)
(8.54835 0 0.368787)
(8.05356 0 0.337858)
(8.27683 0 0.414318)
(7.72412 0 0.376264)
(7.97717 0 0.464048)
(7.36237 0 0.417904)
(7.64771 0 0.518191)
(6.96672 0 0.462709)
(7.28682 0 0.576808)
(6.53583 0 0.510388)
(6.89295 0 0.639728)
(6.06884 0 0.560334)
(6.46482 0 0.706429)
(5.5656 0 0.611522)
(6.0016 0 0.775911)
(5.02711 0 0.662386)
(5.50327 0 0.846525)
(4.4559 0 0.710709)
(4.9709 0 0.915807)
(3.85652 0 0.753541)
(4.4072 0 0.980308)
(3.23622 0 0.787197)
(3.81706 0 1.03546)
(2.60584 0 0.807502)
(3.20848 0 1.07549)
(1.98282 0 0.810468)
(2.59342 0 1.09315)
(1.40531 0 0.776901)
(1.99623 0 1.07709)
(0.929775 0 0.646409)
(1.41952 0 0.978417)
(0.439879 0 0.384352)
(0.93759 0 0.716806)
(0.0591846 0 -0.118601)
(0.443815 0 0.343538)
(0.174924 0 -0.335919)
(9.98903 0 0.059431)
(9.99481 0 0.0458775)
(9.95434 0 0.0894767)
(9.97368 0 0.0848544)
(9.89729 0 0.118032)
(9.92984 0 0.119174)
(9.82046 0 0.147899)
(9.86357 0 0.153977)
(9.72416 0 0.179422)
(9.77736 0 0.190409)
(9.60821 0 0.212776)
(9.67227 0 0.228637)
(9.47234 0 0.248393)
(9.5481 0 0.26913)
(9.31607 0 0.286775)
(9.40431 0 0.312497)
(9.13868 0 0.328398)
(9.24034 0 0.359326)
(8.93924 0 0.373722)
(9.05549 0 0.410175)
(8.71664 0 0.423206)
(8.84889 0 0.465599)
(8.4696 0 0.477296)
(8.61951 0 0.526153)
(8.19667 0 0.536398)
(8.36615 0 0.592372)
(7.89632 0 0.60084)
(8.08751 0 0.664736)
(7.56692 0 0.670808)
(7.78219 0 0.743616)
(7.20684 0 0.746253)
(7.44873 0 0.829186)
(6.81457 0 0.826779)
(7.08568 0 0.921315)
(6.38888 0 0.911479)
(6.69171 0 1.0194)
(5.92904 0 0.998754)
(6.26573 0 1.12217)
(5.43515 0 1.08609)
(5.80713 0 1.22742)
(4.90857 0 1.16982)
(5.31609 0 1.33174)
(4.35245 0 1.24489)
(4.794 0 1.43019)
(3.77262 0 1.30455)
(4.244 0 1.51588)
(3.17876 0 1.33984)
(3.67184 0 1.57943)
(2.58666 0 1.33812)
(3.08635 0 1.60775)
(2.01989 0 1.27298)
(2.50295 0 1.58159)
(1.48697 0 1.09542)
(1.92877 0 1.46426)
(0.958317 0 0.769186)
(1.38527 0 1.21042)
(0.479891 0 0.202474)
(0.829558 0 0.801059)
(0.433739 0 0.134105)
(9.98515 0 0.071614)
(9.99367 0 0.0531479)
(9.95039 0 0.11363)
(9.97087 0 0.102291)
(9.89436 0 0.154134)
(9.92691 0 0.147954)
(9.81882 0 0.195574)
(9.86185 0 0.193722)
(9.72442 0 0.238812)
(9.77746 0 0.241278)
(9.61112 0 0.284325)
(9.67467 0 0.291164)
(9.47874 0 0.332721)
(9.55343 0 0.343956)
(9.32694 0 0.384675)
(9.41335 0 0.400373)
(9.15523 0 0.440847)
(9.254 0 0.46114)
(8.96291 0 0.501884)
(9.07483 0 0.526962)
(8.74916 0 0.568428)
(8.87519 0 0.598536)
(8.51303 0 0.641111)
(8.65429 0 0.676562)
(8.25346 0 0.720529)
(8.41122 0 0.761719)
(7.96925 0 0.807187)
(8.14499 0 0.854634)
(7.65917 0 0.901434)
(7.85454 0 0.955816)
(7.32192 0 1.00334)
(7.53875 0 1.06556)
(6.95621 0 1.11257)
(7.19646 0 1.18384)
(6.56085 0 1.22813)
(6.82653 0 1.31007)
(6.1349 0 1.34816)
(6.4279 0 1.44291)
(5.67786 0 1.46959)
(5.99967 0 1.57989)
(5.19002 0 1.58776)
(5.54136 0 1.71707)
(4.67289 0 1.69602)
(5.05307 0 1.84853)
(4.12982 0 1.78514)
(4.53599 0 1.96583)
(3.56668 0 1.84252)
(3.99276 0 2.0573)
(2.99208 0 1.85073)
(3.42763 0 2.10714)
(2.41587 0 1.78249)
(2.84766 0 2.09449)
(1.84057 0 1.60047)
(2.25626 0 1.98875)
(1.25941 0 1.27845)
(1.66034 0 1.75306)
(0.666784 0 0.789562)
(1.02398 0 1.36779)
(0.523042 0 0.787178)
(9.98337 0 0.0844075)
(9.99316 0 0.0612914)
(9.94821 0 0.136837)
(9.96958 0 0.119927)
(9.89314 0 0.188032)
(9.92575 0 0.17624)
(9.81906 0 0.240169)
(9.86199 0 0.232698)
(9.72663 0 0.294468)
(9.77964 0 0.291088)
(9.6159 0 0.35166)
(9.6794 0 0.352274)
(9.48671 0 0.41247)
(9.56127 0 0.416978)
(9.33878 0 0.477676)
(9.42496 0 0.486009)
(9.1717 0 0.54805)
(9.27009 0 0.560204)
(8.98492 0 0.624353)
(9.0962 0 0.640386)
(8.77778 0 0.707342)
(8.90274 0 0.727366)
(8.54953 0 0.797761)
(8.68906 0 0.821954)
(8.29935 0 0.896322)
(8.45444 0 0.924938)
(8.02634 0 1.00365)
(8.19807 0 1.03705)
(7.72957 0 1.1202)
(7.91911 0 1.15891)
(7.40805 0 1.24616)
(7.61668 0 1.29092)
(7.06076 0 1.38126)
(7.28985 0 1.43314)
(6.68669 0 1.52458)
(6.93763 0 1.58509)
(6.28486 0 1.67418)
(6.55899 0 1.74549)
(5.85439 0 1.82678)
(6.15288 0 1.91187)
(5.39472 0 1.97724)
(5.71823 0 2.08015)
(4.90577 0 2.11804)
(5.25409 0 2.24408)
(4.38827 0 2.2386)
(4.75976 0 2.3946)
(3.84397 0 2.32454)
(4.23497 0 2.51919)
(3.27546 0 2.35695)
(3.67992 0 2.60124)
(2.68542 0 2.3106)
(3.09575 0 2.61971)
(2.07271 0 2.15502)
(2.48172 0 2.54733)
(1.4294 0 1.86742)
(1.83994 0 2.35374)
(0.742622 0 1.4196)
(1.13138 0 2.02455)
(0.543313 0 1.51453)
(9.98264 0 0.0974977)
(9.99299 0 0.0697928)
(9.94744 0 0.159775)
(9.96925 0 0.137583)
(9.89354 0 0.221348)
(9.92597 0 0.203927)
(9.82134 0 0.284092)
(9.86381 0 0.270688)
(9.73134 0 0.349348)
(9.78385 0 0.339583)
(9.62367 0 0.418019)
(9.68664 0 0.411697)
(9.49819 0 0.490938)
(9.57218 0 0.487903)
(9.35465 0 0.568974)
(9.44021 0 0.569104)
(9.19269 0 0.653003)
(9.29042 0 0.656233)
(9.01183 0 0.743896)
(9.12242 0 0.750213)
(8.81151 0 0.842514)
(8.93571 0 0.851955)
(8.59108 0 0.949706)
(8.72972 0 0.962364)
(8.34984 0 1.06628)
(8.50381 0 1.08232)
(8.08705 0 1.19296)
(8.25727 0 1.21264)
(7.80191 0 1.3303)
(7.98937 0 1.35404)
(7.49359 0 1.47859)
(7.69929 0 1.50702)
(7.16119 0 1.63768)
(7.38616 0 1.67176)
(6.80372 0 1.80674)
(7.04902 0 1.84791)
(6.42011 0 1.98396)
(6.68675 0 2.03435)
(6.00913 0 2.16613)
(6.29801 0 2.22882)
(5.56942 0 2.3481)
(5.8812 0 2.42747)
(5.09948 0 2.5222)
(5.43435 0 2.62425)
(4.59776 0 2.67756)
(4.95513 0 2.81028)
(4.06272 0 2.79949)
(4.44087 0 2.97322)
(3.49273 0 2.86911)
(3.88854 0 3.09662)
(2.88585 0 2.86293)
(3.29526 0 3.1599)
(2.23804 0 2.75395)
(2.65692 0 3.13792)
(1.54246 0 2.52106)
(1.97486 0 3.00322)
(0.793658 0 2.13137)
(1.20726 0 2.74064)
(0.556744 0 2.29187)
(9.9825 0 0.110626)
(9.99302 0 0.0783614)
(9.9477 0 0.182324)
(9.96954 0 0.155037)
(9.89522 0 0.253817)
(9.92722 0 0.230886)
(9.82524 0 0.326767)
(9.86697 0 0.307509)
(9.73813 0 0.402555)
(9.78977 0 0.386522)
(9.63403 0 0.482233)
(9.69605 0 0.469148)
(9.51285 0 0.566757)
(9.58579 0 0.556397)
(9.37437 0 0.657092)
(9.4588 0 0.64927)
(9.21828 0 0.754212)
(9.3148 0 0.748786)
(9.04413 0 0.859083)
(9.15346 0 0.855961)
(8.85144 0 0.97266)
(8.97433 0 0.971799)
(8.63962 0 1.09588)
(8.7769 0 1.09729)
(8.40802 0 1.22964)
(8.56057 0 1.23341)
(8.15594 0 1.37475)
(8.32469 0 1.38107)
(7.88264 0 1.53186)
(8.06852 0 1.54107)
(7.58726 0 1.70138)
(7.79125 0 1.71404)
(7.26889 0 1.88329)
(7.49195 0 1.9003)
(6.92642 0 2.07697)
(7.16954 0 2.09969)
(6.55851 0 2.28085)
(6.82266 0 2.31138)
(6.16347 0 2.49205)
(6.44959 0 2.53348)
(5.73914 0 2.70583)
(6.0481 0 2.76264)
(5.28275 0 2.91498)
(5.61526 0 2.99346)
(4.79085 0 3.10915)
(5.14726 0 3.21784)
(4.25932 0 3.2742)
(4.63941 0 3.42427)
(3.68342 0 3.39186)
(4.08609 0 3.59715)
(3.05808 0 3.4397)
(3.48135 0 3.71654)
(2.37776 0 3.39182)
(2.8184 0 3.75814)
(1.63793 0 3.22621)
(2.09918 0 3.69401)
(0.839142 0 2.90089)
(1.27894 0 3.50452)
(0.573369 0 3.11376)
(9.98273 0 0.123581)
(9.99316 0 0.0868174)
(9.94873 0 0.204309)
(9.97027 0 0.172093)
(9.89794 0 0.285252)
(9.92926 0 0.256975)
(9.83051 0 0.367965)
(9.87123 0 0.342988)
(9.74671 0 0.453851)
(9.79715 0 0.431678)
(9.64668 0 0.544077)
(9.70735 0 0.524351)
(9.53038 0 0.639707)
(9.6018 0 0.622135)
(9.39762 0 0.741799)
(9.48038 0 0.726125)
(9.24812 0 0.851413)
(9.34286 0 0.837423)
(9.08152 0 0.969605)
(9.18894 0 0.95713)
(8.89736 0 1.09742)
(9.01824 0 1.08634)
(8.69509 0 1.23588)
(8.83029 0 1.22613)
(8.47412 0 1.38598)
(8.62454 0 1.37757)
(8.23376 0 1.54862)
(8.40036 0 1.54168)
(7.97322 0 1.72459)
(8.15701 0 1.71937)
(7.69161 0 1.91444)
(7.89363 0 1.91142)
(7.38785 0 2.11834)
(7.60919 0 2.11835)
(7.06062 0 2.33595)
(7.30242 0 2.34028)
(6.70821 0 2.56611)
(6.97165 0 2.57675)
(6.32837 0 2.80647)
(6.61472 0 2.82642)
(5.91812 0 3.05303)
(6.22873 0 3.08669)
(5.47347 0 3.29952)
(5.80976 0 3.35316)
(4.98934 0 3.53665)
(5.35268 0 3.61897)
(4.45937 0 3.75141)
(4.85091 0 3.87399)
(3.87626 0 3.92647)
(4.29646 0 4.10394)
(3.23237 0 4.03987)
(3.68059 0 4.28969)
(2.52087 0 4.06501)
(2.99355 0 4.4068)
(1.7384 0 3.97617)
(2.23741 0 4.42462)
(0.889487 0 3.71881)
(1.36338 0 4.31634)
(0.598764 0 3.98496)
(9.98321 0 0.136203)
(9.99339 0 0.0950403)
(9.95032 0 0.225572)
(9.97131 0 0.188589)
(9.90151 0 0.315496)
(9.93193 0 0.282049)
(9.83694 0 0.407503)
(9.87643 0 0.37696)
(9.75684 0 0.503012)
(9.80579 0 0.47484)
(9.66135 0 0.603276)
(9.7203 0 0.57705)
(9.55046 0 0.709458)
(9.61995 0 0.684814)
(9.42403 0 0.8227)
(9.50465 0 0.799315)
(9.28183 0 0.944144)
(9.37422 0 0.921733)
(9.12355 0 1.07493)
(9.22843 0 1.05325)
(8.94879 0 1.21619)
(9.06695 0 1.19503)
(8.75705 0 1.36904)
(8.88937 0 1.34827)
(8.54776 0 1.53458)
(8.6952 0 1.51411)
(8.32024 0 1.71383)
(8.48381 0 1.6937)
(8.07369 0 1.90773)
(8.2545 0 1.88809)
(7.80713 0 2.11701)
(8.00635 0 2.09825)
(7.51932 0 2.34214)
(7.73825 0 2.32495)
(7.20868 0 2.58314)
(7.44873 0 2.56867)
(6.87311 0 2.83937)
(7.13585 0 2.82943)
(6.50979 0 3.10925)
(6.79702 0 3.10662)
(6.1149 0 3.38978)
(6.42869 0 3.39859)
(5.68335 0 3.676)
(6.02607 0 3.70228)
(5.20842 0 3.9602)
(5.58272 0 4.01247)
(4.6817 0 4.23098)
(5.09026 0 4.32095)
(4.09323 0 4.47231)
(4.53821 0 4.61538)
(3.43246 0 4.66255)
(3.91464 0 4.87787)
(2.69009 0 4.77317)
(3.20563 0 5.08359)
(1.86182 0 4.77243)
(2.41124 0 5.19799)
(0.954164 0 4.58976)
(1.47625 0 5.18434)
(0.63918 0 4.9195)
(9.98386 0 0.148369)
(9.99368 0 0.102944)
(9.95235 0 0.245971)
(9.9726 0 0.204394)
(9.90578 0 0.344399)
(9.9351 0 0.30597)
(9.84437 0 0.445199)
(9.88241 0 0.409271)
(9.76833 0 0.549811)
(9.81552 0 0.515817)
(9.6778 0 0.659559)
(9.73471 0 0.627011)
(9.57281 0 0.775687)
(9.63999 0 0.744158)
(9.45327 0 0.899417)
(9.53129 0 0.868516)
(9.31901 0 1.03197)
(9.40853 0 1.00134)
(9.16978 0 1.17455)
(9.27151 0 1.14387)
(9.00522 0 1.32839)
(9.11998 0 1.29738)
(8.82492 0 1.49471)
(8.9536 0 1.46312)
(8.62834 0 1.6747)
(8.77193 0 1.64236)
(8.41484 0 1.86953)
(8.57442 0 1.83635)
(8.1836 0 2.08032)
(8.36037 0 2.04634)
(7.9336 0 2.30804)
(8.12888 0 2.27348)
(7.66347 0 2.55349)
(7.8788 0 2.51886)
(7.37143 0 2.81716)
(7.60854 0 2.78338)
(7.05506 0 3.09909)
(7.31598 0 3.06766)
(6.71102 0 3.39863)
(6.9982 0 3.37194)
(6.33481 0 3.71405)
(6.65119 0 3.69575)
(5.92026 0 4.04207)
(6.26941 0 4.03764)
(5.45918 0 4.37704)
(5.84531 0 4.39449)
(4.94097 0 4.70987)
(5.36879 0 4.7607)
(4.35262 0 5.02652)
(4.82669 0 5.12672)
(3.67948 0 5.30618)
(4.20307 0 5.47705)
(2.90741 0 5.51817)
(3.47779 0 5.78746)
(2.02758 0 5.62301)
(2.64493 0 6.0195)
(1.04506 0 5.52946)
(1.63765 0 6.12393)
(0.704437 0 5.94307)
(9.98465 0 0.159981)
(9.99402 0 0.110463)
(9.95473 0 0.265382)
(9.97409 0 0.219401)
(9.91065 0 0.371821)
(9.93868 0 0.328613)
(9.85267 0 0.480885)
(9.88905 0 0.439777)
(9.781 0 0.594046)
(9.82618 0 0.554435)
(9.69581 0 0.712682)
(9.75038 0 0.674026)
(9.59716 0 0.838108)
(9.66166 0 0.799918)
(9.48502 0 0.971616)
(9.56003 0 0.933436)
(9.35927 0 1.11449)
(9.44543 0 1.07589)
(9.21972 0 1.26802)
(9.31776 0 1.22861)
(9.06612 0 1.43352)
(9.17683 0 1.39291)
(8.8981 0 1.61228)
(9.0224 0 1.57015)
(8.7152 0 1.80562)
(8.85409 0 1.76168)
(8.51685 0 2.01488)
(8.67144 0 1.96889)
(8.30225 0 2.24135)
(8.47384 0 2.19319)
(8.07039 0 2.48629)
(8.26044 0 2.43599)
(7.81988 0 2.75088)
(8.03011 0 2.69869)
(7.54883 0 3.03616)
(7.78129 0 2.98265)
(7.25464 0 3.34295)
(7.51182 0 3.28919)
(6.93368 0 3.67168)
(7.21868 0 3.61946)
(6.58094 0 4.02215)
(6.89763 0 3.97437)
(6.18948 0 4.39312)
(6.54274 0 4.35432)
(5.74979 0 4.78161)
(6.14572 0 4.7588)
(5.24912 0 5.18173)
(5.69508 0 5.18556)
(4.67094 0 5.58282)
(5.17507 0 5.62923)
(3.99488 0 5.96657)
(4.56507 0 6.07883)
(3.19838 0 6.30173)
(3.83628 0 6.51361)
(2.26172 0 6.54069)
(2.97076 0 6.89407)
(1.18057 0 6.5651)
(1.87907 0 7.15784)
(0.812765 0 7.09937)
(9.98553 0 0.170963)
(9.9944 0 0.117547)
(9.95738 0 0.283699)
(9.97572 0 0.23352)
(9.916 0 0.397636)
(9.94258 0 0.34987)
(9.86169 0 0.514413)
(9.89623 0 0.468352)
(9.79468 0 0.635536)
(9.83765 0 0.590541)
(9.71517 0 0.76243)
(9.76713 0 0.717911)
(9.62324 0 0.896468)
(9.68475 0 0.851876)
(9.51894 0 1.039)
(9.59055 0 0.993819)
(9.4022 0 1.19137)
(9.48455 0 1.14511)
(9.27293 0 1.35494)
(9.36673 0 1.30711)
(9.13093 0 1.53108)
(9.23698 0 1.48123)
(8.97595 0 1.72119)
(9.09514 0 1.66887)
(8.80762 0 1.92669)
(8.94095 0 1.8715)
(8.62545 0 2.14907)
(8.77407 0 2.09062)
(8.42875 0 2.38982)
(8.59399 0 2.3278)
(8.2166 0 2.6505)
(8.40001 0 2.58469)
(7.98768 0 2.93269)
(8.19112 0 2.86302)
(7.74017 0 3.23802)
(7.96593 0 3.16463)
(7.47148 0 3.56814)
(7.72242 0 3.49151)
(7.17799 0 3.92466)
(7.45775 0 3.8458)
(6.85456 0 4.3091)
(7.16784 0 4.22984)
(6.49391 0 4.72261)
(6.84688 0 4.64608)
(6.08578 0 5.1655)
(6.48653 0 5.09695)
(5.61571 0 5.63629)
(6.07475 0 5.58444)
(5.06364 0 6.1298)
(5.59408 0 6.10905)
(4.40224 0 6.63376)
(5.01964 0 6.66756)
(3.59613 0 7.1212)
(4.31257 0 7.24852)
(2.60429 0 7.5406)
(3.43565 0 7.82017)
(1.39426 0 7.74039)
(2.2564 0 8.315)
(1.00257 0 8.46496)
(9.9865 0 0.181253)
(9.9948 0 0.124156)
(9.96026 0 0.300832)
(9.97747 0 0.24668)
(9.92176 0 0.421734)
(9.94676 0 0.369647)
(9.87133 0 0.545651)
(9.90387 0 0.494886)
(9.80923 0 0.674124)
(9.84977 0 0.624005)
(9.73567 0 0.808614)
(9.78478 0 0.758507)
(9.6508 0 0.950544)
(9.70902 0 0.899847)
(9.55471 0 1.10131)
(9.62258 0 1.04945)
(9.44742 0 1.26231)
(9.52555 0 1.20872)
(9.3289 0 1.43495)
(9.41798 0 1.37908)
(9.19908 0 1.62066)
(9.29988 0 1.56197)
(9.05779 0 1.82093)
(9.17118 0 1.75887)
(8.90479 0 2.03729)
(9.03175 0 1.97131)
(8.73974 0 2.27133)
(8.8814 0 2.2009)
(8.56209 0 2.52477)
(8.71979 0 2.44937)
(8.37109 0 2.79942)
(8.5464 0 2.71856)
(8.16563 0 3.09727)
(8.36049 0 3.0105)
(7.94413 0 3.42051)
(8.16092 0 3.32748)
(7.7043 0 3.77159)
(7.94608 0 3.6721)
(7.44285 0 4.15336)
(7.71359 0 4.04744)
(7.15503 0 4.56907)
(7.46001 0 4.45717)
(6.83397 0 5.02244)
(7.18032 0 4.9058)
(6.46961 0 5.5176)
(6.86713 0 5.39884)
(6.04708 0 6.05869)
(6.50938 0 5.943)
(5.54413 0 6.64873)
(6.09012 0 6.54617)
(4.92713 0 7.28699)
(5.58319 0 7.21677)
(4.14503 0 7.96141)
(4.94255 0 7.96154)
(3.12175 0 8.63354)
(4.1093 0 8.77563)
(1.75621 0 9.12776)
(2.87839 0 9.62087)
(1.36467 0 10.1851)
(9.98754 0 0.190799)
(9.99523 0 0.13026)
(9.96332 0 0.316707)
(9.97932 0 0.258824)
(9.92785 0 0.444023)
(9.95115 0 0.387869)
(9.88148 0 0.57449)
(9.91188 0 0.519286)
(9.82448 0 0.70968)
(9.86243 0 0.654715)
(9.75712 0 0.851087)
(9.80317 0 0.795685)
(9.67958 0 1.00017)
(9.73425 0 0.943677)
(9.592 0 1.15835)
(9.65582 0 1.10014)
(9.4945 0 1.32707)
(9.56805 0 1.26653)
(9.38714 0 1.50778)
(9.47107 0 1.44428)
(9.26995 0 1.70196)
(9.36498 0 1.63486)
(9.14288 0 1.91114)
(9.24985 0 1.83981)
(9.00586 0 2.13694)
(9.1257 0 2.0607)
(8.85869 0 2.38108)
(8.99249 0 2.29924)
(8.70106 0 2.64541)
(8.85009 0 2.55724)
(8.53246 0 2.932)
(8.69826 0 2.83673)
(8.3521 0 3.24316)
(8.53655 0 3.13997)
(8.15883 0 3.58157)
(8.36429 0 3.46958)
(7.95091 0 3.95042)
(8.18042 0 3.82867)
(7.72578 0 4.35359)
(7.98333 0 4.22106)
(7.47969 0 4.79594)
(7.77067 0 4.65155)
(7.2071 0 5.28367)
(7.53895 0 5.12632)
(6.89961 0 5.82474)
(7.28294 0 5.65361)
(6.54425 0 6.42952)
(6.99463 0 6.24454)
(6.12029 0 7.11143)
(6.66132 0 6.91464)
(5.59299 0 7.88759)
(6.26242 0 7.68614)
(4.90082 0 8.77787)
(5.7575 0 8.59256)
(3.92679 0 9.80149)
(5.08725 0 9.6851)
(2.43313 0 10.8566)
(3.97938 0 11.0493)
(2.14613 0 12.5682)
(9.98862 0 0.199563)
(9.99567 0 0.135836)
(9.96652 0 0.331262)
(9.98124 0 0.269906)
(9.9342 0 0.46442)
(9.9557 0 0.404473)
(9.89202 0 0.600823)
(9.92016 0 0.541477)
(9.8403 0 0.742068)
(9.87552 0 0.682584)
(9.77932 0 0.889672)
(9.82216 0 0.829341)
(9.70931 0 1.04511)
(9.76027 0 0.983245)
(9.6305 0 1.20985)
(9.69009 0 1.14577)
(9.54306 0 1.38534)
(9.61184 0 1.31837)
(9.44716 0 1.57306)
(9.52576 0 1.50251)
(9.34294 0 1.77451)
(9.43205 0 1.69968)
(9.2305 0 1.99127)
(9.3309 0 1.91143)
(9.10992 0 2.22501)
(9.22251 0 2.13936)
(8.98123 0 2.47753)
(9.10701 0 2.38523)
(8.84434 0 2.75079)
(8.98453 0 2.65092)
(8.6991 0 3.04702)
(8.85512 0 2.93854)
(8.54512 0 3.36878)
(8.71875 0 3.2505)
(8.38183 0 3.71909)
(8.57525 0 3.58963)
(8.20825 0 4.10168)
(8.4243 0 3.95937)
(8.02294 0 4.52119)
(8.26531 0 4.36398)
(7.8237 0 4.98367)
(8.09738 0 4.80892)
(7.60725 0 5.49716)
(7.91915 0 5.30143)
(7.36856 0 6.07272)
(7.72864 0 5.85138)
(7.0997 0 6.72601)
(7.52298 0 6.47269)
(6.78752 0 7.48021)
(7.29792 0 7.18595)
(6.40847 0 8.37207)
(7.048 0 8.02355)
(5.91552 0 9.46603)
(6.76301 0 9.04197)
(5.19605 0 10.9084)
(6.46196 0 10.3569)
(3.88439 0 13.1788)
(6.18981 0 12.3036)
(5.25896 0 16.3727)
(0.183765 0 -0.110522)
(0.107252 0 -0.179986)
(0.36024 0 -0.0948292)
(0.262108 0 -0.168765)
(0.506583 0 -0.0734649)
(0.41695 0 -0.136642)
(0.622656 0 -0.0546478)
(0.548318 0 -0.10582)
(0.713354 0 -0.0396963)
(0.65276 0 -0.080734)
(0.783859 0 -0.0282361)
(0.735024 0 -0.0612765)
(0.838659 0 -0.0196229)
(0.8006 0 -0.0465027)
(0.88146 0 -0.0132601)
(0.853793 0 -0.0354618)
(0.915244 0 -0.00864808)
(0.897744 0 -0.0273307)
(0.94239 0 -0.00538513)
(0.934805 0 -0.0214414)
(0.964786 0 -0.00315495)
(0.966813 0 -0.0172721)
(0.98393 0 -0.00170589)
(0.99522 0 -0.014416)
(1.00099 0 -0.000829001)
(1.02117 0 -0.0125446)
(1.01684 0 -0.000339674)
(1.04553 0 -0.0113749)
(1.03203 0 -6.52796e-05)
(1.06893 0 -0.0106447)
(1.04678 0 0.000159363)
(1.09177 0 -0.0100998)
(1.061 0 0.000484976)
(1.11417 0 -0.00949734)
(1.07423 0 0.00102666)
(1.136 0 -0.0086302)
(1.0858 0 0.00183441)
(1.15687 0 -0.00737012)
(1.09498 0 0.00287374)
(1.17626 0 -0.00571211)
(1.10122 0 0.00403605)
(1.19363 0 -0.00378608)
(1.10428 0 0.00516519)
(1.20861 0 -0.00181527)
(1.10444 0 0.0060714)
(1.22109 0 -9.55408e-05)
(1.10168 0 0.00677472)
(1.2311 0 0.00156387)
(1.09602 0 0.00746439)
(1.23865 0 0.00312211)
(1.08704 0 0.00815103)
(1.24351 0 0.00483993)
(1.07459 0 0.00869273)
(1.24522 0 0.00655058)
(1.05887 0 0.0087676)
(1.2431 0 0.00807247)
(1.04194 0 0.00758118)
(1.23801 0 0.00849071)
(1.23153 0 0.00616412)
(0.16924 0 -0.26263)
(0.0890986 0 -0.345747)
(0.332477 0 -0.23159)
(0.231035 0 -0.324869)
(0.470198 0 -0.185387)
(0.364562 0 -0.265235)
(0.582733 0 -0.144184)
(0.478448 0 -0.208415)
(0.674721 0 -0.111385)
(0.570381 0 -0.162615)
(0.750685 0 -0.086221)
(0.644974 0 -0.127298)
(0.814377 0 -0.0672552)
(0.706722 0 -0.10055)
(0.868743 0 -0.0531445)
(0.759015 0 -0.0805068)
(0.916069 0 -0.0427755)
(0.80424 0 -0.0656157)
(0.958125 0 -0.0352692)
(0.844139 0 -0.0546601)
(0.99629 0 -0.0299443)
(0.880051 0 -0.0467059)
(1.03164 0 -0.0262686)
(0.913031 0 -0.041036)
(1.06502 0 -0.0238084)
(0.9439 0 -0.0370843)
(1.09707 0 -0.0221878)
(0.973298 0 -0.0343787)
(1.12824 0 -0.0210592)
(1.00171 0 -0.0324981)
(1.15885 0 -0.0200892)
(1.02948 0 -0.0310438)
(1.18898 0 -0.0189691)
(1.05681 0 -0.0296326)
(1.21856 0 -0.0174538)
(1.08376 0 -0.0279228)
(1.2473 0 -0.0154219)
(1.1102 0 -0.0256783)
(1.27485 0 -0.0129206)
(1.13588 0 -0.0228475)
(1.30089 0 -0.0101518)
(1.16045 0 -0.0195972)
(1.32522 0 -0.0073826)
(1.18363 0 -0.0162407)
(1.34757 0 -0.0048022)
(1.20532 0 -0.0130335)
(1.36794 0 -0.00232882)
(1.22548 0 -0.00995244)
(1.38611 0 0.000313004)
(1.24436 0 -0.00690348)
(1.4016 0 0.00327799)
(1.262 0 -0.00351166)
(1.41368 0 0.00615165)
(1.27819 0 0.000196116)
(1.42187 0 0.0080194)
(1.29248 0 0.00386867)
(1.42785 0 0.00771839)
(1.30408 0 0.00548705)
(1.31439 0 0.00450828)
(0.14194 0 -0.414593)
(0.0691051 0 -0.484768)
(0.273486 0 -0.365599)
(0.186142 0 -0.450668)
(0.381849 0 -0.294885)
(0.284905 0 -0.366415)
(0.469386 0 -0.232499)
(0.368577 0 -0.288219)
(0.540837 0 -0.183117)
(0.434533 0 -0.226217)
(0.600062 0 -0.145255)
(0.487925 0 -0.178771)
(0.65012 0 -0.116639)
(0.532095 0 -0.143028)
(0.693248 0 -0.0951858)
(0.569525 0 -0.116241)
(0.731104 0 -0.0792181)
(0.601847 0 -0.09624)
(0.76496 0 -0.0674397)
(0.630217 0 -0.081402)
(0.79581 0 -0.0588573)
(0.65554 0 -0.0704976)
(0.824434 0 -0.0527006)
(0.678536 0 -0.0625899)
(0.851448 0 -0.0483511)
(0.699776 0 -0.0569452)
(0.877333 0 -0.0452835)
(0.719714 0 -0.0529608)
(0.902462 0 -0.0430218)
(0.738711 0 -0.0501107)
(0.927098 0 -0.0411138)
(0.757061 0 -0.0479033)
(0.951384 0 -0.0391353)
(0.774988 0 -0.0458597)
(0.975313 0 -0.0367373)
(0.792636 0 -0.0435339)
(0.998725 0 -0.0337289)
(0.810023 0 -0.0405915)
(1.02135 0 -0.0301505)
(0.827014 0 -0.0369214)
(1.04294 0 -0.0262658)
(0.843329 0 -0.0327068)
(1.06338 0 -0.0224128)
(0.858653 0 -0.0283597)
(1.08282 0 -0.0187498)
(0.872829 0 -0.0242836)
(1.10164 0 -0.0151744)
(0.886073 0 -0.0205902)
(1.12012 0 -0.0113873)
(0.89885 0 -0.0171032)
(1.13852 0 -0.00710612)
(0.911581 0 -0.0134263)
(1.15675 0 -0.00267405)
(0.924534 0 -0.00939539)
(1.17425 0 0.00087411)
(0.937775 0 -0.00512101)
(1.18889 0 0.00249516)
(0.949633 0 -0.00185489)
(0.95861 0 -3.34649e-05)
(0.111724 0 -0.530475)
(0.0488895 0 -0.594195)
(0.206046 0 -0.46149)
(0.135347 0 -0.540868)
(0.279089 0 -0.369599)
(0.193358 0 -0.434617)
(0.336143 0 -0.29093)
(0.243342 0 -0.340234)
(0.38189 0 -0.2297)
(0.279014 0 -0.266937)
(0.419245 0 -0.183158)
(0.307084 0 -0.211237)
(0.450481 0 -0.148125)
(0.329259 0 -0.169534)
(0.477027 0 -0.121829)
(0.347194 0 -0.138235)
(0.499868 0 -0.102159)
(0.361763 0 -0.114718)
(0.519771 0 -0.0875384)
(0.373598 0 -0.0971229)
(0.537344 0 -0.0767713)
(0.383236 0 -0.0840499)
(0.553078 0 -0.0689372)
(0.391109 0 -0.0744373)
(0.567372 0 -0.0633015)
(0.397569 0 -0.0674547)
(0.580561 0 -0.0592494)
(0.402912 0 -0.0624285)
(0.592936 0 -0.0562337)
(0.407403 0 -0.0587844)
(0.604758 0 -0.0537359)
(0.411304 0 -0.0559936)
(0.616239 0 -0.0512573)
(0.414891 0 -0.0535307)
(0.627493 0 -0.0483634)
(0.418433 0 -0.0508758)
(0.63849 0 -0.0447823)
(0.422114 0 -0.0475965)
(0.64904 0 -0.0405122)
(0.425956 0 -0.043483)
(0.658861 0 -0.0358489)
(0.42969 0 -0.0386706)
(0.667732 0 -0.0312548)
(0.432839 0 -0.0336192)
(0.675686 0 -0.0270988)
(0.434781 0 -0.0288885)
(0.683068 0 -0.0234526)
(0.435339 0 -0.0247627)
(0.690324 0 -0.0200371)
(0.434783 0 -0.0211075)
(0.697771 0 -0.0164484)
(0.433366 0 -0.017439)
(0.70524 0 -0.0125112)
(0.432418 0 -0.013325)
(0.712351 0 -0.00860359)
(0.431883 0 -0.00877419)
(0.717157 0 -0.00490706)
(0.429574 0 -0.0042653)
(0.424156 0 -0.00131906)
(0.0765435 0 -0.612305)
(0.0274363 0 -0.669164)
(0.129672 0 -0.521997)
(0.0780942 0 -0.591675)
(0.164263 0 -0.412887)
(0.0912148 0 -0.466916)
(0.187868 0 -0.322982)
(0.105834 0 -0.361753)
(0.204755 0 -0.254206)
(0.108408 0 -0.281969)
(0.216689 0 -0.202397)
(0.107979 0 -0.221609)
(0.225194 0 -0.163546)
(0.104532 0 -0.176751)
(0.230957 0 -0.134236)
(0.0991752 0 -0.14301)
(0.23443 0 -0.112123)
(0.0921023 0 -0.117528)
(0.236014 0 -0.095514)
(0.0837179 0 -0.098374)
(0.236035 0 -0.08313)
(0.0743611 0 -0.0840665)
(0.234768 0 -0.0739875)
(0.0642785 0 -0.0734828)
(0.232448 0 -0.0673062)
(0.0536844 0 -0.0657496)
(0.229303 0 -0.0624455)
(0.0427772 0 -0.0601709)
(0.225577 0 -0.0588484)
(0.0317495 0 -0.0561725)
(0.221548 0 -0.0559849)
(0.0208225 0 -0.0532365)
(0.21751 0 -0.0533172)
(0.010269 0 -0.0508325)
(0.213708 0 -0.0503236)
(0.00038683 0 -0.0483951)
(0.210243 0 -0.0466021)
(-0.00860046 0 -0.0453899)
(0.206995 0 -0.0420182)
(-0.0166364 0 -0.0414629)
(0.20357 0 -0.0367928)
(-0.0239691 0 -0.0365905)
(0.199374 0 -0.0314156)
(-0.03112 0 -0.0311317)
(0.193838 0 -0.0263737)
(-0.038892 0 -0.0256833)
(0.186686 0 -0.0218694)
(-0.0478017 0 -0.0207204)
(0.178026 0 -0.0177105)
(-0.0579854 0 -0.0163284)
(0.168467 0 -0.0135204)
(-0.0694689 0 -0.0122878)
(0.158476 0 -0.00878235)
(-0.0810208 0 -0.00806843)
(0.147028 0 -0.00343163)
(-0.0932351 0 -0.00289352)
(0.135091 0 0.000127117)
(-0.104142 0 0.00172161)
(-0.115424 0 0.00228514)
(0.0360278 0 -0.655242)
(0.00352435 0 -0.704451)
(0.0444288 0 -0.543019)
(0.0132352 0 -0.599709)
(0.0386453 0 -0.420664)
(-0.020034 0 -0.461516)
(0.0274789 0 -0.323785)
(-0.0428665 0 -0.351573)
(0.0124687 0 -0.250583)
(-0.0749353 0 -0.268608)
(-0.00413368 0 -0.195939)
(-0.10647 0 -0.20718)
(-0.0219558 0 -0.155485)
(-0.137825 0 -0.161628)
(-0.0405785 0 -0.12521)
(-0.168326 0 -0.127581)
(-0.0597115 0 -0.102461)
(-0.197966 0 -0.10205)
(-0.0790707 0 -0.0854701)
(-0.226433 0 -0.0830828)
(-0.0984488 0 -0.072883)
(-0.25354 0 -0.0691218)
(-0.117683 0 -0.0636768)
(-0.279238 0 -0.0589998)
(-0.136624 0 -0.0570538)
(-0.303532 0 -0.0518238)
(-0.155125 0 -0.0523729)
(-0.326459 0 -0.0468899)
(-0.173016 0 -0.0490927)
(-0.348065 0 -0.0436328)
(-0.190087 0 -0.0466976)
(-0.368355 0 -0.0415543)
(-0.206112 0 -0.0446341)
(-0.387262 0 -0.0401245)
(-0.220928 0 -0.0423211)
(-0.40468 0 -0.0387294)
(-0.234507 0 -0.0392699)
(-0.420573 0 -0.0367401)
(-0.246987 0 -0.035257)
(-0.435058 0 -0.0337012)
(-0.258649 0 -0.0304258)
(-0.448443 0 -0.0295089)
(-0.269896 0 -0.0252307)
(-0.461202 0 -0.0244632)
(-0.281167 0 -0.0201809)
(-0.47388 0 -0.0191582)
(-0.292857 0 -0.0155346)
(-0.486897 0 -0.0141132)
(-0.305156 0 -0.0110989)
(-0.500488 0 -0.00954034)
(-0.318562 0 -0.00641054)
(-0.514758 0 -0.00506426)
(-0.333408 0 -0.00149368)
(-0.52834 0 -0.000257368)
(-0.34666 0 0.00252701)
(-0.540944 0 0.0039141)
(-0.355135 0 0.00396557)
(-0.550337 0 0.00597201)
(-0.557132 0 0.00545348)
(-0.0117371 0 -0.652903)
(-0.0252784 0 -0.692955)
(-0.0489729 0 -0.52012)
(-0.060652 0 -0.5641)
(-0.0951365 0 -0.390549)
(-0.139558 0 -0.418412)
(-0.143843 0 -0.292253)
(-0.201868 0 -0.307169)
(-0.19268 0 -0.220104)
(-0.268268 0 -0.225136)
(-0.239702 0 -0.167494)
(-0.330706 0 -0.166313)
(-0.284298 0 -0.128596)
(-0.388418 0 -0.123784)
(-0.326312 0 -0.0997643)
(-0.440941 0 -0.0927702)
(-0.36548 0 -0.0786069)
(-0.488494 0 -0.0703636)
(-0.401712 0 -0.0632901)
(-0.531428 0 -0.0544644)
(-0.435055 0 -0.0523804)
(-0.570122 0 -0.0434071)
(-0.46566 0 -0.0448064)
(-0.605032 0 -0.0359548)
(-0.493742 0 -0.0397497)
(-0.636618 0 -0.0311776)
(-0.519549 0 -0.0365704)
(-0.665332 0 -0.0283641)
(-0.543308 0 -0.0347442)
(-0.691591 0 -0.0269807)
(-0.565169 0 -0.0337751)
(-0.715711 0 -0.0265935)
(-0.585216 0 -0.0331037)
(-0.737864 0 -0.0267294)
(-0.603543 0 -0.0320987)
(-0.758128 0 -0.0267729)
(-0.620354 0 -0.0301881)
(-0.776633 0 -0.026032)
(-0.635982 0 -0.0270564)
(-0.793673 0 -0.0239814)
(-0.650831 0 -0.0227548)
(-0.80969 0 -0.0204916)
(-0.66535 0 -0.0176961)
(-0.825199 0 -0.0158548)
(-0.679855 0 -0.0124413)
(-0.840655 0 -0.0107614)
(-0.694633 0 -0.0074086)
(-0.856324 0 -0.00576001)
(-0.709832 0 -0.0028)
(-0.871402 0 -0.00115243)
(-0.724277 0 0.00136945)
(-0.885377 0 0.00271973)
(-0.736095 0 0.00489039)
(-0.897623 0 0.00596049)
(-0.745315 0 0.0070242)
(-0.907409 0 0.00865042)
(-0.752963 0 0.00720278)
(-0.915875 0 0.00980756)
(-0.920763 0 0.00894813)
(-0.0624166 0 -0.601788)
(-0.0614094 0 -0.631822)
(-0.149708 0 -0.456478)
(-0.145157 0 -0.480623)
(-0.237975 0 -0.327403)
(-0.271962 0 -0.335995)
(-0.323977 0 -0.232009)
(-0.374456 0 -0.228763)
(-0.404893 0 -0.164162)
(-0.472499 0 -0.15311)
(-0.478876 0 -0.116953)
(-0.561814 0 -0.102014)
(-0.544937 0 -0.0837738)
(-0.641645 0 -0.0677257)
(-0.603355 0 -0.0601975)
(-0.711345 0 -0.0443683)
(-0.654805 0 -0.0436926)
(-0.770263 0 -0.0287417)
(-0.700181 0 -0.0325198)
(-0.820537 0 -0.0186238)
(-0.740376 0 -0.0252823)
(-0.86382 0 -0.0124084)
(-0.776183 0 -0.0209269)
(-0.901552 0 -0.00899171)
(-0.808298 0 -0.01865)
(-0.934885 0 -0.00756666)
(-0.837338 0 -0.0178411)
(-0.964767 0 -0.00751732)
(-0.863825 0 -0.0180463)
(-0.991971 0 -0.00841631)
(-0.888112 0 -0.0188671)
(-1.01705 0 -0.00997278)
(-0.910375 0 -0.0198123)
(-1.0403 0 -0.0118539)
(-0.930739 0 -0.02024)
(-1.06182 0 -0.0134879)
(-0.949463 0 -0.0194987)
(-1.08169 0 -0.0141046)
(-0.966996 0 -0.0171933)
(-1.10002 0 -0.0130771)
(-0.983797 0 -0.0133481)
(-1.1174 0 -0.0102893)
(-1.00041 0 -0.00849696)
(-1.13445 0 -0.00600542)
(-1.01709 0 -0.0035245)
(-1.15098 0 -0.00110501)
(-1.03302 0 0.000853662)
(-1.16666 0 0.0032435)
(-1.04685 0 0.00443735)
(-1.1809 0 0.00647996)
(-1.05852 0 0.00742623)
(-1.19312 0 0.00901045)
(-1.06875 0 0.009938)
(-1.20392 0 0.0113399)
(-1.07763 0 0.0114365)
(-1.21365 0 0.0132151)
(-1.08546 0 0.0113812)
(-1.22171 0 0.0137331)
(-1.2259 0 0.0128738)
(-0.12195 0 -0.497727)