/*--------------------------------*- C++ -*----------------------------------*\
  =========                 |
  \\      /  F ield         | OpenFOAM: The Open Source CFD Toolbox
   \\    /   O peration     | Website:  https://openfoam.org
    \\  /    A nd           | Version:  dev
     \\/     M anipulation  |
\*---------------------------------------------------------------------------*/
FoamFile
{
    version     2.0;
    format      ascii;
    class       surfaceScalarField;
    location    "5.2";
    object      phi;
}
// * * * * * * * * * * * * * * * * * * * * * * * * * * * * * * * * * * * * * //

dimensions      [0 3 -1 0 0 0 0];

internalField   nonuniform List<scalar> 
5457
(
0.198418
0.00158237
0.19648
0.00193734
0.194192
0.00228804
0.191509
0.00268353
0.188428
0.00308113
0.184951
0.00347669
0.181072
0.00387849
0.176778
0.00429392
0.17205
0.00472812
0.166865
0.00518511
0.161197
0.00566838
0.155016
0.0061809
0.148291
0.00672483
0.14099
0.0073012
0.133081
0.00790936
0.124534
0.0085463
0.115329
0.00920575
0.105451
0.00987704
0.0949075
0.010544
0.0837241
0.0111834
0.0719596
0.0117645
0.0597113
0.0122483
0.0471226
0.0125887
0.0343824
0.0127402
0.0216872
0.0126951
0.00903699
0.0126502
-0.00291661
0.0119536
-0.00847236
0.00555575
-0.00804312
-0.000429245
-0.00804312
0.199928
0.0016542
0.199176
0.00268976
0.197965
0.00349894
0.196332
0.00431666
0.194272
0.00514113
0.191782
0.00596669
0.188855
0.00680539
0.185478
0.0076707
0.181633
0.00857293
0.177298
0.00952041
0.172446
0.0105204
0.167048
0.0115791
0.161071
0.0127015
0.154482
0.01389
0.147247
0.0151443
0.139334
0.0164593
0.130717
0.0178235
0.121377
0.0192171
0.111312
0.0206087
0.100542
0.0219532
0.0891177
0.023189
0.0771301
0.0242359
0.0647241
0.0249947
0.0521165
0.0253478
0.0396561
0.0251555
0.0281059
0.0242005
0.0185952
0.0214643
0.00879734
0.0153537
0.00118356
0.00718453
-0.00685955
0.199781
0.00187362
0.199087
0.00338358
0.197946
0.00463984
0.196409
0.00585323
0.194483
0.00706721
0.192164
0.00828568
0.189447
0.00952275
0.186321
0.0107961
0.182774
0.0121207
0.178785
0.0135092
0.174333
0.0149724
0.169392
0.0165201
0.163933
0.0181599
0.157926
0.0198971
0.151338
0.0217324
0.144137
0.0236609
0.136291
0.0256689
0.127777
0.0277309
0.118581
0.0298055
0.108703
0.031831
0.0981711
0.0337208
0.0870488
0.0353582
0.075452
0.0365914
0.0635748
0.037225
0.0517329
0.0369975
0.0403975
0.0355358
0.0297392
0.0321226
0.0191662
0.0259267
0.0095977
0.016753
0.00273815
0.199703
0.00217054
0.199008
0.00407886
0.197887
0.00576034
0.196376
0.00736411
0.194488
0.00895527
0.192222
0.0105516
0.189575
0.0121704
0.186539
0.013832
0.183105
0.0155551
0.179258
0.0173556
0.174983
0.0192473
0.170261
0.0212426
0.165069
0.0233515
0.159385
0.0255811
0.153183
0.027934
0.146438
0.030406
0.139124
0.0329832
0.131217
0.0356381
0.122698
0.0383246
0.113557
0.0409718
0.1038
0.0434776
0.0934575
0.0457007
0.0825962
0.0474527
0.0713334
0.0484878
0.0598413
0.0484895
0.0483172
0.04706
0.0368111
0.0436286
0.025188
0.0375498
0.0133356
0.0286054
0.0160738
0.199667
0.00250312
0.198964
0.00478211
0.197863
0.00686162
0.196381
0.00884575
0.194533
0.010804
0.192318
0.0127662
0.189734
0.0147541
0.186776
0.0167905
0.183434
0.0188967
0.179698
0.0210912
0.175556
0.0233902
0.170991
0.0258076
0.165987
0.0283552
0.160527
0.0310413
0.154591
0.0338695
0.148161
0.0368364
0.141215
0.0399289
0.133734
0.0431195
0.125697
0.0463613
0.117088
0.0495812
0.107894
0.0526711
0.0981151
0.0554798
0.0877652
0.0578027
0.0768791
0.0593739
0.065509
0.0598596
0.0537082
0.0588608
0.0414541
0.0558828
0.0285878
0.0504162
0.0148523
0.0423408
0.0309261
0.199653
0.00285031
0.198949
0.00548615
0.197871
0.00793954
0.196427
0.0102899
0.194627
0.0126039
0.192473
0.0149196
0.189964
0.0172637
0.187093
0.0196613
0.183854
0.022136
0.180237
0.0247084
0.17623
0.0273966
0.171822
0.0302161
0.166997
0.0331799
0.161741
0.0362971
0.156038
0.0395723
0.149872
0.0430029
0.143224
0.046577
0.136074
0.0502688
0.128402
0.0540336
0.120182
0.0578008
0.111388
0.0614655
0.101989
0.0648786
0.091955
0.067837
0.0812541
0.0700748
0.0698542
0.0712595
0.0577168
0.0709982
0.0447605
0.068839
0.030849
0.0643277
0.0158731
0.0573167
0.0467992
0.19965
0.00320025
0.198954
0.00618212
0.197904
0.00898914
0.196505
0.0116896
0.194763
0.0143461
0.192681
0.0170016
0.190257
0.0196873
0.187488
0.0224308
0.184366
0.0252579
0.180883
0.0281912
0.177029
0.0312504
0.172792
0.0344526
0.16816
0.0378119
0.163119
0.0413386
0.157653
0.0450384
0.151745
0.0489104
0.145378
0.0529445
0.138528
0.0571183
0.13117
0.0613918
0.123269
0.0657016
0.114783
0.0699522
0.105655
0.0740065
0.0958167
0.0776749
0.0851861
0.0807055
0.073668
0.0827776
0.0611612
0.0835051
0.0475549
0.0824453
0.0327584
0.0791242
0.0167827
0.0732923
0.0635819
0.199655
0.00354559
0.198975
0.00686221
0.197959
0.0100049
0.19661
0.0130383
0.194934
0.0160221
0.192934
0.0190021
0.190608
0.0220133
0.187952
0.025086
0.184963
0.0282478
0.18163
0.0315233
0.177947
0.0349338
0.173902
0.0384979
0.169482
0.0422313
0.164675
0.0461459
0.159464
0.0502492
0.153832
0.0545426
0.147757
0.0590197
0.141212
0.0636629
0.134164
0.0684401
0.126567
0.0732984
0.118362
0.0781574
0.109469
0.0828994
0.0997863
0.0873577
0.089187
0.0913048
0.0775247
0.0944399
0.0646469
0.0963829
0.0504169
0.0966752
0.0347677
0.0947735
0.0177896
0.0902705
0.0813714
0.199664
0.00388141
0.199006
0.00752001
0.19803
0.0109811
0.196739
0.0143297
0.195137
0.0176241
0.193227
0.0209119
0.191009
0.0242311
0.188481
0.0276146
0.185637
0.0310917
0.182471
0.0346889
0.178976
0.0384291
0.175141
0.0423327
0.170955
0.0464171
0.166405
0.0506962
0.161474
0.0551802
0.156143
0.0598739
0.150386
0.0647759
0.144174
0.0698758
0.137462
0.0751515
0.130196
0.0805649
0.122298
0.0860552
0.113667
0.0915306
0.104168
0.0968564
0.0936334
0.101839
0.081864
0.106209
0.0686487
0.109598
0.0538012
0.111523
0.0372359
0.111339
0.019083
0.108423
0.100454
0.199677
0.00420418
0.199047
0.00815023
0.198116
0.0119124
0.196887
0.0155579
0.195367
0.019145
0.193556
0.0227225
0.191456
0.0263309
0.189065
0.0300053
0.18638
0.0337769
0.183396
0.0376736
0.180104
0.0417202
0.176498
0.0459388
0.172567
0.0503486
0.168297
0.0549662
0.163672
0.0598049
0.158672
0.064874
0.153269
0.0701784
0.147429
0.0757166
0.141101
0.0814792
0.13422
0.0874456
0.126696
0.0935796
0.118405
0.0998216
0.109183
0.106078
0.0988188
0.112204
0.0870516
0.117976
0.0735889
0.123061
0.0581475
0.126964
0.040551
0.128935
0.0209008
0.128074
0.121355
0.199693
0.00451125
0.199095
0.00874861
0.198213
0.012794
0.197053
0.0167176
0.19562
0.0205784
0.193916
0.0244263
0.191943
0.0283038
0.1897
0.0322481
0.187185
0.0362919
0.184395
0.0404645
0.181322
0.0447923
0.177962
0.0492992
0.174304
0.0540065
0.170337
0.0589334
0.166045
0.0640968
0.161408
0.0695113
0.156398
0.0751886
0.150977
0.0811376
0.145093
0.0873631
0.138673
0.0938648
0.131619
0.100634
0.123789
0.107651
0.114995
0.114872
0.104982
0.122217
0.0934178
0.12954
0.0798967
0.136582
0.0639665
0.142894
0.0452336
0.147668
0.0236109
0.149696
0.144966
0.199711
0.00480055
0.199148
0.00931161
0.19832
0.0136216
0.197234
0.0178038
0.195894
0.0219185
0.194303
0.0260166
0.192465
0.0301423
0.190379
0.0343342
0.188044
0.0386265
0.185459
0.04305
0.182619
0.0476323
0.179519
0.0523988
0.176153
0.0573731
0.172509
0.0625769
0.168575
0.0680307
0.164332
0.0737544
0.159754
0.079767
0.154803
0.0860879
0.14943
0.0927369
0.14356
0.0997347
0.137091
0.107103
0.129878
0.114864
0.121715
0.123035
0.112313
0.131619
0.101272
0.140582
0.0880436
0.14981
0.0719211
0.159017
0.0520845
0.167505
0.0278844
0.173896
0.172851
0.19973
0.00507048
0.199205
0.00983638
0.198435
0.0143916
0.197427
0.0188125
0.196185
0.0231605
0.194713
0.0274878
0.193016
0.0318396
0.191094
0.0362561
0.188948
0.0407723
0.186578
0.0454203
0.183982
0.0502288
0.181156
0.0552246
0.178096
0.0604329
0.174795
0.065878
0.171242
0.0715837
0.167422
0.0775744
0.163313
0.0838762
0.158883
0.090518
0.154086
0.0975336
0.148857
0.104964
0.1431
0.11286
0.136679
0.121286
0.129392
0.130322
0.120941
0.140069
0.110881
0.150641
0.098541
0.162151
0.0828986
0.174659
0.0624329
0.18797
0.0351226
0.201207
0.207973
0.199751
0.00531977
0.199266
0.0103206
0.198557
0.015101
0.19763
0.01974
0.19649
0.0243003
0.195142
0.028835
0.193592
0.0333905
0.19184
0.0380075
0.18989
0.0427223
0.187743
0.0475675
0.185399
0.0525727
0.182858
0.0577659
0.180117
0.0631734
0.177174
0.0688213
0.174021
0.0747363
0.170649
0.0809464
0.167042
0.0874832
0.163177
0.0943835
0.159018
0.101692
0.154516
0.109467
0.149594
0.117781
0.144142
0.126738
0.137991
0.136473
0.130884
0.147177
0.122404
0.159121
0.111858
0.172697
0.0980136
0.188503
0.0785325
0.207452
0.0486597
0.231079
0.256633
0.199772
0.00554747
0.19933
0.0107625
0.198684
0.0157474
0.19784
0.0205835
0.196806
0.0253347
0.195586
0.0300547
0.194186
0.0347905
0.19261
0.0395837
0.190861
0.044471
0.188943
0.0494854
0.186859
0.0546572
0.18461
0.0600146
0.182199
0.0655849
0.179625
0.0713953
0.176887
0.0774739
0.173982
0.0838514
0.170903
0.0905627
0.167637
0.0976495
0.164165
0.105164
0.160459
0.113173
0.156474
0.121766
0.152145
0.131067
0.147371
0.141247
0.141993
0.152555
0.135749
0.165365
0.128167
0.180279
0.118306
0.198363
0.103916
0.221842
0.0776814
0.257314
0.334314
0.003644
-0.003644
0.0071263
-0.00348231
0.00999505
-0.00286875
0.0122481
-0.00225301
0.0139853
-0.00173721
0.0153127
-0.00132742
0.016322
-0.00100926
0.0170891
-0.000767105
0.0176755
-0.000586439
0.01813
-0.000454502
0.018491
-0.000360958
0.0187887
-0.000297719
0.0190469
-0.000258271
0.0192839
-0.000236943
0.0195121
-0.000228256
0.0197385
-0.000226396
0.0199636
-0.000225019
0.0201812
-0.000217594
0.0203796
-0.00019842
0.0205438
-0.0001642
0.0206593
-0.000115547
0.020717
-5.76965e-05
0.020719
-1.99268e-06
0.0206654
5.36278e-05
0.0205626
0.000102828
0.0204084
0.000154198
0.0201998
0.000208522
0.0199339
0.000265944
0.0196303
0.000303589
0.000241917
0.00337824
-0.00702224
0.00661497
-0.00671904
0.0093299
-0.00558367
0.0115307
-0.00445384
0.0133127
-0.00351918
0.0147688
-0.00278348
0.0159752
-0.00221569
0.0169928
-0.00178475
0.0178691
-0.00146269
0.0186403
-0.00122577
0.0193346
-0.0010552
0.0199734
-0.000936519
0.0205734
-0.000858309
0.0211475
-0.000811048
0.0217053
-0.000786006
0.0222532
-0.000774338
0.0227947
-0.000766529
0.0233297
-0.000752584
0.0238546
-0.000723341
0.0243633
-0.000672819
0.0248484
-0.000600652
0.0253035
-0.000512828
0.02572
-0.000418523
0.0260974
-0.000323723
0.0264344
-0.000234191
0.0267303
-0.000141724
0.0269755
-3.66502e-05
0.0271554
8.60366e-05
0.0272792
0.00017981
0.000177099
0.00285157
-0.00987381
0.00547682
-0.00934429
0.00762739
-0.00773424
0.00935012
-0.00617656
0.0107431
-0.0049122
0.0118867
-0.00392704
0.012842
-0.003171
0.0136562
-0.00259897
0.0143646
-0.00217107
0.0149936
-0.00185478
0.0155635
-0.00162507
0.0160898
-0.0014628
0.0165845
-0.00135306
0.0170571
-0.00128364
0.0175148
-0.00124369
0.0179629
-0.0012225
0.018405
-0.00120857
0.018842
-0.00118955
0.0192722
-0.00115362
0.0196919
-0.0010925
0.020096
-0.00100477
0.0204804
-0.000897207
0.0208438
-0.000781917
0.0211901
-0.000670036
0.0215234
-0.000567467
0.0218504
-0.000468758
0.0221789
-0.000365075
0.0225103
-0.000245422
0.0228166
-0.000126476
-2.72431e-05
0.00226455
-0.0121384
0.0041685
-0.0112482
0.00563753
-0.00920328
0.00677593
-0.00731496
0.00768084
-0.00581712
0.00841552
-0.00466172
0.00902158
-0.00377706
0.00953105
-0.00310844
0.0099663
-0.00260633
0.0103435
-0.00223194
0.0106748
-0.00195644
0.01097
-0.001758
0.0112367
-0.00161974
0.0114811
-0.00152803
0.0117085
-0.00147111
0.0119237
-0.00143766
0.0121306
-0.00141549
0.012332
-0.00139092
0.0125285
-0.00135013
0.0127185
-0.00128249
0.0128985
-0.00118478
0.0130645
-0.0010632
0.0132139
-0.000931331
0.0133484
-0.000804542
0.0134721
-0.000691162
0.0135918
-0.000588508
0.0137111
-0.000484328
0.0138319
-0.000366287
0.013944
-0.000238485
-9.27132e-05
0.00157754
-0.0137159
0.00268008
-0.0123508
0.00340457
-0.00992777
0.00390316
-0.00781355
0.00426035
-0.0061743
0.00452093
-0.0049223
0.00470564
-0.00396177
0.00483215
-0.00323495
0.00491251
-0.0026867
0.0049546
-0.00227402
0.00496478
-0.00196661
0.00494826
-0.00174149
0.00490949
-0.00158096
0.00485255
-0.00147108
0.0047817
-0.00140027
0.00470182
-0.00135778
0.00461811
-0.00133178
0.00453515
-0.00130796
0.00445553
-0.00127051
0.00437884
-0.0012058
0.00430153
-0.00110747
0.00421781
-0.000979481
0.00412034
-0.000833858
0.00400279
-0.000686989
0.00386041
-0.000548782
0.00369388
-0.00042198
0.00350931
-0.000299756
0.00328361
-0.000140587
0.00300854
3.65823e-05
0.000103234
0.000784449
-0.0145004
0.00100923
-0.0125755
0.000949936
-0.00986848
0.000781995
-0.00764561
0.000538357
-0.00593066
0.000256741
-0.00464068
-5.03807e-05
-0.00365464
-0.000379388
-0.00290594
-0.000723173
-0.00234291
-0.00107653
-0.00192066
-0.00143505
-0.0016081
-0.00179509
-0.00138144
-0.00215345
-0.00122261
-0.00250699
-0.00111754
-0.0028523
-0.00105496
-0.0031854
-0.00102468
-0.00350238
-0.0010148
-0.00380086
-0.00100948
-0.00408161
-0.000989756
-0.00434881
-0.000938608
-0.00460819
-0.000848082
-0.00486452
-0.000723148
-0.00512245
-0.000575932
-0.0053851
-0.000424337
-0.00565637
-0.000277509
-0.00595773
-0.000120623
-0.00630295
4.54666e-05
-0.00662643
0.000182891
-0.00683919
0.000249342
0.000239024
-0.000168843
-0.0143315
-0.000839692
-0.0119047
-0.00169005
-0.00901812
-0.00258267
-0.00675299
-0.00348057
-0.00503275
-0.00435181
-0.00376945
-0.00517659
-0.00282987
-0.00595726
-0.00212527
-0.00669432
-0.00160585
-0.00738406
-0.00123092
-0.00802535
-0.000966808
-0.00861913
-0.00078767
-0.00916826
-0.000673477
-0.00967694
-0.000608858
-0.0101498
-0.000582126
-0.0105906
-0.000583854
-0.011002
-0.000603351
-0.011387
-0.000624524
-0.0117504
-0.000626337
-0.0120997
-0.000589316
-0.0124429
-0.000504905
-0.0127846
-0.000381409
-0.0131292
-0.000231345
-0.0134815
-7.20691e-05
-0.0138304
7.14175e-05
-0.0141376
0.000186618
-0.0143767
0.000284539
-0.0145666
0.00037276
-0.0147307
0.000413403
0.00039031
-0.00117533
-0.0131562
-0.00285155
-0.0102285
-0.00454188
-0.00732779
-0.00618196
-0.00511291
-0.00772255
-0.00349217
-0.00913196
-0.00236004
-0.0103909
-0.00157096
-0.0115062
-0.00100991
-0.0124937
-0.000618377
-0.0133708
-0.000353847
-0.0141536
-0.000183944
-0.0148561
-8.51692e-05
-0.0154909
-3.86678e-05
-0.0160698
-3.00123e-05
-0.0166034
-4.84796e-05
-0.0171001
-8.71947e-05
-0.0175643
-0.000139168
-0.0179991
-0.000189723
-0.0184096
-0.000215792
-0.0188044
-0.000194585
-0.0191946
-0.000114632
-0.0195882
1.21083e-05
-0.0199686
0.000149069
-0.0203017
0.000261098
-0.0205756
0.000345306
-0.0208054
0.000416376
-0.0210064
0.000485605
-0.0211804
0.000546675
-0.0213358
0.000568844
0.000549512
-0.00237205
-0.0107841
-0.00516548
-0.00743505
-0.00779001
-0.00470326
-0.0101774
-0.00272551
-0.0123153
-0.00135427
-0.014215
-0.000460293
-0.0158694
8.34339e-05
-0.0172589
0.000379596
-0.0183975
0.000520132
-0.019337
0.000585696
-0.0201273
0.000606372
-0.0208069
0.000594381
-0.0214046
0.000559033
-0.021944
0.000509384
-0.0224437
0.000451271
-0.0229162
0.000385273
-0.0233675
0.000312124
-0.0237992
0.000242021
-0.0242117
0.00019669
-0.0246044
0.000198136
-0.0249742
0.000255187
-0.0253149
0.000352817
-0.0256273
0.000461443
-0.0259166
0.000550338
-0.0261765
0.000605257
-0.0263995
0.000639392
-0.026587
0.0006731
-0.0267472
0.000706819
-0.026896
0.00071763
0.000709139
-0.00392746
-0.00685667
-0.00816167
-0.00320084
-0.0120198
-0.000845114
-0.0152453
0.000499974
-0.0177922
0.00119261
-0.0197559
0.00150341
-0.0212817
0.00160926
-0.0225077
0.00160562
-0.0235349
0.00154728
-0.0244114
0.00146221
-0.025172
0.00136699
-0.0258417
0.00126409
-0.0264383
0.00115558
-0.0269774
0.0010485
-0.0274731
0.000947023
-0.0279335
0.000845603
-0.0283581
0.000736718
-0.0287433
0.000627228
-0.0290908
0.000544208
-0.0294126
0.000519962
-0.029725
0.000567568
-0.0300391
0.000666917
-0.0303519
0.000774262
-0.0306477
0.000846074
-0.0309085
0.000866058
-0.0311241
0.000855077
-0.0312986
0.000847575
-0.0314466
0.000854845
-0.0315888
0.000859825
0.000862685
-0.0061591
-0.000697567
-0.0116318
0.00227188
-0.0159279
0.003451
-0.0191977
0.00376968
-0.0217234
0.0037184
-0.0237179
0.00349789
-0.025313
0.00320439
-0.0266012
0.00289382
-0.0276526
0.00259861
-0.0285309
0.00234054
-0.0292856
0.00212164
-0.0299465
0.00192497
-0.0305304
0.00173954
-0.0310537
0.00157178
-0.0315345
0.00142784
-0.031984
0.0012951
-0.0323995
0.00115225
-0.0327718
0.000999444
-0.0330999
0.000872402
-0.0334002
0.000820258
-0.0336969
0.0008642
-0.0340061
0.000976156
-0.0343243
0.00109244
-0.034629
0.00115075
-0.0348926
0.00112969
-0.0351003
0.00106277
-0.0352599
0.00100717
-0.0353946
0.000989557
-0.0355284
0.000993647
0.00100812
-0.00788534
0.00718777
-0.0141876
0.00857413
-0.0189383
0.00820172
-0.0225445
0.00737586
-0.0252716
0.00644552
-0.0273387
0.00556501
-0.0289399
0.00480559
-0.0302063
0.00416014
-0.0312204
0.00361273
-0.0320562
0.00317635
-0.0327764
0.00284188
-0.0334132
0.00256172
-0.0339754
0.00230176
-0.0344758
0.00207214
-0.0349383
0.00189039
-0.0353795
0.00173626
-0.0357915
0.00156427
-0.0361529
0.0013609
-0.0364565
0.00117598
-0.036725
0.00108869
-0.0369969
0.00113615
-0.0372985
0.00127777
-0.0376253
0.00141923
-0.0379445
0.00146991
-0.0382144
0.00139958
-0.0384125
0.00126086
-0.0385523
0.00114699
-0.0386695
0.00110682
-0.0387925
0.0011166
0.00114362
-0.00947872
0.0166665
-0.0171768
0.0162722
-0.0225063
0.0135313
-0.0262149
0.0110844
-0.0288911
0.00912179
-0.0308358
0.00750963
-0.0323042
0.00627403
-0.0334587
0.00531461
-0.0343671
0.00452113
-0.0351044
0.00391369
-0.0357546
0.00349209
-0.0363511
0.00315823
-0.0368804
0.00283106
-0.0373428
0.00253457
-0.0377733
0.00232088
-0.0382011
0.00216402
-0.0386115
0.00197466
-0.0389613
0.00171076
-0.0392298
0.00144444
-0.0394498
0.0013087
-0.0396843
0.00137066
-0.0399755
0.00156899
-0.0403171
0.00176076
-0.0406602
0.001813
-0.040942
0.0016814
-0.0411275
0.00144642
-0.0412386
0.00125804
-0.0413312
0.00119942
-0.041441
0.00122643
0.0012683
-0.0125725
0.0292389
-0.0218916
0.0255913
-0.027194
0.0188337
-0.0304033
0.0142936
-0.0327234
0.011442
-0.0342995
0.00908569
-0.0354489
0.0074234
-0.0363969
0.00626269
-0.0371377
0.00526188
-0.0377132
0.00448921
-0.0382534
0.00403231
-0.038802
0.00370683
-0.0392934
0.00332245
-0.039698
0.00293908
-0.0400739
0.00269681
-0.0404822
0.00257236
-0.0409
0.00239241
-0.041244
0.00205475
-0.0414657
0.00166614
-0.0416134
0.00145643
-0.0417924
0.00154967
-0.0420712
0.00184784
-0.0424383
0.00212786
-0.0428204
0.00219507
-0.0431232
0.0019842
-0.0432915
0.00161476
-0.0433586
0.00132511
-0.0434149
0.00125573
-0.0435107
0.00132218
0.00138386
-0.0179307
0.0471697
-0.02919
0.0368506
-0.0337193
0.023363
-0.0351655
0.0157399
-0.0368159
0.0130923
-0.0376963
0.00996611
-0.0382653
0.00799241
-0.038975
0.00697243
-0.0395592
0.00584606
-0.0398941
0.00482409
-0.0402576
0.00439576
-0.040763
0.00421225
-0.0412291
0.00378853
-0.0415548
0.00326484
-0.0418425
0.00298451
-0.0422295
0.00295931
-0.0426807
0.00284364
-0.0430389
0.002413
-0.0431999
0.00182707
-0.0432357
0.00149231
-0.0433298
0.00164377
-0.0435942
0.00211224
-0.0440036
0.00253721
-0.0444469
0.00263833
-0.0447844
0.00232173
-0.0449285
0.0017589
-0.0449266
0.00132316
-0.0449276
0.00125673
-0.0450115
0.00140605
0.00149814
0.207447
0.00576023
0.207034
0.0111751
0.206432
0.01635
0.205647
0.021368
0.204688
0.0262939
0.203561
0.0311821
0.202271
0.03608
0.200825
0.0410294
0.199229
0.0460673
0.197488
0.0512267
0.195607
0.056538
0.193592
0.0620294
0.191449
0.0677283
0.189182
0.0736621
0.186796
0.0798594
0.184296
0.0863515
0.181685
0.0931742
0.178964
0.100371
0.176133
0.107994
0.173191
0.116115
0.170134
0.124824
0.166956
0.134245
0.163654
0.144549
0.160227
0.155981
0.1567
0.168893
0.153165
0.183814
0.149988
0.201541
0.148844
0.222986
0.160522
0.245635
0.25881
0.236026
0.21249
0.00595265
0.212118
0.011548
0.211574
0.0168935
0.210868
0.0220739
0.210008
0.0271544
0.209
0.0321896
0.207853
0.0372271
0.206574
0.0423086
0.20517
0.0474709
0.20365
0.0527468
0.202022
0.058166
0.200295
0.0637563
0.198479
0.0695443
0.196585
0.0755567
0.194623
0.081821
0.192607
0.0883672
0.190552
0.0952294
0.188475
0.102448
0.186396
0.110073
0.184346
0.118165
0.182363
0.126806
0.180509
0.136098
0.178883
0.146175
0.177657
0.157207
0.177151
0.169398
0.17802
0.182945
0.181679
0.197881
0.19073
0.213935
0.206181
0.230185
0.245708
0.219283
0.217658
0.00612259
0.217329
0.011877
0.21685
0.0173722
0.21623
0.0226936
0.215478
0.0279068
0.214601
0.0330663
0.213609
0.0382193
0.21251
0.0434073
0.211315
0.0486663
0.210034
0.0540283
0.208677
0.0595222
0.207259
0.0651743
0.205794
0.07101
0.204297
0.0770537
0.202787
0.0833308
0.201286
0.089868
0.199821
0.0966949
0.198423
0.103846
0.197135
0.111361
0.196013
0.119288
0.195135
0.127684
0.194614
0.136619
0.19462
0.146169
0.195416
0.156411
0.197414
0.167401
0.201223
0.179136
0.207613
0.191491
0.217245
0.204303
0.229842
0.217588
0.22877
0.24678
0.222951
0.00626804
0.22267
0.0121582
0.222262
0.0177804
0.221735
0.0232199
0.2211
0.0285424
0.220364
0.0338018
0.219539
0.0390449
0.218634
0.0443123
0.217661
0.0496389
0.216634
0.0550556
0.215566
0.0605896
0.214475
0.0662655
0.213379
0.072106
0.2123
0.0781331
0.211262
0.0843681
0.210297
0.0908331
0.209441
0.097551
0.20874
0.104547
0.208252
0.111849
0.208053
0.119486
0.208247
0.127491
0.208974
0.135893
0.210426
0.144717
0.212867
0.153969
0.216645
0.163624
0.222177
0.173604
0.229915
0.183754
0.240429
0.193789
0.254637
0.20338
0.210274
0.273132
0.228374
0.00638716
0.228144
0.0123883
0.227812
0.0181129
0.227385
0.0236462
0.226875
0.0290531
0.226289
0.034387
0.225641
0.0396935
0.224941
0.045012
0.224204
0.0503763
0.223444
0.0558153
0.22268
0.0613541
0.22193
0.0670151
0.221218
0.072818
0.22057
0.0787809
0.220018
0.0849205
0.219598
0.0912528
0.219356
0.097793
0.219347
0.104556
0.219641
0.111555
0.220326
0.118801
0.221514
0.126302
0.22335
0.134056
0.22602
0.142047
0.229755
0.150235
0.234833
0.158545
0.241585
0.166852
0.250388
0.174951
0.261689
0.182488
0.275961
0.189108
0.193725
0.29251
0.233929
0.00647826
0.233754
0.0125638
0.233502
0.0183652
0.233181
0.0239665
0.232803
0.0294319
0.232376
0.0348136
0.231914
0.0401559
0.231429
0.0454966
0.230937
0.0508678
0.230456
0.0562964
0.230005
0.061805
0.229608
0.067413
0.229289
0.0731368
0.22908
0.07899
0.229016
0.0849842
0.22914
0.0911287
0.229503
0.0974305
0.230165
0.103894
0.231201
0.110519
0.232703
0.1173
0.234782
0.124223
0.237574
0.131264
0.241243
0.138378
0.245982
0.145496
0.25201
0.152517
0.259571
0.159292
0.268905
0.165616
0.280193
0.1712
0.293529
0.175771
0.178816
0.308438
0.23962
0.00653985
0.239502
0.0126819
0.239334
0.018533
0.239125
0.0241757
0.238884
0.0296726
0.238623
0.0350747
0.238354
0.0404245
0.238093
0.0457582
0.237855
0.0511056
0.23766
0.0564913
0.23753
0.0619352
0.237489
0.0674536
0.237567
0.0730588
0.237797
0.0787603
0.238217
0.084564
0.238873
0.0904726
0.239818
0.0964853
0.241116
0.102597
0.242839
0.108795
0.245077
0.115062
0.247932
0.121369
0.251523
0.127673
0.255986
0.133914
0.261472
0.140011
0.268134
0.145854
0.276126
0.151301
0.285564
0.156177
0.296497
0.160268
0.308911
0.163357
0.165177
0.322551
0.245448
0.00657066
0.24539
0.0127402
0.24531
0.0186129
0.245216
0.0242693
0.245119
0.0297703
0.245029
0.0351648
0.244959
0.0404938
0.244927
0.0457911
0.244948
0.0510843
0.245044
0.0563955
0.245237
0.0617418
0.245555
0.0671359
0.246027
0.0725865
0.246689
0.0780985
0.24758
0.0836726
0.248747
0.0893058
0.250243
0.0949898
0.252128
0.100711
0.254473
0.10645
0.257357
0.112178
0.26087
0.117856
0.26511
0.123433
0.270181
0.128843
0.276191
0.134001
0.283239
0.138806
0.291406
0.143134
0.300739
0.146845
0.311227
0.14978
0.322802
0.151781
0.152716
0.335263
0.251418
0.00656967
0.251422
0.0127367
0.251432
0.0186022
0.251457
0.0242441
0.251507
0.029721
0.251591
0.0350801
0.251725
0.0403598
0.251925
0.0455919
0.252207
0.0508016
0.252595
0.0560081
0.253111
0.0612257
0.253783
0.0664638
0.254642
0.0717276
0.255723
0.0770176
0.257065
0.0823302
0.258714
0.0876568
0.26072
0.0929839
0.263139
0.0982921
0.266034
0.103555
0.269474
0.108738
0.273531
0.113798
0.278282
0.118682
0.283802
0.123323
0.290161
0.127643
0.297414
0.131553
0.305597
0.134951
0.31471
0.137731
0.324708
0.139782
0.335492
0.140997
0.141318
0.346891
0.257532
0.00653615
0.257599
0.01267
0.257702
0.018499
0.257849
0.0240977
0.258047
0.0295226
0.258309
0.0348182
0.258648
0.0400209
0.25908
0.0451598
0.259624
0.0502578
0.2603
0.0553313
0.261134
0.0603919
0.262152
0.0654459
0.263385
0.0704949
0.264866
0.0755363
0.266634
0.0805622
0.268731
0.0855604
0.271201
0.090513
0.274097
0.0953968
0.27747
0.100182
0.281376
0.104832
0.285873
0.109302
0.291015
0.11354
0.296852
0.117486
0.303424
0.121071
0.310755
0.124222
0.318847
0.126859
0.327673
0.128905
0.33717
0.130286
0.347231
0.130935
0.130834
0.357715
0.263794
0.00646961
0.263925
0.0125393
0.264122
0.0183021
0.26439
0.0238291
0.264739
0.0291739
0.265179
0.0343787
0.265722
0.0394772
0.266386
0.0444964
0.267187
0.0494562
0.268148
0.0543708
0.269291
0.059249
0.270642
0.0640943
0.272231
0.0689058
0.27409
0.0736774
0.276253
0.0783989
0.278759
0.0830549
0.281647
0.0876253
0.284959
0.0920845
0.288739
0.0964019
0.29303
0.100541
0.297872
0.104459
0.303304
0.108109
0.309352
0.111438
0.316034
0.114389
0.323352
0.116904
0.331286
0.118925
0.339795
0.120397
0.348807
0.121273
0.358225
0.121518
0.12113
0.367928
0.270207
0.00636989
0.270402
0.0123443
0.270693
0.0180112
0.271084
0.023438
0.271582
0.0286754
0.272198
0.0337627
0.272944
0.0387312
0.273835
0.0436053
0.274889
0.0484027
0.276125
0.053135
0.277565
0.0578087
0.279234
0.0624251
0.281159
0.0669807
0.283369
0.0714677
0.285894
0.0758734
0.288768
0.0801812
0.292024
0.0843697
0.295695
0.0884132
0.299815
0.0922815
0.304416
0.0959404
0.309523
0.0993515
0.315159
0.102473
0.321334
0.105262
0.32805
0.107673
0.335293
0.109661
0.343031
0.111186
0.351215
0.112213
0.359775
0.112713
0.368623
0.11267
0.112095
0.377658
0.276774
0.00623707
0.277033
0.0120852
0.277417
0.0176269
0.277929
0.0229256
0.278576
0.0280288
0.279366
0.032973
0.28031
0.037787
0.281423
0.0424927
0.28272
0.0471055
0.28422
0.0516351
0.285943
0.0560857
0.287911
0.0604567
0.290149
0.0647432
0.292681
0.0689356
0.295534
0.0730206
0.298734
0.0769806
0.302309
0.0807946
0.306285
0.0844378
0.310684
0.0878821
0.315528
0.0910966
0.320831
0.0940483
0.326602
0.0967025
0.33284
0.0990239
0.339535
0.100978
0.346662
0.102534
0.354184
0.103664
0.36205
0.104346
0.370195
0.104568
0.378541
0.104324
0.103633
0.387003
0.283498
0.00607155
0.283821
0.0117627
0.284297
0.0171504
0.284929
0.0222938
0.285721
0.027237
0.28668
0.0320138
0.287816
0.0366504
0.289143
0.0411664
0.290673
0.0455751
0.292424
0.0498843
0.294413
0.0540965
0.29666
0.0582099
0.299185
0.0622182
0.302009
0.0661114
0.305154
0.0698756
0.308641
0.0734938
0.31249
0.0769459
0.316718
0.0802091
0.321342
0.0832583
0.326372
0.0860669
0.331813
0.0886071
0.337664
0.0908511
0.343916
0.0927719
0.35055
0.0943446
0.357537
0.0955477
0.364837
0.0963642
0.3724
0.0967832
0.380167
0.096801
0.38807
0.0964209
0.0956635
0.396039
0.290384
0.00587397
0.290768
0.0113783
0.291335
0.0165839
0.292083
0.0215457
0.293016
0.0263043
0.294139
0.0308908
0.29546
0.0353289
0.296991
0.039636
0.298742
0.0438235
0.300729
0.0478976
0.302966
0.0518595
0.30547
0.0557066
0.308256
0.0594318
0.311342
0.0630251
0.314745
0.066473
0.318479
0.0697596
0.322559
0.0728664
0.326994
0.0757732
0.331794
0.0784583
0.336962
0.0808996
0.342494
0.0830748
0.348383
0.0849622
0.354612
0.0865423
0.361159
0.0877977
0.367992
0.088715
0.375071
0.0892853
0.382349
0.0895049
0.389774
0.0893763
0.397287
0.0889079
0.0881207
0.40483
0.297435
0.00564518
0.297879
0.0109335
0.298533
0.01593
0.299394
0.0206849
0.300463
0.0252358
0.301743
0.0296106
0.303241
0.033831
0.304964
0.0379121
0.306924
0.0418638
0.309131
0.0456909
0.311596
0.0493939
0.314334
0.0529692
0.317356
0.05641
0.320674
0.0597064
0.324301
0.062846
0.328247
0.0658143
0.332518
0.0685949
0.337121
0.0711706
0.342056
0.0735234
0.34732
0.0756353
0.352906
0.0774891
0.358799
0.0790689
0.36498
0.0803609
0.371424
0.0813543
0.378097
0.0820418
0.384962
0.0824202
0.391976
0.0824909
0.399092
0.0822604
0.40626
0.0817394
0.0809487
0.413432
0.304654
0.00538625
0.305157
0.0104305
0.305895
0.0151919
0.306864
0.0197161
0.308062
0.0240374
0.309492
0.028181
0.311157
0.0321663
0.313062
0.0360066
0.315216
0.0397103
0.317626
0.0432811
0.3203
0.0467189
0.323249
0.0500201
0.326481
0.053178
0.330004
0.0561835
0.333825
0.0590253
0.337949
0.0616908
0.342377
0.064166
0.347111
0.0664367
0.352147
0.0684882
0.357475
0.0703067
0.363085
0.0718795
0.368958
0.0731953
0.375074
0.0742455
0.381404
0.075024
0.387918
0.075528
0.39458
0.0757586
0.40135
0.0757204
0.408189
0.075422
0.415052
0.0748756
0.0741007
0.4219
0.312046
0.0050984
0.312605
0.00987171
0.313424
0.0143732
0.314495
0.0186443
0.315817
0.0227157
0.317388
0.0266102
0.319209
0.0303449
0.321284
0.0339315
0.323617
0.0373772
0.326214
0.0406849
0.329079
0.043854
0.332218
0.0468811
0.335636
0.04976
0.339337
0.0524825
0.343323
0.0550389
0.347595
0.0574184
0.352152
0.0596096
0.356988
0.0616009
0.362095
0.063381
0.367462
0.0649397
0.373073
0.0662679
0.37891
0.0673586
0.384949
0.0682067
0.391163
0.0688101
0.397522
0.0691692
0.403993
0.0692877
0.410541
0.0691723
0.41713
0.0688328
0.423724
0.0682814
0.0675365
0.430288
0.319615
0.00478294
0.320227
0.00925973
0.321122
0.013478
0.322292
0.0174748
0.32373
0.0212775
0.325433
0.0249067
0.327401
0.0283772
0.329633
0.0316993
0.332131
0.034879
0.334898
0.0379186
0.337934
0.0408176
0.341243
0.0435725
0.344825
0.0461781
0.34868
0.0486271
0.352807
0.0509116
0.357203
0.0530225
0.361862
0.0549508
0.366775
0.0566875
0.371932
0.0582242
0.377318
0.0595537
0.382916
0.0606701
0.388705
0.0615696
0.394662
0.06225
0.40076
0.0627117
0.406972
0.0629576
0.413266
0.062993
0.419613
0.0628257
0.42598
0.0624658
0.432336
0.0619253
0.0612206
0.438652
0.327365
0.00444124
0.328027
0.00859724
0.328995
0.0125102
0.330257
0.016213
0.331804
0.0197301
0.333632
0.0230793
0.335735
0.0262737
0.338113
0.029322
0.340762
0.0322295
0.343683
0.034998
0.346874
0.0376268
0.350333
0.0401131
0.354059
0.0424522
0.358048
0.0446383
0.362295
0.0466647
0.366793
0.0485243
0.371534
0.0502101
0.376506
0.0517155
0.381695
0.0530345