/*--------------------------------*- C++ -*----------------------------------*\
  =========                 |
  \\      /  F ield         | OpenFOAM: The Open Source CFD Toolbox
   \\    /   O peration     | Website:  https://openfoam.org
    \\  /    A nd           | Version:  dev
     \\/     M anipulation  |
\*---------------------------------------------------------------------------*/
FoamFile
{
    version     2.0;
    format      ascii;
    class       volVectorField;
    location    "5.2";
    object      U;
}
// * * * * * * * * * * * * * * * * * * * * * * * * * * * * * * * * * * * * * //

dimensions      [0 1 -1 0 0 0 0];

internalField   nonuniform List<vector> 
2790
(
(9.94399 0 0.0205232)
(9.87572 0 0.0295877)
(9.77521 0 0.0359895)
(9.64944 0 0.0425562)
(9.50409 0 0.0493855)
(9.34007 0 0.0564284)
(9.15655 0 0.063816)
(8.95263 0 0.0717118)
(8.72747 0 0.0802555)
(8.48008 0 0.089574)
(8.20928 0 0.0997942)
(7.91365 0 0.111046)
(7.59168 0 0.123462)
(7.24178 0 0.137167)
(6.86233 0 0.152275)
(6.45179 0 0.168873)
(6.00887 0 0.187001)
(5.53268 0 0.206623)
(5.02296 0 0.227595)
(4.48044 0 0.249616)
(3.90714 0 0.272181)
(3.30682 0 0.29453)
(2.68527 0 0.315624)
(2.05061 0 0.334292)
(1.41179 0 0.35061)
(0.798031 0 0.372887)
(0.110704 0 0.325058)
(-0.469564 0 -0.114862)
(-0.453778 0 -0.297153)
(-0.231163 0 -0.423858)
(9.9985 0 0.040703)
(9.98145 0 0.0623828)
(9.93574 0 0.0791401)
(9.86416 0 0.0966248)
(9.77097 0 0.115124)
(9.65715 0 0.134488)
(9.52206 0 0.154975)
(9.36486 0 0.176943)
(9.18472 0 0.200708)
(8.98068 0 0.22655)
(8.75153 0 0.254746)
(8.49589 0 0.285562)
(8.21221 0 0.319252)
(7.89883 0 0.356027)
(7.55404 0 0.396025)
(7.1762 0 0.439269)
(6.76379 0 0.485599)
(6.31566 0 0.534595)
(5.83125 0 0.58547)
(5.31088 0 0.636962)
(4.75615 0 0.687212)
(4.17041 0 0.733654)
(3.5593 0 0.77296)
(2.93155 0 0.801099)
(2.29995 0 0.813754)
(1.69296 0 0.807258)
(1.10716 0 0.747256)
(0.658899 0 0.547934)
(0.186456 0 0.224619)
(-0.00819934 0 -0.453729)
(9.99559 0 0.0432069)
(9.97556 0 0.0752716)
(9.9318 0 0.103346)
(9.8649 0 0.132371)
(9.77778 0 0.163059)
(9.67155 0 0.195399)
(9.54588 0 0.229742)
(9.40014 0 0.266603)
(9.23365 0 0.306471)
(9.04564 0 0.349808)
(8.83509 0 0.397073)
(8.60082 0 0.448724)
(8.34145 0 0.505195)
(8.0555 0 0.566867)
(7.74138 0 0.634015)
(7.39745 0 0.706736)
(7.02211 0 0.784843)
(6.61396 0 0.86773)
(6.17194 0 0.954201)
(5.69564 0 1.04226)
(5.18563 0 1.12889)
(4.64396 0 1.20979)
(4.0748 0 1.27916)
(3.48538 0 1.32934)
(2.88685 0 1.35009)
(2.29947 0 1.32643)
(1.73185 0 1.22078)
(1.21626 0 0.973014)
(0.70115 0 0.570156)
(0.358044 0 -0.156546)
(9.99403 0 0.0494992)
(9.97181 0 0.0932063)
(9.92788 0 0.133572)
(9.86225 0 0.174209)
(9.77693 0 0.216433)
(9.67298 0 0.260661)
(9.55032 0 0.30743)
(9.40849 0 0.357415)
(9.24703 0 0.411291)
(9.06533 0 0.469706)
(8.86269 0 0.533303)
(8.6382 0 0.602725)
(8.39085 0 0.678594)
(8.11952 0 0.761477)
(7.823 0 0.851823)
(7.50001 0 0.949878)
(7.14925 0 1.05555)
(6.76945 0 1.16824)
(6.3595 0 1.28661)
(5.9186 0 1.40827)
(5.44653 0 1.52947)
(4.944 0 1.64469)
(4.41317 0 1.74615)
(3.85827 0 1.82322)
(3.28582 0 1.86137)
(2.70641 0 1.84033)
(2.12565 0 1.72601)
(1.55426 0 1.47788)
(0.957953 0 1.08371)
(0.509426 0 0.502338)
(9.99331 0 0.0572136)
(9.96994 0 0.110959)
(9.92593 0 0.162104)
(9.86146 0 0.213348)
(9.77799 0 0.266357)
(9.67635 0 0.321914)
(9.55654 0 0.380702)
(9.41822 0 0.443488)
(9.26097 0 0.511056)
(9.08433 0 0.584171)
(8.8877 0 0.663588)
(8.67039 0 0.750064)
(8.43159 0 0.844336)
(8.17046 0 0.947085)
(7.88608 0 1.05888)
(7.57748 0 1.18008)
(7.24366 0 1.31069)
(6.88361 0 1.45018)
(6.49628 0 1.59722)
(6.08073 0 1.74933)
(5.63616 0 1.90241)
(5.16212 0 2.05032)
(4.65878 0 2.18418)
(4.12722 0 2.29174)
(3.56941 0 2.35656)
(2.98889 0 2.35733)
(2.38684 0 2.26497)
(1.76639 0 2.04766)
(1.08999 0 1.69142)
(0.536653 0 1.15416)
(9.99302 0 0.0655386)
(9.96923 0 0.128702)
(9.92556 0 0.190114)
(9.86253 0 0.251843)
(9.78129 0 0.315578)
(9.68244 0 0.382319)
(9.56601 0 0.452875)
(9.43171 0 0.528101)
(9.2792 0 0.60888)
(9.10806 0 0.696085)
(8.91777 0 0.79058)
(8.70774 0 0.893224)
(8.47728 0 1.00486)
(8.22567 0 1.12626)
(7.95215 0 1.25809)
(7.65589 0 1.40081)
(7.33603 0 1.55454)
(6.99164 0 1.71886)
(6.62168 0 1.89255)
(6.225 0 2.07322)
(5.80028 0 2.25685)
(5.34604 0 2.4372)
(4.86071 0 2.6052)
(4.3427 0 2.74822)
(3.7904 0 2.84955)
(3.20257 0 2.8882)
(2.57657 0 2.83824)
(1.91347 0 2.67162)
(1.17275 0 2.37401)
(0.549967 0 1.89442)
(9.99297 0 0.0740748)
(9.96926 0 0.146314)
(9.92637 0 0.217483)
(9.86508 0 0.289292)
(9.78642 0 0.363355)
(9.69085 0 0.440827)
(9.57835 0 0.52266)
(9.44871 0 0.609811)
(9.30165 0 0.703255)
(9.13678 0 0.803965)
(8.95364 0 0.9129)
(8.7517 0 1.03101)
(8.53034 0 1.15922)
(8.28887 0 1.2984)
(8.02659 0 1.4493)
(7.74269 0 1.61248)
(7.43629 0 1.78819)
(7.1064 0 1.97616)
(6.7518 0 2.17541)
(6.37101 0 2.38382)
(5.9621 0 2.59774)
(5.52264 0 2.81138)
(5.04952 0 3.01615)
(4.539 0 3.19996)
(3.98666 0 3.34668)
(3.38791 0 3.43597)
(2.73725 0 3.44332)
(2.03624 0 3.3415)
(1.24175 0 3.11359)
(0.563513 0 2.69316)
(9.99306 0 0.082588)
(9.96981 0 0.163606)
(9.92807 0 0.24405)
(9.86885 0 0.32548)
(9.79313 0 0.409446)
(9.70126 0 0.497206)
(9.59323 0 0.589839)
(9.46888 0 0.688396)
(9.32796 0 0.79394)
(9.17014 0 0.907529)
(8.99502 0 1.03022)
(8.8021 0 1.16304)
(8.59081 0 1.30701)
(8.3605 0 1.46309)
(8.11045 0 1.63215)
(7.8398 0 1.81487)
(7.54761 0 2.01167)
(7.23267 0 2.22251)
(6.8935 0 2.44673)
(6.52816 0 2.68269)
(6.13409 0 2.92735)
(5.70785 0 3.17577)
(5.24497 0 3.42036)
(4.73978 0 3.6502)
(4.18548 0 3.85024)
(3.57475 0 4.00089)
(2.89951 0 4.07791)
(2.1621 0 4.05239)
(1.31611 0 3.90171)
(0.583215 0 3.54016)
(9.99326 0 0.0909282)
(9.97072 0 0.180408)
(9.93046 0 0.269668)
(9.87362 0 0.360241)
(9.80118 0 0.453647)
(9.71344 0 0.551209)
(9.61038 0 0.654112)
(9.49188 0 0.763496)
(9.35776 0 0.880505)
(9.20773 0 1.00628)
(9.04145 0 1.14196)
(8.85848 0 1.28867)
(8.65827 0 1.44752)
(8.44021 0 1.61959)
(8.20357 0 1.80586)
(7.94746 0 2.00721)
(7.67078 0 2.22425)
(7.37216 0 2.45727)
(7.04979 0 2.70605)
(6.70127 0 2.96957)
(6.32334 0 3.24566)
(5.91164 0 3.53053)
(5.46036 0 3.81807)
(4.962 0 4.09899)
(4.4074 0 4.35987)
(3.78639 0 4.5821)
(3.08755 0 4.74108)
(2.31269 0 4.80446)
(1.41063 0 4.74109)
(0.6143 0 4.44193)
(9.99352 0 0.0989921)
(9.97191 0 0.196579)
(9.9334 0 0.294195)
(9.87924 0 0.393417)
(9.8104 0 0.495755)
(9.72717 0 0.602588)
(9.62953 0 0.715182)
(9.51741 0 0.834761)
(9.39068 0 0.962544)
(9.24913 0 1.09975)
(9.09245 0 1.24759)
(8.92028 0 1.40729)
(8.73213 0 1.58006)
(8.52742 0 1.7671)
(8.30543 0 1.96955)
(8.06525 0 2.18848)
(7.80572 0 2.42479)
(7.52529 0 2.67917)
(7.22191 0 2.95192)
(6.89276 0 3.24282)
(6.53402 0 3.55079)
(6.14047 0 3.87349)
(5.70504 0 4.2067)
(5.21847 0 4.54339)
(4.66897 0 4.87244)
(4.04284 0 5.17697)
(3.32365 0 5.43231)
(2.50973 0 5.60196)
(1.54184 0 5.64349)
(0.66404 0 5.41803)
(9.99384 0 0.106704)
(9.9733 0 0.212)
(9.9368 0 0.317502)
(9.88558 0 0.424855)
(9.82064 0 0.535588)
(9.74225 0 0.65112)
(9.65045 0 0.772787)
(9.54518 0 0.901884)
(9.42638 0 1.0397)
(9.2939 0 1.18752)
(9.14752 0 1.34663)
(8.98694 0 1.51835)
(8.81175 0 1.70399)
(8.62143 0 1.90487)
(8.41531 0 2.12231)
(8.19252 0 2.35759)
(7.95188 0 2.61196)
(7.69178 0 2.88654)
(7.41004 0 3.18228)
(7.10363 0 3.49986)
(6.76833 0 3.83948)
(6.39832 0 4.20055)
(5.98554 0 4.58119)
(5.51906 0 4.97733)
(4.98434 0 5.38132)
(4.36321 0 5.77956)
(3.63184 0 6.14914)
(2.78006 0 6.45066)
(1.7334 0 6.62849)
(0.744804 0 6.50306)
(9.9942 0 0.114006)
(9.97487 0 0.226575)
(9.94056 0 0.339473)
(9.89252 0 0.454423)
(9.83173 0 0.572983)
(9.75851 0 0.696608)
(9.67289 0 0.826693)
(9.57488 0 0.964592)
(9.46448 0 1.11165)
(9.34162 0 1.26921)
(9.20616 0 1.43865)
(9.05786 0 1.62133)
(8.89644 0 1.81869)
(8.72147 0 2.03216)
(8.53237 0 2.26323)
(8.32836 0 2.51344)
(8.10834 0 2.78435)
(7.8708 0 3.07756)
(7.6136 0 3.39473)
(7.33372 0 3.73749)
(7.0269 0 4.10746)
(6.68712 0 4.50603)
(6.30585 0 4.93412)
(5.87103 0 5.39146)
(5.36571 0 5.87537)
(4.76681 0 6.37825)
(4.04061 0 6.88322)
(3.16135 0 7.35349)
(2.02465 0 7.72316)
(0.880679 0 7.75702)
(9.99459 0 0.120853)
(9.97657 0 0.240224)
(9.94461 0 0.360007)
(9.89995 0 0.482)
(9.84356 0 0.607795)
(9.77575 0 0.738882)
(9.69662 0 0.876696)
(9.60623 0 1.02264)
(9.50464 0 1.17812)
(9.39185 0 1.34451)
(9.26781 0 1.52325)
(9.13242 0 1.71578)
(8.98547 0 1.92361)
(8.82668 0 2.14829)
(8.65562 0 2.39148)
(8.47167 0 2.65493)
(8.27392 0 2.94053)
(8.06107 0 3.25034)
(7.83125 0 3.58669)
(7.58177 0 3.95218)
(7.30875 0 4.34985)
(7.0066 0 4.78317)
(6.66715 0 5.25612)
(6.27839 0 5.77297)
(5.82235 0 6.33772)
(5.27234 0 6.95244)
(4.58436 0 7.61365)
(3.70977 0 8.30091)
(2.488 0 8.95816)
(1.12437 0 9.29308)
(9.99501 0 0.127211)
(9.97838 0 0.252884)
(9.94891 0 0.37902)
(9.9078 0 0.507486)
(9.85598 0 0.639907)
(9.79382 0 0.777801)
(9.72142 0 0.922637)
(9.63893 0 1.07586)
(9.54647 0 1.23889)
(9.44413 0 1.41317)
(9.33195 0 1.60016)
(9.20995 0 1.80135)
(9.07805 0 2.01833)
(8.93614 0 2.25275)
(8.78397 0 2.50638)
(8.62116 0 2.78118)
(8.44708 0 3.07929)
(8.2608 0 3.40319)
(8.06093 0 3.75578)
(7.84542 0 4.14052)
(7.61126 0 4.5617)
(7.35401 0 5.02474)
(7.06705 0 5.53657)
(6.74029 0 6.1062)
(6.35776 0 6.74531)
(5.89387 0 7.46898)
(5.30053 0 8.29637)
(4.50856 0 9.24798)
(3.26851 0 10.3418)
(1.6048 0 11.3589)
(9.99545 0 0.13305)
(9.98026 0 0.264503)
(9.95339 0 0.396442)
(9.91596 0 0.530788)
(9.86888 0 0.669198)
(9.81253 0 0.813211)
(9.74708 0 0.96432)
(9.67271 0 1.12399)
(9.58963 0 1.29368)
(9.49802 0 1.47484)
(9.39802 0 1.66895)
(9.28977 0 1.87757)
(9.17337 0 2.10229)
(9.04886 0 2.34484)
(8.91623 0 2.60709)
(8.77538 0 2.89112)
(8.62605 0 3.19927)
(8.46781 0 3.53432)
(8.29992 0 3.89956)
(8.12125 0 4.29908)
(7.93008 0 4.73812)
(7.72387 0 5.22351)
(7.49878 0 5.76447)
(7.2489 0 6.37383)
(6.96474 0 7.07002)
(6.63078 0 7.88087)
(6.21419 0 8.8518)
(5.66555 0 10.0658)
(4.68978 0 11.7309)
(2.6871 0 14.5917)
(0.114233 0 -0.113457)
(0.269507 0 -0.103614)
(0.427377 0 -0.0814998)
(0.559135 0 -0.060607)
(0.660782 0 -0.0436856)
(0.737381 0 -0.0306366)
(0.795021 0 -0.0208002)
(0.838578 0 -0.013531)
(0.871679 0 -0.00827102)
(0.897087 0 -0.00455615)
(0.916962 0 -0.00201905)
(0.93301 0 -0.000375839)
(0.946576 0 0.000596756)
(0.958701 0 0.00108328)
(0.970149 0 0.00124681)
(0.98141 0 0.00124126)
(0.992671 0 0.00121752)
(1.00379 0 0.00131927)
(1.01432 0 0.00166362)
(1.02355 0 0.0023101)
(1.03072 0 0.00323354)
(1.03515 0 0.00431833)
(1.03655 0 0.00535457)
(1.03528 0 0.00604996)
(1.03136 0 0.0065812)
(1.02492 0 0.00707375)
(1.01589 0 0.00754723)
(1.00406 0 0.00793549)
(0.989642 0 0.00791502)
(0.971821 0 0.00622542)
(0.0991843 0 -0.268308)
(0.25115 0 -0.251632)
(0.398692 0 -0.203954)
(0.524234 0 -0.157982)
(0.625116 0 -0.120645)
(0.706001 0 -0.0918109)
(0.771973 0 -0.0700067)
(0.826936 0 -0.0537892)
(0.873729 0 -0.0419069)
(0.914457 0 -0.0333282)
(0.950717 0 -0.0272501)
(0.983736 0 -0.0230625)
(1.01446 0 -0.020295)
(1.04362 0 -0.0185673)
(1.07176 0 -0.0175508)
(1.09928 0 -0.0169383)
(1.12644 0 -0.0164285)
(1.15332 0 -0.0157321)
(1.17983 0 -0.0146083)
(1.20574 0 -0.0129238)
(1.23069 0 -0.0107056)
(1.2543 0 -0.00814887)
(1.27627 0 -0.00556383)
(1.29611 0 -0.00322475)
(1.31393 0 -0.00104665)
(1.32974 0 0.00115074)
(1.34351 0 0.00358886)
(1.35419 0 0.00605362)
(1.36145 0 0.00768077)
(1.36749 0 0.00664573)
(0.0795081 0 -0.425582)
(0.210596 0 -0.397211)
(0.327863 0 -0.323567)
(0.426772 0 -0.253504)
(0.505433 0 -0.197122)
(0.568734 0 -0.153704)
(0.620807 0 -0.120828)
(0.664601 0 -0.0962602)
(0.702267 0 -0.0780942)
(0.735366 0 -0.0647795)
(0.765059 0 -0.0551266)
(0.79223 0 -0.0482389)
(0.817563 0 -0.0434316)
(0.841586 0 -0.0401623)
(0.864706 0 -0.0379738)
(0.887234 0 -0.0364491)
(0.909388 0 -0.0351838)
(0.93129 0 -0.0337888)
(0.952946 0 -0.031934)
(0.974233 0 -0.0294259)
(0.994925 0 -0.0262812)
(1.01476 0 -0.0227339)
(1.03352 0 -0.019119)
(1.05125 0 -0.0156584)
(1.06813 0 -0.0124652)
(1.0845 0 -0.00934264)
(1.10058 0 -0.00593376)
(1.11734 0 -0.00228717)
(1.13389 0 0.000856343)
(1.1504 0 0.0024675)
(0.0600579 0 -0.550815)
(0.164408 0 -0.505065)
(0.244614 0 -0.407488)
(0.312199 0 -0.318037)
(0.363494 0 -0.247639)
(0.404394 0 -0.194025)
(0.437765 0 -0.153642)
(0.465419 0 -0.123509)
(0.488799 0 -0.101171)
(0.508905 0 -0.0847023)
(0.526437 0 -0.0726522)
(0.541938 0 -0.0639356)
(0.555838 0 -0.0577287)
(0.56848 0 -0.0533859)
(0.580144 0 -0.0503729)
(0.591069 0 -0.0482119)
(0.601473 0 -0.0464424)
(0.611542 0 -0.0446124)
(0.6214 0 -0.042321)
(0.631071 0 -0.03931)
(0.640443 0 -0.0355615)
(0.649289 0 -0.0313215)
(0.657332 0 -0.0269996)
(0.664442 0 -0.0229884)
(0.670749 0 -0.0195152)
(0.676599 0 -0.0164706)
(0.682425 0 -0.0135775)
(0.68859 0 -0.0105959)
(0.69483 0 -0.00786977)
(0.701396 0 -0.00432127)
(0.039638 0 -0.645448)
(0.111975 0 -0.577295)
(0.149799 0 -0.458586)
(0.184141 0 -0.355144)
(0.205002 0 -0.275642)
(0.220528 0 -0.215752)
(0.231801 0 -0.170761)
(0.239588 0 -0.137262)
(0.244703 0 -0.112257)
(0.247683 0 -0.0936244)
(0.248894 0 -0.0798032)
(0.248625 0 -0.069631)
(0.247118 0 -0.0622277)
(0.244584 0 -0.0569092)
(0.241219 0 -0.0531223)
(0.237229 0 -0.050387)
(0.232867 0 -0.0482408)
(0.228429 0 -0.0462012)
(0.224182 0 -0.0437928)
(0.220284 0 -0.0406488)
(0.216692 0 -0.0366503)
(0.213124 0 -0.0319951)
(0.209 0 -0.0271129)
(0.203772 0 -0.0225111)
(0.197154 0 -0.0184989)
(0.188888 0 -0.0150194)
(0.17973 0 -0.0119265)
(0.171026 0 -0.00799215)
(0.159759 0 -0.00296502)
(0.142584 0 0.000433773)
(0.0175901 0 -0.704104)
(0.0527186 0 -0.609618)
(0.0447351 0 -0.47301)
(0.0446142 0 -0.360716)
(0.0327583 0 -0.275851)
(0.0200344 0 -0.212723)
(0.00552012 0 -0.165077)
(-0.0102171 0 -0.129878)
(-0.0268683 0 -0.103995)
(-0.0442908 0 -0.0847669)
(-0.0621364 0 -0.0705496)
(-0.0802039 0 -0.0601334)
(-0.0983067 0 -0.0526174)
(-0.116272 0 -0.0473142)
(-0.13394 0 -0.0436832)
(-0.151139 0 -0.041263)
(-0.16765 0 -0.039584)
(-0.183256 0 -0.0381071)
(-0.197841 0 -0.0362612)
(-0.211464 0 -0.033592)
(-0.224362 0 -0.0299462)
(-0.236897 0 -0.0255497)
(-0.249458 0 -0.020826)
(-0.26236 0 -0.0162541)
(-0.275843 0 -0.0119834)
(-0.28999 0 -0.00752055)
(-0.305863 0 -0.00279563)
(-0.32459 0 0.00158942)
(-0.337701 0 0.00457338)
(-0.344961 0 0.00439416)
(-0.00777088 0 -0.719695)
(-0.0152799 0 -0.596107)
(-0.0693524 0 -0.447487)
(-0.107148 0 -0.332598)
(-0.152809 0 -0.247202)
(-0.196706 0 -0.185351)
(-0.238785 0 -0.139844)
(-0.278684 0 -0.106038)
(-0.316564 0 -0.0812092)
(-0.352266 0 -0.0632287)
(-0.385583 0 -0.0503701)
(-0.416488 0 -0.0413466)
(-0.445074 0 -0.0352047)
(-0.471524 0 -0.0312276)
(-0.496078 0 -0.0288623)
(-0.518961 0 -0.0276559)
(-0.54033 0 -0.0271502)
(-0.560288 0 -0.0267857)
(-0.578989 0 -0.0259296)
(-0.596722 0 -0.0240445)
(-0.613874 0 -0.0209098)
(-0.630823 0 -0.0167248)
(-0.647843 0 -0.0118698)
(-0.665091 0 -0.00687125)
(-0.682896 0 -0.0023307)
(-0.700193 0 0.00158419)
(-0.713915 0 0.00497722)
(-0.723996 0 0.00737241)
(-0.733011 0 0.00814985)
(-0.738293 0 0.00739377)
(-0.0397516 0 -0.683712)
(-0.0938415 0 -0.536382)
(-0.192619 0 -0.386745)
(-0.270758 0 -0.274351)
(-0.349942 0 -0.192658)
(-0.423492 0 -0.135607)
(-0.490023 0 -0.0955216)
(-0.549057 0 -0.0667015)
(-0.601295 0 -0.0460966)
(-0.647709 0 -0.0318632)
(-0.689063 0 -0.0223945)
(-0.726076 0 -0.0164428)
(-0.759397 0 -0.0130448)
(-0.789644 0 -0.0114441)
(-0.817396 0 -0.0110989)
(-0.843132 0 -0.01162)
(-0.867155 0 -0.0126108)
(-0.889618 0 -0.0135219)
(-0.910693 0 -0.0136462)
(-0.930718 0 -0.0123424)
(-0.950189 0 -0.00938701)
(-0.969623 0 -0.00521707)
(-0.98945 0 -0.000786405)
(-1.00764 0 0.00311404)
(-1.02263 0 0.00614436)
(-1.03481 0 0.00839153)
(-1.0457 0 0.0103518)
(-1.05539 0 0.0119771)
(-1.06346 0 0.0123654)
(-1.06777 0 0.0115227)
(-0.0801067 0 -0.591236)
(-0.184454 0 -0.427401)
(-0.33444 0 -0.285215)
(-0.454847 0 -0.183778)
(-0.565903 0 -0.112312)
(-0.665998 0 -0.0634879)
(-0.755048 0 -0.0316764)
(-0.831846 0 -0.01206)
(-0.894138 0 -0.000746069)
(-0.945377 0 0.00575649)
(-0.988108 0 0.00914581)
(-1.02447 0 0.0103969)
(-1.0561 0 0.0101937)
(-1.08431 0 0.00908578)
(-1.11017 0 0.00743801)
(-1.13443 0 0.00543374)
(-1.15749 0 0.00325322)
(-1.17954 0 0.00129567)
(-1.20062 0 0.000207449)
(-1.22078 0 0.000604934)
(-1.23997 0 0.00265389)
(-1.25791 0 0.0058383)
(-1.27398 0 0.00907825)
(-1.28899 0 0.0115805)
(-1.30274 0 0.0132289)
(-1.31475 0 0.0143627)
(-1.32509 0 0.0153554)
(-1.33417 0 0.0161372)
(-1.34159 0 0.0161076)
(-1.34528 0 0.0153575)
(-0.135839 0 -0.437217)
(-0.302216 0 -0.266051)
(-0.516876 0 -0.139876)
(-0.69252 0 -0.052111)
(-0.83519 0 -6.14585e-05)
(-0.945198 0 0.026693)
(-1.03023 0 0.0389041)
(-1.09708 0 0.0427683)
(-1.15298 0 0.0427747)
(-1.20018 0 0.0409984)
(-1.24081 0 0.0383745)
(-1.27633 0 0.0352216)
(-1.30778 0 0.031738)
(-1.33602 0 0.0281933)
(-1.36185 0 0.0247657)
(-1.38579 0 0.0213848)
(-1.40794 0 0.0179336)
(-1.42812 0 0.0146513)
(-1.44627 0 0.012241)
(-1.46282 0 0.0114757)
(-1.47858 0 0.0126082)
(-1.49431 0 0.0151032)
(-1.51014 0 0.0178736)
(-1.52548 0 0.019786)
(-1.53939 0 0.0204222)
(-1.55119 0 0.0202876)
(-1.56101 0 0.0201273)
(-1.56948 0 0.0201131)
(-1.57633 0 0.0197963)
(-1.57958 0 0.019194)
(-0.21803 0 -0.235092)
(-0.462169 0 -0.0257132)
(-0.710192 0 0.0685615)
(-0.890278 0 0.101721)
(-1.03043 0 0.110472)
(-1.14154 0 0.108838)
(-1.22989 0 0.102251)
(-1.30088 0 0.0935896)
(-1.35856 0 0.0843086)
(-1.40625 0 0.0754722)
(-1.44673 0 0.0675323)
(-1.48186 0 0.0602456)
(-1.51273 0 0.0533896)
(-1.54022 0 0.047133)
(-1.56528 0 0.0416376)
(-1.58862 0 0.0366152)
(-1.6103 0 0.0315952)
(-1.6299 0 0.0266605)
(-1.64715 0 0.0227381)
(-1.6626 0 0.0209847)
(-1.67742 0 0.0217909)
(-1.69269 0 0.0243216)
(-1.70864 0 0.0269631)
(-1.72443 0 0.0282268)
(-1.73863 0 0.0276374)
(-1.75023 0 0.0259866)
(-1.75944 0 0.0245184)
(-1.7672 0 0.0237503)
(-1.77345 0 0.0232824)
(-1.77634 0 0.0228769)
(-0.299855 0 0.182649)
(-0.572294 0 0.265406)
(-0.849016 0 0.273517)
(-1.05046 0 0.255432)
(-1.20446 0 0.227925)
(-1.32154 0 0.198487)
(-1.4115 0 0.171151)
(-1.48194 0 0.14713)
(-1.53795 0 0.126478)
(-1.58353 0 0.109557)
(-1.62211 0 0.0961092)
(-1.65582 0 0.0848236)
(-1.6855 0 0.0746626)
(-1.71181 0 0.0657224)
(-1.73585 0 0.0583435)
(-1.75864 0 0.0519876)
(-1.78012 0 0.0455629)
(-1.79934 0 0.038804)
(-1.81557 0 0.0329719)
(-1.82946 0 0.0299317)
(-1.84282 0 0.0304421)
(-1.85737 0 0.0333377)
(-1.87351 0 0.0362399)
(-1.89 0 0.0370039)
(-1.90471 0 0.0350012)
(-1.91613 0 0.0314834)
(-1.92452 0 0.0284795)
(-1.93132 0 0.0269946)
(-1.93686 0 0.0265122)
(-1.9394 0 0.0263273)
(-0.352984 0 0.585852)
(-0.693121 0 0.59949)
(-1.01753 0 0.512875)
(-1.23311 0 0.424783)
(-1.38761 0 0.350274)
(-1.49974 0 0.287138)
(-1.58309 0 0.236957)
(-1.64735 0 0.197636)
(-1.69773 0 0.165806)
(-1.7381 0 0.141)
(-1.7726 0 0.1227)
(-1.80371 0 0.108085)
(-1.83153 0 0.0947346)
(-1.85593 0 0.0829332)
(-1.87823 0 0.073779)
(-1.90007 0 0.0665504)
(-1.92138 0 0.0590528)
(-1.94025 0 0.0503083)
(-1.95508 0 0.0421087)
(-1.96664 0 0.0375638)
(-1.97779 0 0.0381062)
(-1.99128 0 0.0420418)
(-2.00777 0 0.0458122)
(-2.02542 0 0.0462985)
(-2.04102 0 0.0426203)
(-2.05225 0 0.0367133)
(-2.05947 0 0.0318311)
(-2.06491 0 0.0297036)
(-2.06955 0 0.029436)
(-2.07176 0 0.0295225)
(-0.469373 0 1.09832)
(-0.900887 0 1.00223)
(-1.25773 0 0.77292)
(-1.45582 0 0.587331)
(-1.58834 0 0.462213)
(-1.68155 0 0.362794)
(-1.74769 0 0.291531)
(-1.79917 0 0.241294)
(-1.84004 0 0.200222)
(-1.87194 0 0.167538)
(-1.89993 0 0.145395)
(-1.92751 0 0.129091)
(-1.95315 0 0.113264)
(-1.97483 0 0.0986452)
(-1.99426 0 0.0881848)
(-2.0146 0 0.0811761)
(-2.036 0 0.0733195)
(-2.05489 0 0.0622085)
(-2.06802 0 0.0505376)
(-2.07621 0 0.0437531)
(-2.08406 0 0.0446157)
(-2.09607 0 0.0505244)
(-2.11327 0 0.0560042)
(-2.13283 0 0.0564904)
(-2.14992 0 0.0507158)
(-2.16096 0 0.0415938)
(-2.16639 0 0.0342685)
(-2.16982 0 0.0316295)
(-2.17333 0 0.0319951)
(-2.17523 0 0.0324596)
(-0.698847 0 2.08834)
(-1.2333 0 1.66351)
(-1.61113 0 1.06446)
(-1.73611 0 0.674875)
(-1.80855 0 0.537042)
(-1.86659 0 0.421805)
(-1.90121 0 0.338867)
(-1.93393 0 0.282612)
(-1.96476 0 0.229088)
(-1.98581 0 0.18424)
(-2.00383 0 0.161299)
(-2.02686 0 0.14893)
(-2.05078 0 0.132518)
(-2.06915 0 0.113787)
(-2.08418 0 0.100848)
(-2.10241 0 0.0946351)
(-2.12486 0 0.0869095)
(-2.14499 0 0.0725852)
(-2.15626 0 0.055742)
(-2.15945 0 0.0458662)
(-2.16225 0 0.0480309)
(-2.17214 0 0.0579048)
(-2.19061 0 0.0667064)
(-2.21321 0 0.0678141)
(-2.23269 0 0.0594619)
(-2.24351 0 0.0459304)
(-2.24617 0 0.0352598)
(-2.24655 0 0.0323591)
(-2.24864 0 0.0341586)
(-2.25035 0 0.0352381)
(9.9959 0 0.138445)
(9.98225 0 0.275238)
(9.9581 0 0.412524)
(9.92453 0 0.552272)
(9.88242 0 0.696159)
(9.83216 0 0.845738)
(9.77399 0 1.00251)
(9.70815 0 1.16797)
(9.63492 0 1.34355)
(9.55458 0 1.53074)
(9.46739 0 1.73102)
(9.37363 0 1.94595)
(9.27355 0 2.17714)
(9.16742 0 2.42635)
(9.05548 0 2.69548)
(8.93795 0 2.98668)
(8.81503 0 3.30238)
(8.68684 0 3.6455)
(8.55347 0 4.01953)
(8.41491 0 4.42886)
(8.27109 0 4.87913)
(8.1219 0 5.3778)
(7.96727 0 5.93505)
(7.80748 0 6.56522)
(7.64372 0 7.28939)
(7.48098 0 8.14016)
(7.33249 0 9.17149)
(7.2883 0 10.4769)
(7.74626 0 12.2013)
(7.92763 0 14.9199)
(9.99638 0 0.143405)
(9.98434 0 0.285093)
(9.96305 0 0.427252)
(9.93351 0 0.571882)
(9.89656 0 0.720674)
(9.85262 0 0.875186)
(9.80196 0 1.03693)
(9.74492 0 1.20737)
(9.68183 0 1.38797)
(9.61308 0 1.58019)
(9.53906 0 1.78551)
(9.46017 0 2.00545)
(9.37687 0 2.24163)
(9.28962 0 2.49577)
(9.19895 0 2.76976)
(9.10544 0 3.06571)
(9.00973 0 3.38606)
(8.91258 0 3.73364)
(8.81491 0 4.11192)
(8.71789 0 4.52515)
(8.62312 0 4.97875)
(8.53299 0 5.47975)
(8.45119 0 6.03747)
(8.38398 0 6.66451)
(8.34255 0 7.37809)
(8.34895 0 8.20161)
(8.44202 0 9.16524)
(8.67767 0 10.3023)
(9.32465 0 11.5574)
(9.81475 0 12.6463)
(9.99688 0 0.147842)
(9.98651 0 0.293905)
(9.96819 0 0.440403)
(9.94282 0 0.589352)
(9.91121 0 0.742448)
(9.87377 0 0.901241)
(9.83085 0 1.06723)
(9.78282 0 1.24187)
(9.73012 0 1.42659)
(9.67322 0 1.62283)
(9.61261 0 1.83202)
(9.54887 0 2.05566)
(9.48259 0 2.29529)
(9.4145 0 2.55257)
(9.34537 0 2.8293)
(9.27614 0 3.12749)
(9.2079 0 3.44941)
(9.14199 0 3.79768)
(9.0801 0 4.17544)
(9.02443 0 4.58644)
(8.97802 0 5.03529)
(8.94513 0 5.52765)
(8.93207 0 6.07052)
(8.94834 0 6.67228)
(9.00843 0 7.34239)
(9.1345 0 8.08949)
(9.35755 0 8.91545)
(9.68708 0 9.80919)
(10.2529 0 10.7193)
(10.9407 0 11.4359)
(9.9974 0 0.151704)
(9.98874 0 0.301566)
(9.97347 0 0.45181)
(9.95238 0 0.604452)
(9.92622 0 0.761179)
(9.89544 0 0.923526)
(9.86041 0 1.09296)
(9.82156 0 1.27092)
(9.77941 0 1.4588)
(9.7345 0 1.65796)
(9.68745 0 1.86979)
(9.63896 0 2.09571)
(9.5898 0 2.33717)
(9.54088 0 2.59571)
(9.49325 0 2.87298)
(9.44813 0 3.1708)
(9.40702 0 3.49115)
(9.37174 0 3.83632)
(9.34459 0 4.20887)
(9.32854 0 4.61177)
(9.32752 0 5.04844)
(9.34683 0 5.52271)
(9.39373 0 6.03872)
(9.47811 0 6.60042)
(9.61318 0 7.21059)
(9.81578 0 7.86891)
(10.1087 0 8.56827)
(10.5006 0 9.29403)
(11.0583 0 10.036)
(11.8517 0 10.6811)
(9.99792 0 0.154943)
(9.99101 0 0.307985)
(9.97884 0 0.461337)
(9.96211 0 0.617003)
(9.94149 0 0.776649)
(9.91744 0 0.941781)
(9.89038 0 1.11383)
(9.8608 0 1.29419)
(9.82926 0 1.48419)
(9.79638 0 1.68513)
(9.76289 0 1.89833)
(9.7296 0 2.12507)
(9.69742 0 2.3667)
(9.66744 0 2.62459)
(9.6409 0 2.90019)
(9.61929 0 3.19505)
(9.60439 0 3.5108)
(9.59839 0 3.84923)
(9.60396 0 4.21226)
(9.6245 0 4.60193)
(9.66433 0 5.02035)
(9.72898 0 5.46952)
(9.82552 0 5.95108)
(9.96291 0 6.4657)
(10.1522 0 7.01232)
(10.4065 0 7.58705)
(10.7431 0 8.18177)
(11.1736 0 8.78179)
(11.7211 0 9.37553)
(12.4745 0 9.88807)
(9.99845 0 0.157517)
(9.9933 0 0.313076)
(9.98427 0 0.468859)
(9.97193 0 0.626841)
(9.95689 0 0.788655)
(9.9396 0 0.955767)
(9.92053 0 1.12956)
(9.9002 0 1.31136)
(9.87922 0 1.50244)
(9.85829 0 1.704)
(9.83821 0 1.91725)
(9.81988 0 2.14336)
(9.80433 0 2.38351)
(9.79277 0 2.63888)
(9.7866 0 2.91068)
(9.78748 0 3.20012)
(9.79738 0 3.50846)
(9.81866 0 3.83693)
(9.85419 0 4.18676)
(9.90745 0 4.55907)
(9.98274 0 4.95477)
(10.0853 0 5.37433)
(10.2214 0 5.81747)
(10.3986 0 6.28276)
(10.6258 0 6.76692)
(10.9127 0 7.26419)
(11.2704 0 7.76533)
(11.7069 0 8.2548)
(12.2232 0 8.71587)
(12.8992 0 9.10704)
(9.99898 0 0.159387)
(9.9956 0 0.316762)
(9.9897 0 0.474262)
(9.98176 0 0.633817)
(9.97228 0 0.797016)
(9.96172 0 0.965273)
(9.95057 0 1.13991)
(9.9394 0 1.32218)
(9.92884 0 1.51326)
(9.91964 0 1.71427)
(9.91266 0 1.92628)
(9.90887 0 2.15033)
(9.90938 0 2.3874)
(9.91547 0 2.63847)
(9.92865 0 2.90446)
(9.95065 0 3.18627)
(9.9835 0 3.48471)
(10.0296 0 3.80051)
(10.0918 0 4.13422)
(10.1735 0 4.48615)
(10.2786 0 4.85619)
(10.4116 0 5.24363)
(10.578 0 5.64692)
(10.7836 0 6.06322)
(11.0348 0 6.48807)
(11.3382 0 6.91476)
(11.6997 0 7.33393)
(12.1235 0 7.73217)
(12.6036 0 8.0949)
(13.2092 0 8.40158)
(9.99951 0 0.160518)
(9.99789 0 0.318977)
(9.9951 0 0.477449)
(9.9915 0 0.637807)
(9.98752 0 0.801582)
(9.9836 0 0.970127)
(9.98025 0 1.14469)
(9.97804 0 1.32644)
(9.97764 0 1.51647)
(9.97984 0 1.71576)
(9.98551 0 1.92527)
(9.99567 0 2.14586)
(10.0115 0 2.37834)
(10.0342 0 2.62345)
(10.0654 0 2.88185)
(10.1069 0 3.15408)
(10.1606 0 3.44056)
(10.2288 0 3.74153)
(10.3141 0 4.05697)
(10.4197 0 4.3865)
(10.549 0 4.72927)
(10.7057 0 5.08374)
(10.894 0 5.44753)
(11.1182 0 5.81712)
(11.3827 0 6.18761)
(11.6912 0 6.55242)
(12.0465 0 6.90329)
(12.4502 0 7.22988)
(12.8945 0 7.52104)
(13.4377 0 7.76546)
(10 0 0.160883)
(10.0001 0 0.319665)
(10.0004 0 0.47834)
(10.0011 0 0.638708)
(10.0025 0 0.802235)
(10.0051 0 0.970199)
(10.0093 0 1.14377)
(10.0158 0 1.32402)
(10.0252 0 1.51194)
(10.0383 0 1.70839)
(10.056 0 1.91418)
(10.0794 0 2.13002)
(10.1095 0 2.35651)
(10.1478 0 2.59418)
(10.1955 0 2.8434)
(10.2546 0 3.10443)
(10.3267 0 3.37731)
(10.4141 0 3.66187)
(10.519 0 3.95762)
(10.6442 0 4.26368)
(10.7924 0 4.57865)
(10.9666 0 4.90053)
(11.1699 0 5.22652)
(11.4051 0 5.5529)
(11.6748 0 5.87493)
(11.981 0 6.18675)
(12.3245 0 6.48149)
(12.7049 0 6.7513)
(13.1147 0 6.98784)
(13.6026 0 7.18426)
(10.0005 0 0.160461)
(10.0023 0 0.318785)
(10.0056 0 0.476874)
(10.0104 0 0.636447)
(10.017 0 0.798891)
(10.0259 0 0.965404)
(10.0374 0 1.13707)
(10.0522 0 1.31486)
(10.071 0 1.49964)
(10.0945 0 1.69217)
(10.1236 0 1.89311)
(10.1593 0 2.10299)
(10.2027 0 2.32224)
(10.255 0 2.55117)
(10.3177 0 2.78992)
(10.3923 0 3.03845)
(10.4805 0 3.29652)
(10.5841 0 3.56362)
(10.7052 0 3.83891)
(10.8459 0 4.12117)
(11.0083 0 4.4087)
(11.1947 0 4.69925)
(11.4072 0 4.98993)
(11.6475 0 5.27717)
(11.9169 0 5.55667)
(12.216 0 5.82346)
(12.5444 0 6.07198)
(12.9008 0 6.29636)
(13.278 0 6.49054)
(13.718 0 6.65035)
(10.001 0 0.159235)
(10.0044 0 0.316307)
(10.0106 0 0.473014)
(10.0194 0 0.630979)
(10.0311 0 0.791506)
(10.0459 0 0.955705)
(10.0644 0 1.12457)
(10.0872 0 1.29896)
(10.1148 0 1.47964)
(10.148 0 1.66723)
(10.1876 0 1.86226)
(10.2346 0 2.06511)
(10.2901 0 2.27603)
(10.3551 0 2.49514)
(10.431 0 2.72236)
(10.5191 0 2.95743)
(10.6209 0 3.19988)
(10.7379 0 3.44895)
(10.8719 0 3.70356)
(11.0243 0 3.96231)
(11.1969 0 4.22334)
(11.3912 0 4.48439)
(11.6083 0 4.74266)
(11.8493 0 4.99492)
(12.1144 0 5.23743)
(12.4035 0 5.46611)
(12.7154 0 5.6766)
(13.0482 0 5.86457)
(13.3958 0 6.02577)
(13.7947 0 6.15768)
(10.0015 0 0.157199)
(10.0065 0 0.312218)
(10.0154 0 0.46674)
(10.028 0 0.622287)
(10.0444 0 0.78007)
(10.065 0 0.94111)
(10.0901 0 1.1063)
(10.1202 0 1.2764)
(10.1561 0 1.45206)
(10.1982 0 1.63379)
(10.2475 0 1.82197)
(10.3048 0 2.01684)
(10.3711 0 2.21851)
(10.4473 0 2.42691)
(10.5346 0 2.64182)
(10.6342 0 2.86279)
(10.7473 0 3.08916)
(10.8751 0 3.32003)
(11.0189 0 3.55419)
(11.1799 0 3.79015)
(11.3592 0 4.02605)
(11.5577 0 4.25972)
(11.776 0 4.48861)
(12.0145 0 4.70989)
(12.2728 0 4.92042)
(12.5502 0 5.11693)
(12.8452 0 5.2961)
(13.1558 0 5.45477)
(13.4767 0 5.59002)
(13.8402 0 5.70034)
(10.0019 0 0.154352)
(10.0084 0 0.306516)
(10.0199 0 0.458055)
(10.0361 0 0.610382)
(10.0571 0 0.764613)
(10.083 0 0.921674)
(10.1142 0 1.08236)
(10.1512 0 1.24733)
(10.1946 0 1.41713)
(10.245 0 1.59214)
(10.303 0 1.77263)
(10.3695 0 1.95873)
(10.4452 0 2.15039)
(10.5312 0 2.34743)
(10.6282 0 2.54947)
(10.7373 0 2.75596)
(10.8594 0 2.96612)
(10.9956 0 3.17895)
(11.1466 0 3.39321)
(11.3134 0 3.60741)
(11.4965 0 3.81979)
(11.6964 0 4.02834)
(11.9133 0 4.23082)
(12.147 0 4.42481)
(12.3968 0 4.60778)
(12.6618 0 4.77713)
(12.9402 0 4.93039)
(13.2302 0 5.06528)
(13.5272 0 5.17982)
(13.8603 0 5.27316)
(10.0024 0 0.150699)
(10.0102 0 0.299215)
(10.0241 0 0.446984)
(10.0438 0 0.595306)
(10.0689 0 0.745199)
(10.0997 0 0.897494)
(10.1366 0 1.05289)
(10.1799 0 1.21195)
(10.2302 0 1.37511)
(10.2879 0 1.54266)
(10.3537 0 1.71475)
(10.4283 0 1.89141)
(10.5122 0 2.07248)
(10.6064 0 2.25767)
(10.7115 0 2.44653)
(10.8282 0 2.63839)
(10.9574 0 2.83245)
(11.0997 0 3.02767)
(11.2557 0 3.22282)
(11.4258 0 3.41649)
(11.6105 0 3.60705)
(11.8096 0 3.79273)
(12.0232 0 3.9716)
(12.2506 0 4.14166)
(12.4911 0 4.30086)
(12.7434 0 4.44723)
(13.0061 0 4.57893)
(13.2771 0 4.69433)
(13.5528 0 4.79212)
(13.8595 0 4.87187)
(10.0027 0 0.146253)
(10.0119 0 0.290341)
(10.0281 0 0.43357)
(10.0508 0 0.577125)
(10.0798 0 0.721925)
(10.1152 0 0.868709)
(10.1572 0 1.01808)
(10.2062 0 1.17051)
(10.2626 0 1.32635)
(10.3269 0 1.48578)
(10.3995 0 1.64888)
(10.481 0 1.81556)
(10.5719 0 1.98561)
(10.6729 0 2.15866)
(10.7845 0 2.33419)
(10.9073 0 2.5115)
(11.0417 0 2.68977)
(11.1882 0 2.86797)
(11.3472 0 3.04495)
(11.5188 0 3.21941)
(11.7031 0 3.38989)
(11.8998 0 3.55485)
(12.1087 0 3.71269)
(12.3289 0 3.86176)
(12.5596 0 4.00046)
(12.7996 0 4.1273)
(13.0473 0 4.2409)
(13.3011 0 4.34017)
(13.5578 0 4.42423)
(13.8415 0 4.49292)
(10.0031 0 0.141032)
(10.0134 0 0.279931)
(10.0317 0 0.417873)
(10.0573 0 0.555929)
(10.0898 0 0.694918)
(10.1293 0 0.835491)
(10.1759 0 0.978161)
(10.23 0 1.12332)
(10.2919 0 1.27121)
(10.3618 0 1.42197)
(10.4403 0 1.57558)
(10.5277 0 1.7319)
(10.6244 0 1.89064)
(10.7309 0 2.0514)
(10.8476 0 2.21362)
(10.9748 0 2.3766)
(11.1129 0 2.53953)
(11.2621 0 2.70145)
(11.4224 0 2.8613)
(11.5939 0 3.01789)
(11.7764 0 3.16997)
(11.9696 0 3.31623)
(12.1728 0 3.45535)
(12.3853 0 3.58601)
(12.6062 0 3.70697)
(12.8342 0 3.81709)
(13.068 0 3.91542)
(13.3061 0 4.00118)
(13.5458 0 4.07383)
(13.8094 0 4.13336)
(10.0034 0 0.135061)