/*--------------------------------*- C++ -*----------------------------------*\
  =========                 |
  \\      /  F ield         | OpenFOAM: The Open Source CFD Toolbox
   \\    /   O peration     | Website:  https://openfoam.org
    \\  /    A nd           | Version:  dev
     \\/     M anipulation  |
\*---------------------------------------------------------------------------*/
FoamFile
{
    version     2.0;
    format      ascii;
    class       surfaceVectorField;
    location    "5.2";
    object      Uf;
}
// * * * * * * * * * * * * * * * * * * * * * * * * * * * * * * * * * * * * * //

dimensions      [0 1 -1 0 0 0 0];

internalField   nonuniform List<vector> 
5457
(
(9.92088 0 0.0251096)
(9.97125 0 0.0387458)
(9.82401 0 0.0328268)
(9.92859 0 0.0485852)
(9.70961 0 0.0393121)
(9.85548 0 0.0587682)
(9.57544 0 0.0460116)
(9.7568 0 0.0705935)
(9.42138 0 0.052949)
(9.63753 0 0.0830136)
(9.24754 0 0.0601664)
(9.49861 0 0.0959368)
(9.05362 0 0.0678111)
(9.3393 0 0.109613)
(8.83892 0 0.0760347)
(9.15874 0 0.124289)
(8.60252 0 0.0849704)
(8.95609 0 0.140168)
(8.34326 0 0.0947452)
(8.73038 0 0.157434)
(8.05984 0 0.105488)
(8.4804 0 0.176271)
(7.7508 0 0.117328)
(8.20477 0 0.196858)
(7.41456 0 0.130396)
(7.90195 0 0.219363)
(7.0495 0 0.144811)
(7.5703 0 0.243925)
(6.65403 0 0.160673)
(7.20818 0 0.270634)
(6.22671 0 0.178045)
(6.81399 0 0.299502)
(5.76643 0 0.196929)
(6.38633 0 0.330416)
(5.27257 0 0.217235)
(5.92417 0 0.363086)
(4.74538 0 0.238737)
(5.42711 0 0.396978)
(4.18621 0 0.261034)
(4.89566 0 0.431239)
(3.59798 0 0.283489)
(4.33165 0 0.464622)
(2.98557 0 0.305203)
(3.73862 0 0.495427)
(2.35613 0 0.32507)
(3.12229 0 0.521514)
(1.71912 0 0.342549)
(2.49108 0 0.540558)
(1.08436 0 0.361882)
(1.85587 0 0.551674)
(0.451849 0 0.348687)
(1.24549 0 0.563021)
(-0.145831 0 0.10247)
(0.608933 0 0.544885)
(-0.423618 0 -0.207097)
(0.0946678 0 0.259376)
(-0.402156 0 -0.361263)
(-0.133661 0 -0.0205245)
(-0.119681 0 -0.393887)
(9.99641 0 0.0516724)
(9.99705 0 0.0405046)
(9.95879 0 0.0708616)
(9.97851 0 0.0674545)
(9.89824 0 0.0879869)
(9.93377 0 0.08987)
(9.81659 0 0.105985)
(9.86453 0 0.113555)
(9.71359 0 0.124922)
(9.77438 0 0.138515)
(9.58909 0 0.144854)
(9.66435 0 0.164647)
(9.44274 0 0.16609)
(9.53397 0 0.192332)
(9.2739 0 0.188968)
(9.3825 0 0.222031)
(9.08166 0 0.213784)
(9.20919 0 0.254149)
(8.8649 0 0.240816)
(9.01316 0 0.289065)
(8.6223 0 0.270338)
(8.79331 0 0.327154)
(8.35239 0 0.302609)
(8.54835 0 0.368788)
(8.05355 0 0.337859)
(8.27683 0 0.414319)
(7.72411 0 0.376265)
(7.97716 0 0.464049)
(7.36237 0 0.417905)
(7.64771 0 0.518192)
(6.96672 0 0.462711)
(7.28682 0 0.57681)
(6.53583 0 0.51039)
(6.89295 0 0.63973)
(6.06883 0 0.560336)
(6.46481 0 0.706432)
(5.56559 0 0.611524)
(6.0016 0 0.775913)
(5.0271 0 0.662387)
(5.50326 0 0.846528)
(4.45588 0 0.71071)
(4.97089 0 0.91581)
(3.8565 0 0.753542)
(4.40719 0 0.980309)
(3.2362 0 0.787197)
(3.81705 0 1.03546)
(2.60583 0 0.807502)
(3.20847 0 1.07549)
(1.98281 0 0.810467)
(2.5934 0 1.09315)
(1.40529 0 0.776899)
(1.99622 0 1.07708)
(0.929762 0 0.646404)
(1.41951 0 0.978412)
(0.439867 0 0.384345)
(0.937581 0 0.7168)
(0.0591781 0 -0.118608)
(0.443803 0 0.34353)
(0.174922 0 -0.335925)
(9.98903 0 0.0594309)
(9.99481 0 0.0458775)
(9.95434 0 0.0894766)
(9.97368 0 0.0848542)
(9.89729 0 0.118032)
(9.92984 0 0.119174)
(9.82046 0 0.147898)
(9.86357 0 0.153976)
(9.72416 0 0.179422)
(9.77736 0 0.190409)
(9.60821 0 0.212776)
(9.67227 0 0.228637)
(9.47234 0 0.248393)
(9.5481 0 0.26913)
(9.31607 0 0.286775)
(9.40431 0 0.312497)
(9.13868 0 0.328398)
(9.24034 0 0.359326)
(8.93924 0 0.373723)
(9.05549 0 0.410175)
(8.71664 0 0.423207)
(8.84889 0 0.465599)
(8.4696 0 0.477297)
(8.61951 0 0.526154)
(8.19667 0 0.536399)
(8.36615 0 0.592373)
(7.89632 0 0.600842)
(8.08751 0 0.664738)
(7.56691 0 0.67081)
(7.78219 0 0.743618)
(7.20683 0 0.746256)
(7.44873 0 0.829189)
(6.81456 0 0.826782)
(7.08568 0 0.921318)
(6.38887 0 0.911482)
(6.6917 0 1.0194)
(5.92904 0 0.998757)
(6.26572 0 1.12217)
(5.43514 0 1.08609)
(5.80712 0 1.22742)
(4.90855 0 1.16982)
(5.31608 0 1.33175)
(4.35244 0 1.24489)
(4.79398 0 1.43019)
(3.7726 0 1.30455)
(4.24398 0 1.51588)
(3.17874 0 1.33984)
(3.67183 0 1.57943)
(2.58664 0 1.33812)
(3.08634 0 1.60775)
(2.01988 0 1.27298)
(2.50294 0 1.58158)
(1.48696 0 1.09542)
(1.92875 0 1.46425)
(0.958308 0 0.769178)
(1.38526 0 1.21041)
(0.479885 0 0.202463)
(0.829551 0 0.801049)
(0.433735 0 0.134093)
(9.98515 0 0.0716139)
(9.99367 0 0.0531479)
(9.95039 0 0.11363)
(9.97087 0 0.102291)
(9.89436 0 0.154133)
(9.92691 0 0.147954)
(9.81882 0 0.195573)
(9.86185 0 0.193722)
(9.72442 0 0.238811)
(9.77746 0 0.241278)
(9.61112 0 0.284325)
(9.67467 0 0.291164)
(9.47874 0 0.332721)
(9.55343 0 0.343956)
(9.32694 0 0.384675)
(9.41335 0 0.400373)
(9.15523 0 0.440847)
(9.254 0 0.46114)
(8.96291 0 0.501884)
(9.07483 0 0.526962)
(8.74916 0 0.568429)
(8.8752 0 0.598537)
(8.51303 0 0.641113)
(8.65429 0 0.676563)
(8.25346 0 0.720531)
(8.41122 0 0.761721)
(7.96925 0 0.80719)
(8.14499 0 0.854637)
(7.65917 0 0.901437)
(7.85454 0 0.955819)
(7.32192 0 1.00335)
(7.53874 0 1.06557)
(6.9562 0 1.11257)
(7.19646 0 1.18385)
(6.56084 0 1.22813)
(6.82653 0 1.31008)
(6.13489 0 1.34817)
(6.42789 0 1.44291)
(5.67785 0 1.4696)
(5.99967 0 1.5799)
(5.19 0 1.58777)
(5.54134 0 1.71708)
(4.67287 0 1.69602)
(5.05306 0 1.84853)
(4.12981 0 1.78515)
(4.53597 0 1.96583)
(3.56667 0 1.84252)
(3.99274 0 2.0573)
(2.99207 0 1.85072)
(3.42761 0 2.10714)
(2.41586 0 1.78249)
(2.84765 0 2.09448)
(1.84056 0 1.60046)
(2.25625 0 1.98874)
(1.2594 0 1.27844)
(1.66033 0 1.75305)
(0.66678 0 0.78955)
(1.02397 0 1.36777)
(0.52304 0 0.787163)
(9.98337 0 0.0844073)
(9.99316 0 0.0612913)
(9.94821 0 0.136837)
(9.96958 0 0.119927)
(9.89314 0 0.188032)
(9.92575 0 0.17624)
(9.81906 0 0.240169)
(9.86199 0 0.232698)
(9.72663 0 0.294467)
(9.77964 0 0.291087)
(9.6159 0 0.351659)
(9.6794 0 0.352274)
(9.48671 0 0.41247)
(9.56127 0 0.416977)
(9.33878 0 0.477676)
(9.42496 0 0.486008)
(9.1717 0 0.54805)
(9.27009 0 0.560204)
(8.98492 0 0.624354)
(9.0962 0 0.640386)
(8.77778 0 0.707343)
(8.90274 0 0.727367)
(8.54953 0 0.797763)
(8.68906 0 0.821955)
(8.29935 0 0.896324)
(8.45444 0 0.92494)
(8.02634 0 1.00365)
(8.19807 0 1.03705)
(7.72957 0 1.1202)
(7.91911 0 1.15891)
(7.40805 0 1.24616)
(7.61668 0 1.29092)
(7.06076 0 1.38127)
(7.28985 0 1.43314)
(6.68669 0 1.52458)
(6.93762 0 1.5851)
(6.28485 0 1.67418)
(6.55898 0 1.7455)
(5.85438 0 1.82678)
(6.15287 0 1.91188)
(5.39471 0 1.97725)
(5.71822 0 2.08016)
(4.90576 0 2.11805)
(5.25408 0 2.24408)
(4.38826 0 2.2386)
(4.75974 0 2.3946)
(3.84395 0 2.32454)
(4.23496 0 2.51919)
(3.27545 0 2.35695)
(3.6799 0 2.60123)
(2.68541 0 2.31059)
(3.09573 0 2.6197)
(2.0727 0 2.15501)
(2.4817 0 2.54732)
(1.42939 0 1.86741)
(1.83993 0 2.35373)
(0.742617 0 1.41958)
(1.13137 0 2.02454)
(0.54331 0 1.51451)
(9.98264 0 0.0974975)
(9.99299 0 0.0697927)
(9.94744 0 0.159775)
(9.96925 0 0.137583)
(9.89354 0 0.221347)
(9.92597 0 0.203926)
(9.82134 0 0.284092)
(9.86381 0 0.270688)
(9.73134 0 0.349347)
(9.78386 0 0.339582)
(9.62367 0 0.418018)
(9.68665 0 0.411697)
(9.49819 0 0.490938)
(9.57218 0 0.487902)
(9.35465 0 0.568974)
(9.44021 0 0.569104)
(9.19269 0 0.653003)
(9.29043 0 0.656233)
(9.01183 0 0.743897)
(9.12242 0 0.750213)
(8.81151 0 0.842515)
(8.93571 0 0.851956)
(8.59108 0 0.949708)
(8.72972 0 0.962365)
(8.34984 0 1.06628)
(8.50381 0 1.08232)
(8.08705 0 1.19296)
(8.25727 0 1.21264)
(7.80191 0 1.3303)
(7.98937 0 1.35404)
(7.49359 0 1.4786)
(7.69929 0 1.50702)
(7.16118 0 1.63768)
(7.38616 0 1.67176)
(6.80372 0 1.80675)
(7.04902 0 1.84791)
(6.4201 0 1.98397)
(6.68674 0 2.03436)
(6.00912 0 2.16613)
(6.29801 0 2.22883)
(5.5694 0 2.3481)
(5.88119 0 2.42748)
(5.09946 0 2.5222)
(5.43434 0 2.62425)
(4.59775 0 2.67756)
(4.95512 0 2.81029)
(4.06271 0 2.79949)
(4.44085 0 2.97322)
(3.49271 0 2.86911)
(3.88853 0 3.09662)
(2.88584 0 2.86292)
(3.29524 0 3.1599)
(2.23803 0 2.75393)
(2.65691 0 3.13791)
(1.54245 0 2.52104)
(1.97485 0 3.0032)
(0.793653 0 2.13135)
(1.20725 0 2.74061)
(0.55674 0 2.29184)
(9.9825 0 0.110626)
(9.99302 0 0.0783612)
(9.9477 0 0.182324)
(9.96954 0 0.155037)
(9.89522 0 0.253817)
(9.92722 0 0.230885)
(9.82524 0 0.326766)
(9.86697 0 0.307508)
(9.73813 0 0.402554)
(9.78978 0 0.386521)
(9.63403 0 0.482233)
(9.69605 0 0.469147)
(9.51285 0 0.566756)
(9.58579 0 0.556396)
(9.37438 0 0.657092)
(9.4588 0 0.64927)
(9.21828 0 0.754212)
(9.3148 0 0.748786)
(9.04414 0 0.859083)
(9.15346 0 0.855961)
(8.85144 0 0.972661)
(8.97433 0 0.9718)
(8.63962 0 1.09588)
(8.7769 0 1.0973)
(8.40802 0 1.22964)
(8.56057 0 1.23342)
(8.15594 0 1.37475)
(8.32469 0 1.38108)
(7.88263 0 1.53186)
(8.06852 0 1.54108)
(7.58726 0 1.70138)
(7.79125 0 1.71405)
(7.26889 0 1.8833)
(7.49195 0 1.90031)
(6.92642 0 2.07697)
(7.16953 0 2.0997)
(6.55851 0 2.28086)
(6.82265 0 2.31139)
(6.16346 0 2.49205)
(6.44958 0 2.53349)
(5.73913 0 2.70584)
(6.04809 0 2.76265)
(5.28273 0 2.91499)
(5.61524 0 2.99346)
(4.79084 0 3.10916)
(5.14725 0 3.21785)
(4.2593 0 3.2742)
(4.63939 0 3.42427)
(3.6834 0 3.39186)
(4.08607 0 3.59715)
(3.05806 0 3.43969)
(3.48133 0 3.71654)
(2.37775 0 3.3918)
(2.81838 0 3.75813)
(1.63792 0 3.22618)
(2.09917 0 3.69399)
(0.839136 0 2.90086)
(1.27893 0 3.50449)
(0.573364 0 3.11373)
(9.98273 0 0.123581)
(9.99316 0 0.0868172)
(9.94873 0 0.204309)
(9.97027 0 0.172092)
(9.89794 0 0.285251)
(9.92926 0 0.256974)
(9.83051 0 0.367965)
(9.87123 0 0.342987)
(9.74671 0 0.453851)
(9.79715 0 0.431677)
(9.64668 0 0.544076)
(9.70735 0 0.52435)
(9.53038 0 0.639706)
(9.60181 0 0.622134)
(9.39762 0 0.741798)
(9.48038 0 0.726125)
(9.24813 0 0.851413)
(9.34286 0 0.837423)
(9.08152 0 0.969605)
(9.18894 0 0.957131)
(8.89736 0 1.09742)
(9.01824 0 1.08634)
(8.6951 0 1.23588)
(8.83029 0 1.22613)
(8.47412 0 1.38598)
(8.62454 0 1.37758)
(8.23376 0 1.54863)
(8.40036 0 1.54168)
(7.97322 0 1.7246)
(8.15701 0 1.71938)
(7.69161 0 1.91444)
(7.89363 0 1.91143)
(7.38785 0 2.11835)
(7.60919 0 2.11836)
(7.06061 0 2.33596)
(7.30241 0 2.34029)
(6.7082 0 2.56612)
(6.97165 0 2.57676)
(6.32836 0 2.80648)
(6.61472 0 2.82643)
(5.9181 0 3.05304)
(6.22872 0 3.0867)
(5.47346 0 3.29953)
(5.80975 0 3.35317)
(4.98932 0 3.53665)
(5.35266 0 3.61898)
(4.45935 0 3.75141)
(4.85089 0 3.87399)
(3.87624 0 3.92646)
(4.29644 0 4.10394)
(3.23234 0 4.03986)
(3.68057 0 4.28969)
(2.52085 0 4.06499)
(2.99353 0 4.40678)
(1.73839 0 3.97615)
(2.23739 0 4.42459)
(0.889479 0 3.71877)
(1.36337 0 4.31631)
(0.598757 0 3.98492)
(9.98321 0 0.136203)
(9.99339 0 0.0950401)
(9.95032 0 0.225571)
(9.97131 0 0.188589)
(9.90151 0 0.315496)
(9.93193 0 0.282048)
(9.83694 0 0.407502)
(9.87643 0 0.376959)
(9.75684 0 0.503011)
(9.80579 0 0.474839)
(9.66135 0 0.603275)
(9.7203 0 0.577048)
(9.55046 0 0.709457)
(9.61996 0 0.684813)
(9.42403 0 0.822699)
(9.50465 0 0.799314)
(9.28184 0 0.944144)
(9.37422 0 0.921732)
(9.12356 0 1.07493)
(9.22843 0 1.05325)
(8.94879 0 1.21619)
(9.06695 0 1.19504)
(8.75705 0 1.36904)
(8.88938 0 1.34827)
(8.54776 0 1.53458)
(8.6952 0 1.51412)
(8.32024 0 1.71384)
(8.48382 0 1.6937)
(8.0737 0 1.90774)
(8.2545 0 1.8881)
(7.80713 0 2.11702)
(8.00636 0 2.09826)
(7.51932 0 2.34215)
(7.73825 0 2.32496)
(7.20868 0 2.58315)
(7.44873 0 2.56868)
(6.8731 0 2.83938)
(7.13585 0 2.82944)
(6.50978 0 3.10926)
(6.79701 0 3.10663)
(6.11489 0 3.3898)
(6.42868 0 3.39861)
(5.68333 0 3.67602)
(6.02605 0 3.70229)
(5.2084 0 3.9602)
(5.5827 0 4.01248)
(4.68167 0 4.23098)
(5.09023 0 4.32096)
(4.0932 0 4.47231)
(4.53818 0 4.61538)
(3.43243 0 4.66254)
(3.91461 0 4.87786)
(2.69006 0 4.77315)
(3.2056 0 5.08357)
(1.8618 0 4.7724)
(2.41121 0 5.19796)
(0.954152 0 4.58972)
(1.47623 0 5.1843)
(0.63917 0 4.91945)
(9.98386 0 0.148369)
(9.99368 0 0.102943)
(9.95235 0 0.24597)
(9.9726 0 0.204394)
(9.90578 0 0.344399)
(9.9351 0 0.305969)
(9.84437 0 0.445197)
(9.88241 0 0.409269)
(9.76833 0 0.54981)
(9.81552 0 0.515815)
(9.6778 0 0.659558)
(9.73471 0 0.62701)
(9.57281 0 0.775686)
(9.63999 0 0.744156)
(9.45327 0 0.899416)
(9.5313 0 0.868515)
(9.31902 0 1.03197)
(9.40853 0 1.00134)
(9.16978 0 1.17455)
(9.27151 0 1.14387)
(9.00522 0 1.32839)
(9.11999 0 1.29738)
(8.82492 0 1.49471)
(8.95361 0 1.46312)
(8.62834 0 1.6747)
(8.77194 0 1.64236)
(8.41484 0 1.86954)
(8.57442 0 1.83636)
(8.18361 0 2.08033)
(8.36037 0 2.04634)
(7.9336 0 2.30805)
(8.12889 0 2.27349)
(7.66347 0 2.5535)
(7.8788 0 2.51887)
(7.37143 0 2.81717)
(7.60854 0 2.78339)
(7.05505 0 3.09911)
(7.31597 0 3.06768)
(6.71102 0 3.39864)
(6.99819 0 3.37195)
(6.3348 0 3.71407)
(6.65118 0 3.69577)
(5.92024 0 4.04209)
(6.26939 0 4.03765)
(5.45916 0 4.37706)
(5.84529 0 4.39451)
(4.94094 0 4.70988)
(5.36876 0 4.76071)
(4.35258 0 5.02652)
(4.82666 0 5.12673)
(3.67944 0 5.30616)
(4.20303 0 5.47704)
(2.90737 0 5.51815)
(3.47775 0 5.78744)
(2.02755 0 5.62297)
(2.64489 0 6.01946)
(1.04504 0 5.52941)
(1.63762 0 6.12388)
(0.704422 0 5.943)
(9.98465 0 0.159981)
(9.99402 0 0.110462)
(9.95473 0 0.265381)
(9.97409 0 0.2194)
(9.91065 0 0.37182)
(9.93868 0 0.328612)
(9.85267 0 0.480884)
(9.88905 0 0.439776)
(9.781 0 0.594045)
(9.82618 0 0.554433)
(9.69581 0 0.71268)
(9.75038 0 0.674025)
(9.59716 0 0.838107)
(9.66167 0 0.799916)
(9.48502 0 0.971615)
(9.56003 0 0.933434)
(9.35927 0 1.11449)
(9.44543 0 1.07589)
(9.21973 0 1.26802)
(9.31776 0 1.22861)
(9.06612 0 1.43352)
(9.17684 0 1.39291)
(8.8981 0 1.61228)
(9.0224 0 1.57015)
(8.71521 0 1.80563)
(8.8541 0 1.76168)
(8.51685 0 2.01489)
(8.67145 0 1.9689)
(8.30225 0 2.24136)
(8.47384 0 2.1932)
(8.07039 0 2.4863)
(8.26044 0 2.436)
(7.81988 0 2.75089)
(8.03011 0 2.6987)
(7.54883 0 3.03618)
(7.78129 0 2.98267)
(7.25463 0 3.34297)
(7.51182 0 3.28921)
(6.93367 0 3.6717)
(7.21867 0 3.61948)
(6.58093 0 4.02217)
(6.89762 0 3.97439)
(6.18946 0 4.39314)
(6.54272 0 4.35434)
(5.74976 0 4.78163)
(6.14569 0 4.75882)
(5.24909 0 5.18174)
(5.69504 0 5.18558)
(4.67089 0 5.58282)
(5.17503 0 5.62925)
(3.99483 0 5.96656)
(4.56501 0 6.07883)
(3.19833 0 6.3017)
(3.83622 0 6.51359)
(2.26168 0 6.54064)
(2.9707 0 6.89403)
(1.18054 0 6.56502)
(1.87902 0 7.15777)
(0.812741 0 7.09927)
(9.98553 0 0.170963)
(9.9944 0 0.117546)
(9.95738 0 0.283698)
(9.97572 0 0.233519)
(9.91601 0 0.397635)
(9.94258 0 0.349869)
(9.86169 0 0.514411)
(9.89624 0 0.468351)
(9.79469 0 0.635534)
(9.83765 0 0.590539)
(9.71517 0 0.762428)
(9.76713 0 0.717909)
(9.62325 0 0.896466)
(9.68475 0 0.851874)
(9.51894 0 1.039)
(9.59056 0 0.993817)
(9.40221 0 1.19137)
(9.48456 0 1.14511)
(9.27293 0 1.35494)
(9.36673 0 1.30711)
(9.13094 0 1.53108)
(9.23698 0 1.48123)
(8.97596 0 1.72119)
(9.09514 0 1.66887)
(8.80763 0 1.9267)
(8.94096 0 1.8715)
(8.62546 0 2.14907)
(8.77408 0 2.09062)
(8.42876 0 2.38983)
(8.594 0 2.32781)
(8.21661 0 2.65051)
(8.40001 0 2.5847)
(7.98768 0 2.93271)
(8.19113 0 2.86303)
(7.74017 0 3.23804)
(7.96594 0 3.16465)
(7.47148 0 3.56816)
(7.72242 0 3.49153)
(7.17798 0 3.92468)
(7.45774 0 3.84583)
(6.85454 0 4.30913)
(7.16783 0 4.22987)
(6.49389 0 4.72264)
(6.84686 0 4.64611)
(6.08574 0 5.16552)
(6.4865 0 5.09698)
(5.61567 0 5.63631)
(6.07471 0 5.58447)
(5.06358 0 6.12982)
(5.59403 0 6.10907)
(4.40218 0 6.63376)
(5.01958 0 6.66757)
(3.59606 0 7.12116)
(4.31249 0 7.24851)
(2.60422 0 7.54053)
(3.43556 0 7.82012)
(1.39422 0 7.74029)
(2.25632 0 8.3149)
(1.00253 0 8.46483)
(9.9865 0 0.181252)
(9.9948 0 0.124156)
(9.96027 0 0.300831)
(9.97747 0 0.246679)
(9.92177 0 0.421732)
(9.94676 0 0.369646)
(9.87133 0 0.545649)
(9.90387 0 0.494884)
(9.80923 0 0.674121)
(9.84977 0 0.624003)
(9.73567 0 0.808612)
(9.78479 0 0.758505)
(9.65081 0 0.950542)
(9.70902 0 0.899844)
(9.55471 0 1.10131)
(9.62258 0 1.04945)
(9.44742 0 1.26231)
(9.52555 0 1.20872)
(9.32891 0 1.43495)
(9.41799 0 1.37908)
(9.19908 0 1.62067)
(9.29988 0 1.56197)
(9.05779 0 1.82093)
(9.17118 0 1.75887)
(8.9048 0 2.03729)
(9.03176 0 1.97131)
(8.73974 0 2.27134)
(8.88141 0 2.20091)
(8.5621 0 2.52478)
(8.7198 0 2.44938)
(8.3711 0 2.79944)
(8.54641 0 2.71857)
(8.16564 0 3.09729)
(8.3605 0 3.01052)
(7.94414 0 3.42053)
(8.16093 0 3.3275)
(7.7043 0 3.77162)
(7.94609 0 3.67213)
(7.44284 0 4.15339)
(7.71359 0 4.04747)
(7.15502 0 4.5691)
(7.46001 0 4.45721)
(6.83395 0 5.02247)
(7.18031 0 4.90584)
(6.46958 0 5.51764)
(6.8671 0 5.39888)
(6.04703 0 6.05872)
(6.50934 0 5.94304)
(5.54407 0 6.64875)
(6.09006 0 6.54621)
(4.92705 0 7.28699)
(5.58311 0 7.2168)
(4.14493 0 7.96138)
(4.94244 0 7.96154)
(3.12164 0 8.63346)
(4.10916 0 8.77559)
(1.75613 0 9.12762)
(2.87825 0 9.62075)
(1.36459 0 10.1848)
(9.98754 0 0.190798)
(9.99523 0 0.13026)
(9.96332 0 0.316706)
(9.97932 0 0.258823)
(9.92785 0 0.444021)
(9.95115 0 0.387867)
(9.88148 0 0.574488)
(9.91188 0 0.519284)
(9.82449 0 0.709678)
(9.86243 0 0.654713)
(9.75712 0 0.851084)
(9.80317 0 0.795682)
(9.67958 0 1.00016)
(9.73425 0 0.943674)
(9.59201 0 1.15835)
(9.65582 0 1.10014)
(9.49451 0 1.32707)
(9.56805 0 1.26653)
(9.38715 0 1.50778)
(9.47107 0 1.44428)
(9.26995 0 1.70196)
(9.36499 0 1.63486)
(9.14289 0 1.91114)
(9.24986 0 1.83981)
(9.00587 0 2.13694)
(9.12571 0 2.0607)
(8.8587 0 2.38108)
(8.9925 0 2.29924)
(8.70107 0 2.64542)
(8.8501 0 2.55725)
(8.53247 0 2.93201)
(8.69827 0 2.83674)
(8.35211 0 3.24318)
(8.53657 0 3.13998)
(8.15884 0 3.58159)
(8.3643 0 3.4696)
(7.95091 0 3.95045)
(8.18042 0 3.8287)
(7.72578 0 4.35362)
(7.98333 0 4.22109)
(7.47969 0 4.79598)
(7.77067 0 4.65159)
(7.20708 0 5.28371)
(7.53894 0 5.12637)
(6.89957 0 5.82479)
(7.28291 0 5.65366)
(6.5442 0 6.42957)
(6.99459 0 6.2446)
(6.12021 0 7.11147)
(6.66125 0 6.9147)
(5.59288 0 7.88762)
(6.26232 0 7.6862)
(4.90068 0 8.77786)
(5.75736 0 8.59259)
(3.92663 0 9.8014)
(5.08705 0 9.68508)
(2.43299 0 10.8564)
(3.97914 0 11.0491)
(2.14595 0 12.5678)
(9.98862 0 0.199562)
(9.99567 0 0.135835)
(9.96652 0 0.331261)
(9.98124 0 0.269905)
(9.9342 0 0.464418)
(9.9557 0 0.404471)
(9.89202 0 0.60082)
(9.92016 0 0.541475)
(9.8403 0 0.742065)
(9.87552 0 0.682581)
(9.77932 0 0.889669)
(9.82216 0 0.829337)
(9.70932 0 1.04511)
(9.76028 0 0.983242)
(9.6305 0 1.20985)
(9.6901 0 1.14577)
(9.54307 0 1.38534)
(9.61185 0 1.31837)
(9.44717 0 1.57305)
(9.52577 0 1.50251)
(9.34294 0 1.77451)
(9.43206 0 1.69968)
(9.23051 0 1.99127)
(9.33091 0 1.91143)
(9.10994 0 2.22501)
(9.22252 0 2.13937)
(8.98124 0 2.47753)
(9.10702 0 2.38523)
(8.84436 0 2.7508)
(8.98455 0 2.65092)
(8.69911 0 3.04704)
(8.85514 0 2.93855)
(8.54514 0 3.3688)
(8.71876 0 3.25051)
(8.38184 0 3.71912)
(8.57527 0 3.58966)
(8.20826 0 4.10171)
(8.42432 0 3.9594)
(8.02294 0 4.52122)
(8.26532 0 4.36401)
(7.8237 0 4.98371)
(8.09739 0 4.80896)
(7.60723 0 5.49722)
(7.91915 0 5.30149)
(7.36853 0 6.07279)
(7.72862 0 5.85144)
(7.09965 0 6.72608)
(7.52294 0 6.47277)
(6.78744 0 7.48029)
(7.29785 0 7.18604)
(6.40834 0 8.37214)
(7.04789 0 8.02365)
(5.91532 0 9.46606)
(6.76283 0 9.04206)
(5.19578 0 10.9083)
(6.46168 0 10.3569)
(3.88407 0 13.1784)
(6.18931 0 12.3035)
(5.25813 0 16.372)
(0.1822 0 -0.108594)
(0.106709 0 -0.178453)
(0.356315 0 -0.0926889)
(0.260329 0 -0.166508)
(0.499753 0 -0.0711782)
(0.413035 0 -0.13393)
(0.612403 0 -0.0522474)
(0.541685 0 -0.1027)
(0.699264 0 -0.0372391)
(0.642949 0 -0.0773176)
(0.765635 0 -0.0257772)
(0.721691 0 -0.057684)
(0.816098 0 -0.017209)
(0.783497 0 -0.042822)
(0.854453 0 -0.0109324)
(0.832757 0 -0.0317789)
(0.883775 0 -0.00643578)
(0.872704 0 -0.0237207)
(0.9065 0 -0.00330276)
(0.905772 0 -0.0179498)
(0.924548 0 -0.00120726)
(0.933839 0 -0.0139187)
(0.939434 0 0.000104647)
(0.958373 0 -0.0112091)
(0.952347 0 0.000837111)
(0.980518 0 -0.00949419)
(0.964194 0 0.00116407)
(1.00116 0 -0.00850447)
(0.975607 0 0.00124407)
(1.02095 0 -0.00799916)
(0.986927 0 0.00122953)
(1.04035 0 -0.00774658)
(0.998178 0 0.00126779)
(1.05955 0 -0.00751764)
(1.00906 0 0.00148938)
(1.07855 0 -0.00709787)
(1.01898 0 0.00198299)
(1.09707 0 -0.00631955)
(1.02719 0 0.0027663)
(1.11465 0 -0.00510614)
(1.03297 0 0.00376945)
(1.1307 0 -0.00350831)
(1.03585 0 0.00483026)
(1.14473 0 -0.00171045)
(1.03595 0 0.00569811)
(1.15641 0 -5.76788e-05)
(1.03327 0 0.0063124)
(1.1657 0 0.00151562)
(1.02813 0 0.00682453)
(1.17264 0 0.00283746)
(1.02042 0 0.00730766)
(1.17733 0 0.00415448)
(1.00999 0 0.00773904)
(1.1797 0 0.00548542)
(0.996695 0 0.00792538)
(1.17912 0 0.00683074)
(0.981515 0 0.00708031)
(1.17555 0 0.00761348)
(1.16966 0 0.00592356)
(0.168912 0 -0.26007)
(0.0893462 0 -0.343892)
(0.330749 0 -0.228078)
(0.230873 0 -0.321273)
(0.466495 0 -0.181243)
(0.363278 0 -0.260679)
(0.576536 0 -0.139537)
(0.475503 0 -0.203021)
(0.665635 0 -0.1064)
(0.565275 0 -0.156627)
(0.738438 0 -0.0810391)
(0.637368 0 -0.120958)
(0.798759 0 -0.0619948)
(0.69639 0 -0.09401)
(0.849642 0 -0.047919)
(0.745769 0 -0.073937)
(0.893454 0 -0.0376688)
(0.787998 0 -0.0591638)
(0.932017 0 -0.0303254)
(0.824911 0 -0.0484097)
(0.96673 0 -0.0251813)
(0.857888 0 -0.0406893)
(0.99867 0 -0.0216953)
(0.887983 0 -0.0352598)
(1.02867 0 -0.0194415)
(0.916011 0 -0.031552)
(1.05738 0 -0.0180652)
(0.942601 0 -0.0291105)
(1.08526 0 -0.0172482)
(0.968231 0 -0.0275454)
(1.11266 0 -0.0166864)
(0.993257 0 -0.0264955)
(1.13974 0 -0.0160845)
(1.01791 0 -0.0256088)
(1.16649 0 -0.0151769)
(1.0423 0 -0.0245491)
(1.19273 0 -0.0137761)
(1.06639 0 -0.0230379)
(1.21816 0 -0.011828)
(1.08999 0 -0.0209228)
(1.24242 0 -0.00944253)
(1.11281 0 -0.0182374)
(1.26518 0 -0.0068718)
(1.13453 0 -0.0152031)
(1.286 0 -0.00440826)
(1.1549 0 -0.0121143)
(1.30487 0 -0.00214871)
(1.17368 0 -0.00914897)
(1.32172 0 3.89175e-05)
(1.19103 0 -0.00646232)
(1.33652 0 0.00235523)
(1.20712 0 -0.00381842)
(1.34877 0 0.00480651)
(1.22205 0 -0.000964128)
(1.35777 0 0.00685747)
(1.23576 0 0.00220984)
(1.36396 0 0.00716944)
(1.24767 0 0.00450933)
(1.25895 0 0.00433644)
(0.142579 0 -0.411566)
(0.069783 0 -0.483539)
(0.273841 0 -0.360829)
(0.187502 0 -0.4468)
(0.38137 0 -0.288954)
(0.286239 0 -0.361081)
(0.467506 0 -0.22565)
(0.369486 0 -0.281548)
(0.537157 0 -0.175672)
(0.434464 0 -0.218626)
(0.594334 0 -0.137462)
(0.486564 0 -0.170652)
(0.6421 0 -0.108691)
(0.529286 0 -0.134543)
(0.682811 0 -0.0872858)
(0.56501 0 -0.107668)
(0.71823 0 -0.0715164)
(0.595533 0 -0.0878169)
(0.749681 0 -0.0600108)
(0.622136 0 -0.0732515)
(0.778174 0 -0.0517239)
(0.645748 0 -0.0626635)
(0.804488 0 -0.045864)
(0.667084 0 -0.0550741)
(0.829225 0 -0.0418165)
(0.686701 0 -0.0497393)
(0.852855 0 -0.0390812)
(0.705033 0 -0.046073)
(0.875739 0 -0.0372206)
(0.722425 0 -0.0435848)
(0.898147 0 -0.035824)
(0.739151 0 -0.0418303)
(0.92025 0 -0.0344947)
(0.75543 0 -0.040377)
(0.942098 0 -0.0328725)
(0.771416 0 -0.0388028)
(0.963611 0 -0.0306949)
(0.787173 0 -0.0367419)
(0.984595 0 -0.0278724)
(0.802652 0 -0.0339736)
(1.0048 0 -0.0245287)
(0.817684 0 -0.0305077)
(1.02402 0 -0.0209481)
(0.832022 0 -0.0265982)
(1.04219 0 -0.0174094)
(0.845429 0 -0.0226329)
(1.05951 0 -0.0140809)
(0.857845 0 -0.0189364)
(1.07617 0 -0.0109226)
(0.869438 0 -0.0156588)
(1.09252 0 -0.00765857)
(0.880551 0 -0.0126295)
(1.10894 0 -0.00413225)
(0.891504 0 -0.00960372)
(1.12552 0 -0.000734195)
(0.902967 0 -0.00630364)
(1.14083 0 0.00165229)
(0.914361 0 -0.00317179)
(0.925898 0 -0.000667074)
(0.113228 0 -0.528213)
(0.049848 0 -0.594439)
(0.208425 0 -0.456859)
(0.138191 0 -0.537838)
(0.281877 0 -0.363297)
(0.197207 0 -0.429664)
(0.338796 0 -0.283259)
(0.24817 0 -0.33344)
(0.384042 0 -0.221153)
(0.284248 0 -0.258901)
(0.420776 0 -0.174075)
(0.312461 0 -0.202577)
(0.451079 0 -0.138755)
(0.334783 0 -0.160258)
(0.476552 0 -0.112474)
(0.352504 0 -0.128774)
(0.498315 0 -0.0930351)
(0.366751 0 -0.105423)
(0.517173 0 -0.0787493)
(0.378294 0 -0.0881466)
(0.533742 0 -0.068346)
(0.387665 0 -0.0754414)
(0.548502 0 -0.0608692)
(0.395281 0 -0.0661885)
(0.561836 0 -0.0555833)
(0.401478 0 -0.0595425)
(0.574055 0 -0.0518974)
(0.406532 0 -0.0548446)
(0.585426 0 -0.0493053)
(0.410681 0 -0.0515547)
(0.596184 0 -0.0473377)
(0.414149 0 -0.0491925)
(0.60653 0 -0.0455383)
(0.41717 0 -0.0472898)
(0.616599 0 -0.0434804)
(0.419985 0 -0.0453716)
(0.626424 0 -0.0408335)
(0.422791 0 -0.0430008)
(0.635924 0 -0.0374581)
(0.425677 0 -0.0398816)
(0.644924 0 -0.0334668)
(0.428567 0 -0.0359731)
(0.653223 0 -0.0291864)
(0.431206 0 -0.0315191)
(0.660694 0 -0.025018)
(0.433166 0 -0.0269577)
(0.667419 0 -0.0212726)
(0.434107 0 -0.0227378)
(0.673604 0 -0.0180111)
(0.433951 0 -0.0190721)
(0.679592 0 -0.0150413)
(0.432744 0 -0.0158559)
(0.685554 0 -0.0121045)
(0.431078 0 -0.0127408)
(0.691597 0 -0.00924913)
(0.429808 0 -0.00940805)
(0.697198 0 -0.00611672)
(0.427295 0 -0.00598078)
(0.42199 0 -0.00227017)
(0.0788772 0 -0.611779)
(0.0286141 0 -0.671694)
(0.134004 0 -0.51865)
(0.0823467 0 -0.590556)
(0.170228 0 -0.407483)
(0.0972669 0 -0.463488)
(0.195158 0 -0.315868)
(0.114377 0 -0.356168)
(0.213017 0 -0.246055)
(0.11888 0 -0.274798)
(0.226046 0 -0.193525)
(0.120281 0 -0.213901)
(0.235282 0 -0.154212)
(0.118661 0 -0.168095)
(0.241607 0 -0.124909)
(0.114686 0 -0.134015)
(0.245626 0 -0.103052)
(0.108918 0 -0.108673)
(0.24773 0 -0.0867964)
(0.101696 0 -0.0898088)
(0.248239 0 -0.0747778)
(0.0933788 0 -0.0758338)
(0.247413 0 -0.0659736)
(0.0842104 0 -0.0655668)
(0.245475 0 -0.0596002)
(0.0744057 0 -0.0581172)
(0.242627 0 -0.0550384)
(0.0641564 0 -0.0528006)
(0.239085 0 -0.051771)
(0.0536394 0 -0.049072)
(0.235091 0 -0.0493268)
(0.0430451 0 -0.0464592)
(0.230906 0 -0.0472332)
(0.0326085 0 -0.0444933)
(0.226758 0 -0.0450114)
(0.0225864 0 -0.0426654)
(0.222777 0 -0.0422396)
(0.0131705 0 -0.0404649)
(0.218942 0 -0.0386734)
(0.0044098 0 -0.0374969)
(0.215077 0 -0.0343505)
(-0.00383521 0 -0.0336256)
(0.210891 0 -0.0295831)
(-0.0118864 0 -0.0290373)
(0.206017 0 -0.0248395)
(-0.0202288 0 -0.0241364)
(0.200139 0 -0.020529)
(-0.0292938 0 -0.0194155)
(0.19302 0 -0.01678)
(-0.0393446 0 -0.0151432)
(0.184694 0 -0.0134914)
(-0.050551 0 -0.0113692)
(0.175465 0 -0.00998281)
(-0.0630663 0 -0.00788544)
(0.16418 0 -0.00550862)
(-0.0767822 0 -0.00361096)
(0.150427 0 -0.00128593)
(-0.0889713 0 0.000917421)
(-0.101188 0 0.00252777)
(0.0392224 0 -0.657426)
(0.00490962 0 -0.71011)
(0.0504613 0 -0.54213)
(0.0187194 0 -0.601303)
(0.0474968 0 -0.417534)
(-0.0123086 0 -0.460719)
(0.0390997 0 -0.31879)
(-0.0312667 0 -0.348512)
(0.0269178 0 -0.244664)
(-0.0600253 0 -0.263954)
(0.0128371 0 -0.189185)
(-0.0883357 0 -0.201664)
(-0.00251903 0 -0.147688)
(-0.116632 0 -0.155064)
(-0.0189694 0 -0.117092)
(-0.144451 0 -0.120385)
(-0.0361587 0 -0.094496)
(-0.171716 0 -0.0947676)
(-0.0538267 0 -0.0777432)
(-0.198278 0 -0.0758534)
(-0.0717523 0 -0.0654037)
(-0.22386 0 -0.0620094)
(-0.0897546 0 -0.0564203)
(-0.248346 0 -0.0520112)
(-0.107672 0 -0.0499975)
(-0.27169 0 -0.0449439)
(-0.125349 0 -0.0455204)
(-0.293898 0 -0.0401112)
(-0.142615 0 -0.0424876)
(-0.315009 0 -0.0369706)
(-0.15927 0 -0.0404335)
(-0.33505 0 -0.0350614)
(-0.175119 0 -0.0388544)
(-0.35399 0 -0.0339035)
(-0.190043 0 -0.0371952)
(-0.371772 0 -0.0329289)
(-0.204081 0 -0.0349425)
(-0.388415 0 -0.0315231)
(-0.21744 0 -0.0317909)
(-0.404093 0 -0.029188)
(-0.230409 0 -0.0277742)
(-0.419118 0 -0.02575)
(-0.243226 0 -0.023216)
(-0.43386 0 -0.0214381)
(-0.256122 0 -0.0185674)
(-0.44865 0 -0.0166706)
(-0.269255 0 -0.0141443)
(-0.463725 0 -0.0119925)
(-0.282819 0 -0.00977866)
(-0.47937 0 -0.00765766)
(-0.297887 0 -0.00518632)
(-0.495092 0 -0.00324988)
(-0.315148 0 -0.000629306)
(-0.509889 0 0.00119605)
(-0.331322 0 0.00306357)
(-0.524293 0 0.00469754)
(-0.34196 0 0.00448484)
(-0.535356 0 0.00625307)
(-0.541627 0 0.00585273)
(-0.00844214 0 -0.658639)
(-0.0237613 0 -0.701842)
(-0.0419846 0 -0.522685)
(-0.0545607 0 -0.569226)
(-0.0845025 0 -0.390729)
(-0.130986 0 -0.42102)
(-0.129133 0 -0.290411)
(-0.188953 0 -0.307824)
(-0.174029 0 -0.216646)
(-0.251376 0 -0.223991)
(-0.21759 0 -0.162869)
(-0.310099 0 -0.163804)
(-0.258829 0 -0.123143)
(-0.364404 0 -0.120069)
(-0.297863 0 -0.0937719)
(-0.413871 0 -0.0880439)
(-0.334716 0 -0.0723264)
(-0.458929 0 -0.0649546)
(-0.369203 0 -0.0568763)
(-0.499988 0 -0.0486133)
(-0.401268 0 -0.0459123)
(-0.537323 0 -0.0372807)
(-0.430956 0 -0.0383124)
(-0.571282 0 -0.0296557)
(-0.458413 0 -0.0332399)
(-0.602235 0 -0.0247574)
(-0.483847 0 -0.0300591)
(-0.630584 0 -0.0218534)
(-0.507489 0 -0.0282663)
(-0.656737 0 -0.0204004)
(-0.52953 0 -0.027406)
(-0.681047 0 -0.0199777)
(-0.550102 0 -0.0269701)
(-0.703742 0 -0.0201573)
(-0.56935 0 -0.0263628)
(-0.724953 0 -0.0203718)
(-0.587521 0 -0.0249983)
(-0.744841 0 -0.0199485)
(-0.604986 0 -0.0224959)
(-0.76372 0 -0.018326)
(-0.622144 0 -0.0188423)
(-0.782031 0 -0.0153303)
(-0.639231 0 -0.0143263)
(-0.800223 0 -0.0113071)
(-0.656461 0 -0.00940037)
(-0.818646 0 -0.00669636)
(-0.674074 0 -0.0046281)
(-0.836368 0 -0.0020368)
(-0.69152 0 -0.000396645)
(-0.852763 0 0.00197071)
(-0.706882 0 0.00326043)
(-0.867502 0 0.00502797)
(-0.718836 0 0.00616051)
(-0.879806 0 0.00748514)
(-0.728329 0 0.00775649)
(-0.889695 0 0.0095743)
(-0.736533 0 0.00777633)
(-0.898237 0 0.0103674)
(-0.90303 0 0.00955711)
(-0.0587665 0 -0.610927)
(-0.0599292 0 -0.644284)
(-0.142577 0 -0.462458)
(-0.139148 0 -0.489078)
(-0.227094 0 -0.331219)
(-0.263529 0 -0.342105)
(-0.309098 0 -0.233992)
(-0.362803 0 -0.233063)
(-0.386127 0 -0.164473)
(-0.457923 0 -0.155425)
(-0.456598 0 -0.115804)
(-0.544745 0 -0.102557)
(-0.519543 0 -0.0812837)
(-0.622535 0 -0.0666546)
(-0.575311 0 -0.0565222)
(-0.690452 0 -0.0418378)
(-0.624685 0 -0.039065)
(-0.747716 0 -0.0250125)
(-0.668539 0 -0.0271854)
(-0.796543 0 -0.0139746)
(-0.707682 0 -0.0194542)
(-0.838585 0 -0.00709297)
(-0.742807 0 -0.0147641)
(-0.875271 0 -0.00320661)
(-0.774547 0 -0.012254)
(-0.907747 0 -0.00142145)
(-0.80349 0 -0.0112736)
(-0.936979 0 -0.00107721)
(-0.830172 0 -0.0113563)
(-0.963785 0 -0.00169895)
(-0.855005 0 -0.0121094)
(-0.98878 0 -0.00298354)
(-0.878214 0 -0.0130609)
(-1.01232 0 -0.00464944)
(-0.899954 0 -0.0135833)
(-1.03458 0 -0.00618872)
(-0.920482 0 -0.0130021)
(-1.05566 0 -0.00687286)
(-0.940218 0 -0.0108824)
(-1.07575 0 -0.00605103)
(-0.959732 0 -0.00732696)
(-1.09508 0 -0.00348054)
(-0.979408 0 -0.00302821)
(-1.11377 0 0.000358959)
(-0.998428 0 0.00114051)
(-1.13172 0 0.00431486)
(-1.01509 0 0.0046111)
(-1.14831 0 0.00737909)
(-1.02878 0 0.00725452)
(-1.16268 0 0.00952847)
(-1.04027 0 0.00935994)
(-1.17478 0 0.0112182)
(-1.05032 0 0.0111547)
(-1.18539 0 0.0127744)
(-1.05902 0 0.0121689)
(-1.19478 0 0.0140413)
(-1.06679 0 0.0119491)
(-1.20253 0 0.0142656)
(-1.20652 0 0.0134553)