/*--------------------------------*- C++ -*----------------------------------*\
  =========                 |
  \\      /  F ield         | OpenFOAM: The Open Source CFD Toolbox
   \\    /   O peration     | Website:  https://openfoam.org
    \\  /    A nd           | Version:  dev
     \\/     M anipulation  |
\*---------------------------------------------------------------------------*/
FoamFile
{
    version     2.0;
    format      ascii;
    class       volScalarField;
    location    "8.4";
    object      p;
}
// * * * * * * * * * * * * * * * * * * * * * * * * * * * * * * * * * * * * * //

dimensions      [0 2 -2 0 0 0 0];

internalField   nonuniform List<scalar> 
2790
(
146.719
146.626
146.893
147.464
148.244
149.202
150.334
151.641
153.118
154.759
156.558
158.509
160.603
162.828
165.168
167.604
170.108
172.647
175.179
177.654
180.012
182.189
184.12
185.74
187
187.874
188.31
188.365
188.416
188.629
146.516
146.534
146.826
147.394
148.17
149.124
150.252
151.553
153.022
154.655
156.445
158.386
160.469
162.683
165.012
167.438
169.934
172.467
174.997
177.475
179.844
182.039
183.993
185.642
186.926
187.8
188.197
188.252
188.384
188.669
146.317
146.405
146.716
147.274
148.037
148.979
150.092
151.374
152.822
154.43
156.192
158.101
160.15
162.325
164.613
166.996
169.448
171.939
174.431
176.878
179.228
181.42
183.393
185.082
186.433
187.409
188.002
188.357
188.672
188.971
146.092
146.211
146.535
147.084
147.832
148.757
149.851
151.109
152.528
154.103
155.826
157.692
159.69
161.811
164.039
166.357
168.742
171.165
173.592
175.983
178.29
180.462
182.443
184.183
185.637
186.789
187.657
188.328
188.881
189.4
145.832
145.964
146.296
146.838
147.57
148.474
149.542
150.769
152.151
153.682
155.356
157.165
159.101
161.152
163.304
165.54
167.838
170.173
172.514
174.828
177.073
179.208
181.19
182.981
184.551
185.893
187.023
187.986
188.797
189.544
145.531
145.669
146.003
146.535
147.247
148.125
149.161
150.35
151.688
153.168
154.783
156.525
158.386
160.354
162.415
164.553
166.749
168.978
171.215
173.43
175.593
177.67
179.632
181.453
183.116
184.618
185.964
187.169
188.189
189.107
145.188
145.327
145.659
146.177
146.867
147.715
148.714
149.859
151.145
152.565
154.112
155.778
157.553
159.426
161.383
163.409
165.485
167.591
169.704
171.8
173.855
175.846
177.754
179.564
181.27
182.87
184.364
185.743
186.908
187.954
144.803
144.941
145.265
145.767
146.431
147.244
148.202
149.297
150.525
151.878
153.349
154.928
156.607
158.373
160.213
162.112
164.053
166.018
167.985
169.937
171.855
173.722
175.53
177.272
178.95
180.569
182.124
183.597
184.846
185.997
144.377
144.51
144.824
145.307
145.942
146.718
147.629
148.669
149.833
151.112
152.498
153.982
155.555
157.203
158.914
160.672
162.462
164.265
166.065
167.844
169.587
171.286
172.934
174.534
176.096
177.631
179.14
180.61
181.881
183.12
143.911
144.039
144.339
144.8
145.402
146.137
146.998
147.979
149.073
150.271
151.566
152.947
154.404
155.925
157.494
159.098
160.72
162.342
163.948
165.522
167.05
168.525
169.943
171.311
172.644
173.964
175.284
176.622
177.823
179.127
143.405
143.527
143.812
144.248
144.816
145.506
146.313
147.23
148.249
149.362
150.559
151.83
153.164
154.546
155.964
157.4
158.838
160.259
161.645
162.98
164.248
165.439
166.546
167.574
168.539
169.468
170.399
171.398
172.361
173.679
142.863
142.978
143.246
143.654
144.185
144.829
145.579
146.428
147.368
148.39
149.484
150.639
151.842
153.079
154.334
155.591
156.829
158.03
159.172
160.235
161.196
162.039
162.748
163.314
163.741
164.052
164.296
164.605
164.988
166.162
142.286
142.393
142.643
143.022
143.514
144.108
144.798
145.576
146.434
147.362
148.348
149.382
150.448
151.532
152.618
153.684
154.711
155.675
156.55
157.31
157.923
158.357
158.58
158.556
158.253
157.657
156.784
155.795
154.85
155.356
141.677
141.775
142.006
142.355
142.806
143.349
143.977
144.681
145.454
146.284
147.159
148.067
148.993
149.919
150.828
151.697
152.502
153.216
153.807
154.239
154.47
154.447
154.109
153.377
152.156
150.329
147.769
144.472
140.531
138.501
141.038
141.128
141.338
141.655
142.064
142.554
143.118
143.747
144.433
145.163
145.924
146.704
147.486
148.251
148.979
149.646
150.223
150.679
150.976
151.066
150.893
150.383
149.438
147.924
145.646
142.317
137.478
130.47
120.024
107.826
0.617168
0.597406
0.528425
0.432799
0.333541
0.242666
0.164999
0.102064
0.0537625
0.0188147
-0.00389346
-0.0166545
-0.0219243
-0.0218738
-0.0184545
-0.0133978
-0.00810722
-0.00357305
-0.000374901
0.00128069
0.00151999
0.0007293
-0.000564817
-0.00184241
-0.00273442
-0.00310542
-0.00301258
-0.00258549
-0.00191385
-0.00101648
0.568925
0.546583
0.481639
0.393435
0.301911
0.217606
0.145072
0.0860418
0.0408989
0.00943328
-0.0107203
-0.0216387
-0.0254091
-0.0240715
-0.0195702
-0.0136626
-0.00777754
-0.00290524
0.000397256
0.00196805
0.00200653
0.000982102
-0.000508602
-0.00190247
-0.00282448
-0.00317454
-0.00305309
-0.00261613
-0.00194365
-0.000851801
0.514843
0.488148
0.425771
0.344576
0.26137
0.184625
0.118391
0.0644797
0.0233514
-0.00560928
-0.023137
-0.0313406
-0.0324757
-0.028632
-0.0218476
-0.0140074
-0.00662717
-0.000762932
0.00298907
0.00449103
0.00407108
0.00239746
0.000284143
-0.00153563
-0.00263491
-0.00300583
-0.00286904
-0.00245586
-0.00182162
-0.000764566
0.461742
0.43063
0.370008
0.294815
0.219348
0.149846
0.0898214
0.0410858
0.00423169
-0.0211797
-0.036148
-0.0419236
-0.0404413
-0.0339035
-0.0245911
-0.0145949
-0.00555582
0.00138288
0.00557185
0.00689894
0.00587712
0.00342587
0.000609713
-0.00164289
-0.00288293
-0.0032366
-0.00306157
-0.00267013
-0.00213148
-0.00124649
0.423028
0.38781
0.328798
0.257952
0.188161
0.123828
0.0682382
0.0232062
-0.0105398
-0.0332549
-0.0461186
-0.0503939
-0.047229
-0.0386662
-0.0273319
-0.0155654
-0.00513687
0.00272215
0.0072924
0.00844508
0.00687936
0.00375548
0.000393565
-0.0020959
-0.0032676
-0.0033858
-0.00300454
-0.0025382
-0.00201223
-0.00130453
0.410962
0.370659
0.312832
0.243639
0.176109
0.113568
0.0594446
0.0155727
-0.0172462
-0.0393936
-0.0523501
-0.0562229
-0.0520039
-0.0421921
-0.0296666
-0.01682
-0.00543744
0.00318422
0.00819038
0.0092799
0.00740417
0.00383958
8.5566e-05
-0.00264528
-0.00389383
-0.00395292
-0.00345519
-0.00291955
-0.00244591
-0.00147894
0.436394
0.388141
0.329434
0.257616
0.187301
0.122166
0.0657925
0.0200976
-0.0140507
-0.0369488
-0.0503512
-0.0561048
-0.0536066
-0.044165
-0.03167
-0.0187305
-0.00720132
0.0015683
0.00671654
0.00810715
0.00653786
0.00323613
-0.000371164
-0.00304466
-0.00428593
-0.00433712
-0.00383548
-0.00339974
-0.00312848
-0.00170698
0.503748
0.446829
0.37929
0.298912
0.220136
0.148105
0.086337
0.0364769
-0.00113531
-0.0273952
-0.0443784
-0.0525746
-0.0517513
-0.0443162
-0.0332673
-0.0212424
-0.0101833
-0.00147629
0.00397786
0.00593103
0.00490947
0.00198733
-0.00145733
-0.00414711
-0.00541804
-0.00540031
-0.00480151
-0.00442071
-0.00417462
-0.00196873
0.614479
0.539809
0.453644
0.357316
0.265123
0.182709
0.113414
0.0582197
0.0159017
-0.0153427
-0.0360315
-0.0464875
-0.0481251
-0.0431222
-0.0341946
-0.0238076
-0.0138145
-0.00553756
9.66617e-05
0.00262561
0.00221109
-0.000335807
-0.00368206
-0.00639755
-0.00758531
-0.00728404
-0.00636173
-0.00581087
-0.00528834
-0.00223551
0.753077
0.647655
0.532218
0.414243
0.307355
0.214704
0.136934
0.074908
0.0280297
-0.00563687
-0.0281963
-0.0406593
-0.0444041
-0.0415884
-0.0348308
-0.0264147
-0.0178967
-0.0103159
-0.00456823
-0.00145127
-0.00132823
-0.00374696
-0.00734647
-0.0103198
-0.0113493
-0.010404
-0.00869748
-0.00752906
-0.00636612
-0.00249125
0.888501
0.738041
0.595901
0.453765
0.329549
0.227625
0.146455
0.0829311
0.0348328
7.09694e-07
-0.0236239
-0.0372618
-0.0422183
-0.0407641
-0.0357364
-0.0293399
-0.0225824
-0.0158555
-0.00988473
-0.00598371
-0.00534077
-0.00802398
-0.0125136
-0.0162498
-0.0171419
-0.0150678
-0.011894
-0.00951575
-0.00737037
-0.00272812
1.00329
0.798619
0.615617
0.455658
0.324046
0.219635
0.138553
0.0767876
0.0311743
-0.00171851
-0.0245303
-0.0380539
-0.0428654
-0.0413706
-0.0371976
-0.0327621
-0.0281446
-0.0224329
-0.015898
-0.0106864
-0.00936897
-0.0128321
-0.0192069
-0.0245853
-0.0254867
-0.0215935
-0.0159562
-0.0116563
-0.00827197
-0.00294028
1.03748
0.7633
0.552084
0.387787
0.264643
0.173684
0.104351
0.0516483
0.014121
-0.0124916
-0.0321346
-0.0443732
-0.0474859
-0.0438562
-0.0391245
-0.0366505
-0.0349605
-0.0306056
-0.0228303
-0.0152004
-0.0127113
-0.0176029
-0.0273726
-0.0358431
-0.0371072
-0.0303788
-0.0207896
-0.0137233
-0.00903351
-0.00312342
0.828081
0.474343
0.316664
0.213665
0.13308
0.0819356
0.0417086
0.00627264
-0.0170624
-0.0320176
-0.0463273
-0.057299
-0.0572711
-0.0481591
-0.0404374
-0.0401933
-0.043247
-0.0411944
-0.0310842
-0.0189763
-0.0142495
-0.0214161
-0.036858
-0.0507461
-0.0530774
-0.0419876
-0.0261328
-0.0152504
-0.0095819
-0.00327507
0.164881
-0.260786
-0.195008
-0.0900038
-0.0831223
-0.0489135
-0.0368914
-0.057738
-0.0665206
-0.0610007
-0.0658476
-0.0771254
-0.0731598
-0.0535171
-0.0388693
-0.0421457
-0.0540237
-0.0564912
-0.042138
-0.021631
-0.0124728
-0.0229551
-0.0474066
-0.0703234
-0.0750279
-0.0572918
-0.0314529
-0.0153143
-0.00974584
-0.00339442
140.359
140.439
140.628
140.912
141.277
141.712
142.21
142.762
143.357
143.984
144.629
145.277
145.91
146.51
147.052
147.511
147.855
148.046
148.04
147.78
147.193
146.185
144.621
142.307
138.946
134.042
126.675
114.935
92.8029
33.1257
139.631
139.703
139.869
140.118
140.437
140.815
141.244
141.715
142.217
142.737
143.261
143.773
144.255
144.685
145.038
145.285
145.391
145.314
145.003
144.393
143.4
141.909
139.764
136.731
132.453
126.347
117.379
103.819
84.2986
55.8325
138.862
138.923
139.066
139.28
139.551
139.87
140.229
140.617
141.023
141.434
141.836
142.21
142.538
142.797
142.959
142.994
142.865
142.525
141.919
140.976
139.605
137.685
135.051
131.474
126.628
120.057
111.171
99.3278
85.073
68.4036
138.051
138.102
138.221
138.398
138.621
138.88
139.167
139.47
139.78
140.082
140.36
140.596
140.771
140.859
140.834
140.663
140.305
139.714
138.831
137.585
135.883
133.609
130.61
126.689
121.6
115.048
106.736
96.3298
83.7632
68.5942
137.202
137.242
137.337
137.476
137.65
137.848
138.062
138.281
138.494
138.686
138.841
138.941
138.965
138.888
138.681
138.311
137.738
136.914
135.782
134.271
132.296
129.749
126.503
122.399
117.258
110.88
103.062
93.5621
82.2105
69.2131
136.315
136.345
136.415
136.517
136.641
136.778
136.919
137.054
137.171
137.254
137.289
137.255
137.133
136.896
136.517
135.961
135.189
134.156
132.806
131.075
128.885
126.145
122.75
118.58
113.506
107.391
100.114
91.5726
81.7579
71.0816
135.394
135.414
135.459
135.523
135.597
135.674
135.743
135.795
135.817
135.795
135.712
135.55
135.287
134.9
134.359
133.632
132.683
131.466
129.933
128.026
125.677
122.814
119.354
115.208
110.291
104.523
97.8489
90.257
81.7904
72.7849
134.442
134.451
134.472
134.498
134.524
134.541
134.54
134.51
134.44
134.315
134.12
133.835
133.441
132.913
132.224
131.344
130.238
128.867
127.185
125.145
122.69
119.763
116.303
112.25
107.551
102.166
96.0796
89.3131
81.9156
74.1597
133.462
133.461
133.458
133.448
133.426
133.384
133.315
133.206
133.048
132.825
132.523
132.123
131.606
130.949
130.128
129.113
127.873
126.374
124.578
122.444
119.928
116.987
113.578
109.662
105.211
100.21
94.6642
88.6085
82.0961
75.3549
132.459
132.448
132.421
132.376
132.307
132.209
132.074
131.89
131.647
131.332
130.929
130.423
129.794
129.022
128.083
126.952
125.602
124.003
122.123
119.93
117.39
114.473
111.149
107.398
103.206
98.5746
93.5208
88.0842
82.3179
76.4069
131.437
131.416
131.367
131.287
131.174
131.022
130.823
130.568
130.246
129.845
129.35
128.746
128.017
127.142
126.102
124.874
123.435
121.76
119.824
117.601
115.068
112.203
108.99
105.417
101.484
97.1995
92.588
87.6885
82.549
77.3179
130.401
130.371
130.3
130.187
130.032
129.829
129.571
129.249
128.853
128.372
127.793
127.102
126.283
125.32
124.194
122.888
121.38
119.651
117.682
115.455
112.951
110.159
107.07
103.68
99.9968
96.0337
91.8162
87.3805
82.7687
78.1002
129.357
129.318
129.226
129.083
128.887
128.636
128.323
127.939
127.475
126.922
126.267
125.499
124.602
123.564
122.368
120.999
119.441
117.678
115.697
113.483
111.027
108.321
105.362
102.155
98.7072
95.0367
91.1678
87.1328
82.9678
78.7689
128.309
128.263
128.152
127.979
127.746
127.451
127.086
126.646
126.121
125.502
124.781
123.944
122.982
121.881
120.628
119.212
117.62
115.84
113.862
111.677
109.28
106.668
103.843
100.81
97.5827
94.1766
90.6152
86.9267
83.1415
79.3376
127.265
127.211
127.082
126.882
126.615
126.279
125.868
125.376
124.796
124.12
123.34
122.446
121.428
120.276
118.981
117.531
115.919
114.135
112.173
110.028
107.698
105.183
102.489
99.6228
96.597
93.4283
90.1375
86.7489
83.2881
79.8184
126.231
126.169
126.024
125.8
125.502
125.128
124.675
124.138
123.509
122.783
121.953
121.01
119.947
118.755
117.428
115.956
114.335
112.558
110.622
108.525
106.266
103.85
101.281
98.5702
95.7287
92.7722
89.7191
86.5905
83.4077
80.2224
125.213
125.145
124.985
124.739
124.412
124.005
123.515
122.937
122.266
121.497
120.624
119.641
118.542
117.321
115.971
114.488
112.868
111.106
109.203
107.158
104.972
102.652
100.203
97.6352
94.9604
92.1928
89.3485
86.4454
83.5016
80.5593
124.218
124.144
123.971
123.705
123.353
122.917
122.394
121.781
121.073
120.268
119.36
118.345
117.219
115.976
114.612
113.126
111.514
109.774
107.908
105.917
103.805
101.576
99.2394
96.803
94.2784
91.6784
89.0171
86.3099
83.5719
80.838
123.254
123.175
122.99
122.706
122.332
121.87
121.319
120.675
119.938
119.102
118.166
117.126
115.979
114.722
113.352
111.869
110.27
108.557
106.731
104.795
102.754
100.612
98.3786
96.0615
93.6714
91.2196
88.7187
86.1815
83.6212
81.0664
122.328
122.244
122.049
121.749
121.356
120.872
120.296
119.628
118.864
118.004
117.046
115.987
114.826
113.561
112.19
110.715
109.134
107.451
105.666
103.784
101.81
99.7497
97.6106
95.4012
93.1308
90.8098
88.4489
86.0594
83.6523
81.2516
121.447
121.359
121.155
120.842
120.432
119.929
119.333
118.643
117.859
116.98
116.005
114.932
113.762
112.494
111.127
109.663
108.104
106.45
104.707
102.877
100.966
98.9804
96.9272
94.8141
92.6499
90.4436
88.2048
85.9431
83.6682
81.4
120.619
120.528
120.316
119.991
119.567
119.048
118.435
117.729
116.928
116.034
115.046
113.964
112.79
111.522
110.162
108.713
107.175
105.552
103.848
102.068
100.216
98.2981
96.3219
94.2945
92.2236
90.1175
87.9847
85.8335
83.6722
81.5176
119.852
119.759
119.539
119.205
118.769
118.237
117.61
116.89
116.076
115.171
114.174
113.087
111.911
110.647
109.296
107.862
106.347
104.754
103.088
101.353
99.5537
97.6972
95.7895
93.8374
91.8481
89.829
87.7875
85.7311
83.6671
81.6094
119.155
119.059
118.834
118.491
118.044
117.501
116.864
116.132
115.309
114.395
113.393
112.303
111.128
109.87
108.53
107.112
105.619
104.054
102.422
100.728
98.9772
97.1748
95.3271
93.4405
91.5217
89.5771
87.6138
85.6381
83.6567
81.6813
118.536
118.437
118.207
117.856
117.401
116.849
116.202
115.463
114.632
113.713
112.707
111.617
110.444
109.192
107.863
106.461
104.988
103.449
101.849
100.192
98.4823
96.7269
94.9309
93.1004
91.2414
89.36
87.4625
85.5546
83.6423
81.7354
118.004
117.903
117.666
117.308
116.846
116.287
115.634
114.888
114.052
113.129
112.122
111.032
109.864
108.619
107.301
105.913
104.459
102.943
101.37
99.7437
98.0703
96.3547
94.6023
92.8188
91.0098
89.181
87.338
85.4862
83.6311
81.781
117.57
117.465
117.221
116.855
116.386
115.821
115.162
114.411
113.572
112.646
111.639
110.551
109.386
108.148
106.84
105.465
104.027
102.53
100.98
99.3803
97.7364
96.0533
94.3363
92.5906
90.8217
89.0348
87.2351
85.4278
83.6176
81.8116
117.244
117.133
116.88
116.508
116.034
115.464
114.801
114.047
113.205
112.278
111.271
110.185
109.024
107.792
106.491
105.127
103.702
102.221
100.689
99.1106
97.4899
95.8323
94.1429
92.4268
90.689
88.9346
87.1686
85.3958
83.621
81.8501
117.042
116.907
116.637
116.259
115.783
115.211
114.545
113.789
112.946
112.02
111.013
109.929
108.772
107.544
106.25
104.893
103.478
102.008
100.489
98.9241
97.3192
95.6788
94.0078
92.3113
90.5941
88.8611
87.117
85.3664
83.6138
81.864
117.024
116.825
116.527
116.142
115.663
115.088
114.419
113.661
112.817
111.891
110.885
109.803
108.648
107.424
106.135
104.783
103.375
101.913
100.402
98.8469
97.2524
95.6231
93.964
92.2798
90.5755
88.8557
87.125
85.3881
83.6491
81.9123
-50.4822
-30.2175
-11.1356
35.4451
27.9571
15.8331
50.8649
38.75
27.5018
52.3
41.8636
33.8028
56.6435
48.3438
41.5738
61.0338
54.1155
48.2151
64.3124
58.4241
53.3688
66.9147
61.8845
57.5708
69.109
64.7727
61.0604
70.9618
67.18
63.9505
72.5202
69.1876
66.3489
73.8336
70.8695
68.3498
74.9426
72.2836
70.0266
75.8794
73.4755
71.4372
76.6707
74.4818
72.627
77.3382
75.3321
73.6326
77.9003
76.0504
74.4831
78.3722
76.6564
75.2022
78.7668
77.1666
75.8093
79.0953
77.5948
76.3208
79.3672
77.9527
76.7502
79.5911
78.2506
77.1094
79.7737
78.4967
77.4078
79.9231
78.7
77.6554
80.0418
78.864
77.8565
80.1416
79.0012
78.0238
80.2137
79.1033
78.1506
80.2869
79.1992
78.2637
80.3212
79.2498
78.3284
80.3904
79.3331
78.4181
-3.00405
-2.9215
-1.46858
-0.329607
-0.291431
-0.190968
-0.132145
-0.16316
-0.146248
-0.0835792
-0.0712158
-0.0977804
-0.0992824
-0.0635789
-0.0323935
-0.0403708
-0.0679416
-0.0788261
-0.0567857
-0.0207485
-0.0033285
-0.0192021
-0.0582851
-0.0962854
-0.105962
-0.0781265
-0.0358999
-0.0121034
-0.00904317
-0.00348544
2.05196
-0.82235
0.77292
0.249055
-1.11932
-0.863195
-0.201411
-0.180006
-0.157766
-0.0557279
-0.0783348
-0.167145
-0.179913
-0.0862174
0.000863394
-0.0178197
-0.0804415
-0.113429
-0.0824163
-0.0183368
0.0148623
-0.00960486
-0.07148
-0.133222
-0.151687
-0.107949
-0.037738
-0.00176739
-0.00599975
-0.00356756
13.2212
4.86253
2.03744
-0.419962
-0.719335
0.839318
0.991017
-0.420515
-0.773571
-0.396975
-0.0567439
-0.15627
-0.182414
-0.00859404
0.0879483
0.00715718
-0.127592
-0.199114
-0.140767
-0.0077877
0.0624033
0.0215215
-0.0763245
-0.175754
-0.212199
-0.148633
-0.033619
0.0227494
0.00290249
-0.00372446
23.0237
13.1268
7.23277
3.46356
1.76136
1.25844
1.80926e-05
-0.676901
-0.240963
0.930914
0.775092
-0.319435
-0.691005
-0.44754
0.0778329
0.110257
-0.126061
-0.256856
-0.156853
0.0644456
0.146149
0.0589447
-0.0971555
-0.255387
-0.324264
-0.233216
-0.0227767
0.0717152
0.0239216
-0.00422729
32.2098
22.4271
15.098
9.81006
6.18544
3.72006
1.84328
0.858446
0.61689
0.58305
0.0572973
-0.543627
-0.580711
0.466882
0.981251
0.303425
-0.283222
-0.597029
-0.520842
-0.0465504
0.24034
0.136601
-0.0909498
-0.316941
-0.41845
-0.252643
0.0191409
0.160392
0.0645616
-0.00582716
40.2016
31.2617
23.3653
16.9307
12.0073
8.36936
5.70369
3.82794
2.55993
1.64192
0.872109
0.284449
0.0978853
0.429569
0.428243
0.143642
-0.325237
-0.604959
-0.29353
0.504962
0.661146
0.203336
-0.141026
-0.460313
-0.680792
-0.593271
-0.00905063
0.288227
0.128616
-0.0109285
46.7249
38.9079
31.1219
24.2257
18.6008
14.1468
10.6288
7.87724
5.78404
4.21143
2.99353
2.04466
1.42944
1.13707
0.876654
0.523825
0.0492408
-0.23697
-0.0951774
0.263442
0.397643
0.212461
-0.114474
-0.488522
-0.727569
-0.414941
0.367888
0.550358
0.206132
-0.0239388
52.0379
45.2973
38.0307
31.195
25.3107
20.3673
16.2295
12.8097
10.0437
7.83274
6.04926
4.6153
3.53129
2.76565
2.16127
1.56288
0.975492
0.578108
0.482603
0.568629
0.584521
0.373011
0.00806794
-0.357395
-0.538843
-0.308267
0.162079
0.396381
0.304276
-0.0641225
56.3719
50.5482
43.9567
37.4779
31.6578
26.5464
22.0789
18.2202
14.9412
12.1857
9.87884
7.96426
6.41355
5.18224
4.16609
3.26527
2.47696
1.87973
1.52272
1.33308
1.13651
0.809917
0.400053
0.0341223
-0.150317
-0.0460717
0.236892
0.392063
0.260816
-0.303104
59.909
54.8363
48.9282
42.939
37.383
32.3382
27.7753
23.6902
20.0844
16.9395
14.2192
11.8857
9.90694
8.242
6.82632
5.59946
4.54427
3.68442
3.03346
2.53989
2.09402
1.61602
1.12425
0.699222
0.431092
0.372615
0.445377
0.43262
0.17223
-0.518046
62.8143
58.3512
53.067
47.5956
42.3977
37.5569
33.0604
28.9198
25.1562
21.7753
18.7655
16.1067
13.7762
11.7455
9.97537
8.4268
7.07849
5.92943
4.97509
4.17839
3.47248
2.8043
2.17367
1.62463
1.21055
0.953393
0.791189
0.57516
0.170658
-0.593013
65.2208
61.2547
56.5138
51.5327
46.7171
42.1458
37.8121
33.7332
29.9388
26.4478
23.2641
20.3818
17.7903
15.4729
13.407
11.5676
9.93623
8.50331
7.25741
6.17146
5.20322
4.31615
3.50202
2.78077
2.17902
1.70052
1.29658
0.865674
0.30655
-0.522285
67.2285
63.6715
59.3946
54.8543
50.4076
46.1253
42.0013
38.0529
34.3119
30.803
27.5389
24.5237
21.7559
19.2288
16.9308
14.8475
12.9656
11.2745
9.76203
8.40827
7.18548
6.06821
5.04556
4.12274
3.30876
2.59765
1.95164
1.30129
0.575763
-0.331496
68.9127
65.6961
61.8135
57.6603
53.5526
49.5528
45.6534
41.8694
38.231
34.7649
31.4879
28.4098
25.5356
22.8655
20.3957
18.1195
16.0287
14.115
12.3683
10.7741
9.31402
7.96987
6.73058
5.59332
4.55699
3.61122
2.72683
1.85643
0.953091
-0.0565581
70.3314
67.4004
63.8534
60.0368
56.233
52.4967
48.8188
45.2106
41.7
38.3125
35.0668
31.9755
29.0475
26.2875
23.6973
21.2751
19.0173
16.9187
14.9722
13.168
11.4933
9.93532
8.4838
7.13229
5.87473
4.69935
3.58359
2.49498
1.40312
0.26262
71.5298
68.84
65.5795
62.0548
58.5201
55.0237
51.5547
48.1213
44.7476
41.4578
38.2701
35.1986
32.2539
29.4439
26.7735
24.2446
21.8571
19.6088
17.4956
15.511
13.6466
11.8931
10.2418
8.68504
7.2149
5.81976
4.48193
3.17855
1.8894
0.590586
72.5435
70.0586
67.0434
63.7717
60.4738
57.1927
53.9163
50.6494
47.413
44.2286
41.1139
38.0827
35.1467
32.3151
29.5949
26.9906
24.5045
22.1368
19.8861
17.7485
15.7188
13.7902
11.9555
10.2074
8.53765
6.93539
5.38626
3.87324
2.38139
0.901795
73.4015
71.0909
68.2864
65.2339
62.1436
59.0543
55.9527
52.8408
49.7364
46.6588
43.624
40.6453
37.7343
34.9011
32.1536
29.4979
26.9382
24.4765
22.1132
19.8468
17.6742
15.5907
13.5906
11.6672
9.81277
8.01736
6.26875
4.55305
2.85734
1.18186
74.127
71.9651
69.3418
66.4793
63.5706
60.651
57.7063
54.7365
51.7561
48.7822
45.8291
42.9092
40.0336
37.2124
34.4539
31.7653
29.1517
26.6165
24.1618
21.7875
19.4922
17.2729
15.125
13.0429
11.0193
9.04531
7.10981
5.20032
3.30404
1.42577
74.7396
72.7046
70.237
67.539
64.7887
62.0185
59.2138
56.3724
53.5064
50.6306
47.7578
44.899
42.0646
39.2643
36.5066
33.7988
31.1469
28.5551
26.0265
23.5623
21.1622
18.8245
16.5458
14.3212
12.1441
10.0061
7.89697
5.80448
3.71501
1.63487
75.2552
73.3285
70.9947
68.4388
65.8263
63.1869
60.5058
57.7794
55.0174
52.2327
49.4363
46.6381
43.8476
41.0737
38.3249
35.6082
32.9301
30.2953
27.7075
25.1687
22.6798
20.2397
17.846
15.4944
13.179
10.8918
8.62276
6.35973
4.08792
1.81331
75.6879
73.8532
71.634
69.2005
66.7071
64.1816
61.609
58.9844
56.3158
53.614
50.8888
48.1487
45.4023
42.6578
39.923
37.205
34.5099
31.843
29.2082
26.6082
24.0443
21.5163
19.0222
16.5585
14.1196
11.6979
9.28343
6.8637
4.42301
1.966
76.0486
74.2919
72.1704
69.8418
67.4507
65.0235
62.5452
60.01
57.4239
54.7965
52.1362
49.4503
46.7464
44.032
41.3143
38.5999
35.895
33.2046
30.5329
27.883
25.2564
22.6535
20.0728
17.511
14.9631
12.4215
9.87629
7.31477
4.7205
2.09636
76.3484
74.6572
72.6184
70.3788
68.0749
65.7317
63.3344
60.8764
58.3624
55.8005
53.1981
50.5615
47.8973
45.2121
42.5127
39.8052
37.0954
34.3883
31.688
28.9977
26.3194
23.6534
20.9987
18.3523
15.7093
13.0624
10.4016
7.71394
4.98257
2.20811
76.5935
74.9566
72.9869
70.8218
68.5912
66.3187
63.9899
61.5975
59.1452
56.6399
54.0879
51.4948
48.8664
46.2085
43.5271
40.8282
38.1169
35.3981
32.6759
29.9535
27.2327
24.5144
21.7974
19.0792
16.3548
13.617
10.8559
8.05829
5.20714
2.30083
76.7956
75.2029
73.29
71.1862
69.0157
66.8016
64.5295
62.1916
59.7908
57.3331
54.8239
52.2681
49.6707
47.0371
44.3726
41.6825
38.9719
36.2453
33.5066
30.7589
28.0042
25.2433
22.4751
19.6971
16.9046
14.0903
11.2443
8.35316
5.39984
2.37965
76.9517
75.3938
73.5257
71.4705
69.3479
67.1802
64.9533
62.6591
60.2997
57.8804
55.406
52.8807
50.309
47.6957
45.0457
42.3638
39.6549
36.9231
34.1722
31.4053
28.6241
25.8294
23.0205
20.1946
17.3471
14.4707
11.5553
8.58772
5.55076
2.43754
77.0838
75.5517
73.7176
71.6993
69.6128
67.4802
65.2876
63.0266
60.6988
58.3088
55.861
53.3592
50.8075
48.2101
45.5716
42.8966
40.1894
37.4543
34.6946
31.9134
29.1123
26.2922
23.4523
20.5897
17.6999
14.7755
11.8064
8.77904
5.67613
2.48704
77.1651
75.6491
73.8374
71.8442
69.7821
67.673
65.5033
63.2645
60.9578
58.5875
56.1577
53.6718
51.1336
48.547
45.9165
43.2463
40.5406
37.8034
35.038
32.2474
29.4332
26.5961
23.7353
20.848
17.9295
14.9724
11.9663
8.89743
5.7484
2.50696
77.2542
75.7393
73.9398
71.9616
69.9132
67.8166
65.6591
63.432
61.1363
58.7761
56.3553
53.8772
51.3454
48.7638
46.1365
43.4678
40.7618
38.0224
35.2529
32.4562
29.6338
26.7866
23.9137
21.0123
18.0776
15.1021
12.075
8.98184
5.80256
2.51335
)
;

boundaryField
{
    inlet
    {
        type            zeroGradient;
    }
    outlet
    {
        type            fixedValue;
        value           uniform 0;
    }
    flap
    {
        type            zeroGradient;
    }
    upperWall
    {
        type            zeroGradient;
    }
    lowerWall
    {
        type            zeroGradient;
    }
    frontAndBack
    {
        type            empty;
    }
}


// ************************************************************************* //
