/*--------------------------------*- C++ -*----------------------------------*\
  =========                 |
  \\      /  F ield         | OpenFOAM: The Open Source CFD Toolbox
   \\    /   O peration     | Website:  https://openfoam.org
    \\  /    A nd           | Version:  dev
     \\/     M anipulation  |
\*---------------------------------------------------------------------------*/
FoamFile
{
    version     2.0;
    format      ascii;
    class       surfaceScalarField;
    location    "8.4";
    object      phi;
}
// * * * * * * * * * * * * * * * * * * * * * * * * * * * * * * * * * * * * * //

dimensions      [0 3 -1 0 0 0 0];

internalField   nonuniform List<scalar> 
5457
(
0.198418
0.00158238
0.19648
0.00193737
0.194192
0.00228808
0.191509
0.00268358
0.188427
0.0030812
0.184951
0.00347677
0.181072
0.00387859
0.176778
0.00429404
0.17205
0.00472826
0.166864
0.00518527
0.161196
0.00566857
0.155015
0.00618111
0.14829
0.00672506
0.140988
0.00730145
0.133079
0.00790962
0.124532
0.00854658
0.115326
0.00920602
0.105449
0.00987731
0.0949046
0.0105442
0.0837209
0.0111836
0.0719562
0.0117647
0.0597079
0.0122483
0.0471192
0.0125887
0.0343791
0.0127401
0.0216842
0.0126949
0.00903412
0.0126501
-0.00291838
0.0119525
-0.00847298
0.00555461
-0.00804331
-0.000429672
-0.00804331
0.199928
0.00165422
0.199176
0.00268981
0.197965
0.00349902
0.196332
0.00431676
0.194272
0.00514125
0.191781
0.00596685
0.188854
0.00680559
0.185478
0.00767093
0.181633
0.00857321
0.177297
0.00952073
0.172445
0.0105208
0.167047
0.0115796
0.16107
0.0127019
0.154481
0.0138905
0.147245
0.0151448
0.139332
0.0164598
0.130714
0.0178241
0.121374
0.0192176
0.111309
0.0206092
0.100539
0.0219536
0.0891142
0.0231893
0.0771265
0.024236
0.0647206
0.0249947
0.0521132
0.0253475
0.039653
0.0251551
0.0281033
0.0241997
0.0185928
0.021463
0.00879506
0.0153524
0.00118244
0.00718295
-0.00686087
0.199781
0.00187366
0.199087
0.00338365
0.197946
0.00463995
0.196409
0.00585338
0.194483
0.00706739
0.192164
0.00828591
0.189447
0.00952304
0.186321
0.0107964
0.182773
0.0121212
0.178784
0.0135097
0.174332
0.014973
0.169391
0.0165207
0.163932
0.0181606
0.157925
0.0198978
0.151336
0.0217332
0.144135
0.0236617
0.136289
0.0256697
0.127775
0.0277317
0.118578
0.0298062
0.1087
0.0318316
0.0981677
0.0337212
0.0870454
0.0353584
0.0754486
0.0365914
0.0635715
0.0372246
0.0517298
0.0369968
0.0403949
0.0355347
0.0297369
0.032121
0.0191645
0.0259247
0.00959671
0.0167508
0.00273585
0.199703
0.00217059
0.199008
0.00407896
0.197887
0.00576048
0.196376
0.00736429
0.194488
0.00895552
0.192222
0.0105519
0.189574
0.0121707
0.186538
0.0138325
0.183104
0.0155556
0.179257
0.0173562
0.174982
0.019248
0.17026
0.0212434
0.165068
0.0233524
0.159384
0.0255821
0.153182
0.0279351
0.146436
0.0304071
0.139122
0.0329843
0.131214
0.0356392
0.122695
0.0383256
0.113554
0.0409727
0.103797
0.0434783
0.0934541
0.0457011
0.0825928
0.0474527
0.07133
0.0484874
0.0598382
0.0484886
0.0483145
0.0470584
0.0368089
0.0436265
0.0251864
0.0375472
0.0133348
0.0286024
0.0160707
0.199667
0.00250318
0.198964
0.00478222
0.197863
0.00686179
0.196381
0.00884598
0.194532
0.0108043
0.192318
0.0127666
0.189734
0.0147546
0.186775
0.0167911
0.183434
0.0188974
0.179698
0.021092
0.175555
0.023391
0.17099
0.0258086
0.165986
0.0283563
0.160525
0.0310425
0.15459
0.0338708
0.148159
0.0368378
0.141213
0.0399303
0.133731
0.0431209
0.125694
0.0463627
0.117085
0.0495823
0.107891
0.052672
0.0981117
0.0554803
0.0877616
0.0578028
0.0768756
0.0593734
0.0655057
0.0598584
0.0537053
0.0588589
0.0414517
0.0558801
0.0285861
0.0504129
0.0148515
0.042337
0.0309221
0.199653
0.00285038
0.198949
0.00548628
0.197871
0.00793974
0.196427
0.0102902
0.194627
0.0126043
0.192473
0.0149201
0.189963
0.0172642
0.187093
0.0196619
0.183853
0.0221367
0.180236
0.0247093
0.176229
0.0273976
0.171821
0.0302173
0.166996
0.0331812
0.16174
0.0362986
0.156037
0.0395738
0.14987
0.0430046
0.143221
0.0465787
0.136072
0.0502705
0.128399
0.0540352
0.120179
0.0578022
0.111385
0.0614666
0.101986
0.0648793
0.0919513
0.0678371
0.0812504
0.0700743
0.0698506
0.0712582
0.0577136
0.070996
0.0447579
0.0688358
0.0308471
0.0643237
0.015872
0.057312
0.0467942
0.19965
0.00320033
0.198954
0.00618226
0.197904
0.00898936
0.196505
0.0116899
0.194762
0.0143465
0.19268
0.0170021
0.190257
0.0196879
0.187487
0.0224316
0.184365
0.0252588
0.180882
0.0281922
0.177028
0.0312516
0.172791
0.034454
0.168159
0.0378134
0.163118
0.0413403
0.157651
0.0450402
0.151743
0.0489123
0.145376
0.0529465
0.138526
0.0571203
0.131167
0.0613938
0.123266
0.0657034
0.114779
0.0699537
0.105651
0.0740075
0.0958127
0.0776752
0.0851819
0.080705
0.073664
0.0827761
0.0611575
0.0835025
0.0475518
0.0824415
0.0327561
0.0791194
0.0167815
0.0732866
0.0635757
0.199655
0.00354567
0.198975
0.00686237
0.197959
0.0100051
0.19661
0.0130386
0.194934
0.0160226
0.192933
0.0190027
0.190607
0.0220139
0.187952
0.0250868
0.184962
0.0282488
0.18163
0.0315244
0.177947
0.0349351
0.173901
0.0384994
0.169481
0.042233
0.164674
0.0461479
0.159463
0.0502513
0.15383
0.0545449
0.147755
0.059022
0.14121
0.0636653
0.134161
0.0684424
0.126564
0.0733006
0.118358
0.0781593
0.109465
0.0829008
0.0997818
0.0873584
0.0891823
0.0913045
0.07752
0.0944384
0.0646424
0.09638
0.0504131
0.0966709
0.0347649
0.0947676
0.017788
0.0902634
0.0813637
0.199664
0.0038815
0.199006
0.00752017
0.19803
0.0109813
0.196739
0.01433
0.195137
0.0176246
0.193227
0.0209125
0.191009
0.0242318
0.18848
0.0276154
0.185636
0.0310928
0.182471
0.0346901
0.178975
0.0384306
0.17514
0.0423344
0.170954
0.046419
0.166404
0.0506984
0.161472
0.0551825
0.156141
0.0598765
0.150384
0.0647786
0.144171
0.0698786
0.137459
0.0751544
0.130192
0.0805676
0.122294
0.0860576
0.113662
0.0915326
0.104163
0.0968575
0.0936279
0.101839
0.0818584
0.106208
0.0686432
0.109595
0.0537964
0.111518
0.0372322
0.111332
0.019081
0.108415
0.100445
0.199677
0.00420427
0.199047
0.00815041
0.198116
0.0119127
0.196887
0.0155583
0.195367
0.0191455
0.193556
0.0227231
0.191456
0.0263316
0.189065
0.0300062
0.18638
0.033778
0.183395
0.0376749
0.180104
0.0417218
0.176498
0.0459406
0.172566
0.0503507
0.168296
0.0549686
0.163671
0.0598076
0.15867
0.064877
0.153267
0.0701816
0.147426
0.0757199
0.141098
0.0814826
0.134217
0.087449
0.126692
0.0935827
0.1184
0.0998243
0.109177
0.10608
0.0988123
0.112204
0.0870448
0.117976
0.0735819
0.123058
0.0581411
0.126959
0.040546
0.128927
0.020898
0.128063
0.121343
0.199693
0.00451134
0.199095
0.00874878
0.198213
0.0127942
0.197053
0.0167179
0.19562
0.0205788
0.193916
0.0244269
0.191943
0.0283046
0.1897
0.0322491
0.187185
0.036293
0.184394
0.0404659
0.181322
0.044794
0.177962
0.0493012
0.174304
0.0540088
0.170336
0.058936
0.166044
0.0640998
0.161406
0.0695146
0.156396
0.0751922
0.150974
0.0811414
0.14509
0.0873671
0.13867
0.0938689
0.131614
0.100638
0.123784
0.107655
0.114989
0.114875
0.104974
0.122219
0.0934094
0.12954
0.0798878
0.13658
0.063958
0.142888
0.0452264
0.147658
0.0236067
0.149682
0.144949
0.199711
0.00480065
0.199148
0.00931179
0.19832
0.0136218
0.197234
0.0178042
0.195894
0.021919
0.194303
0.0260172
0.192465
0.0301431
0.190379
0.0343352
0.188044
0.0386277
0.185459
0.0430514
0.182619
0.047634
0.179519
0.0524009
0.176152
0.0573755
0.172508
0.0625797
0.168574
0.0680339
0.164331
0.073758
0.159752
0.0797711
0.154801
0.0860923
0.149427
0.0927416
0.143556
0.0997396
0.137086
0.107108
0.129872
0.114869
0.121708
0.123039
0.112305
0.131622
0.101261
0.140583
0.0880322
0.149809
0.0719094
0.159011
0.052074
0.167494
0.0278778
0.173879
0.172827
0.19973
0.00507057
0.199205
0.00983655
0.198435
0.0143918
0.197427
0.0188128
0.196185
0.023161
0.194714
0.0274884
0.193016
0.0318404
0.191094
0.036257
0.188948
0.0407736
0.186578
0.0454218
0.183982
0.0502306
0.181156
0.0552268
0.178096
0.0604355
0.174794
0.065881
0.171241
0.0715871
0.167421
0.0775783
0.163311
0.0838806
0.158881
0.090523
0.154083
0.097539
0.148853
0.10497
0.143096
0.112866
0.136673
0.121292
0.129383
0.130328
0.12093
0.140075
0.110869
0.150645
0.0985262
0.162152
0.0828823
0.174655
0.062417
0.187959
0.0351114
0.201184
0.207939
0.199751
0.00531986
0.199266
0.0103208
0.198557
0.0151012
0.19763
0.0197403
0.19649
0.0243008
0.195142
0.0288356
0.193592
0.0333913
0.19184
0.0380085
0.18989
0.0427235
0.187743
0.047569
0.185399
0.0525746
0.182858
0.0577681
0.180117
0.0631761
0.177174
0.0688245
0.174021
0.0747399
0.170649
0.0809507
0.167041
0.0874881
0.163175
0.094389
0.159016
0.101698
0.154512
0.109473
0.149589
0.117789
0.144135
0.126746
0.137983
0.136481
0.130873
0.147185
0.122389
0.159128
0.111839
0.172702
0.0979909
0.188503
0.0785075
0.207442
0.0486387
0.231053
0.256577
0.199772
0.00554754
0.19933
0.0107627
0.198684
0.0157476
0.19784
0.0205839
0.196806
0.0253352
0.195587
0.0300553
0.194186
0.0347913
0.19261
0.0395847
0.190862
0.0444722
0.188944
0.049487
0.186859
0.054659
0.18461
0.0600168
0.182199
0.0655876
0.179625
0.0713985
0.176887
0.0774777
0.173982
0.0838559
0.170902
0.0905679
0.167636
0.0976555
0.164163
0.105171
0.160456
0.113181
0.15647
0.121775
0.152138
0.131077
0.147362
0.141257
0.141981
0.152566
0.135732
0.165377
0.128144
0.18029
0.118275
0.198371
0.103875
0.221843
0.0776365
0.257292
0.334214
0.0038291
-0.0038291
0.00748637
-0.00365727
0.0105037
-0.00301737
0.0128549
-0.00235117
0.0146098
-0.0017549
0.0158459
-0.00123609
0.0166315
-0.000785602
0.0170275
-0.00039599
0.0170981
-7.05969e-05
0.0168864
0.000211659
0.0164626
0.000423828
0.0158814
0.000581233
0.0151935
0.000687883
0.0144492
0.000744234
0.0136963
0.000752939
0.0129765
0.000719769
0.0123227
0.000653842
0.0117563
0.000566408
0.0112861
0.000470196
0.0109082
0.000377934
0.0106086
0.000299571
0.0103685
0.00024012
0.0101694
0.000199022
0.00999806
0.000171383
0.00984691
0.000151154
0.00971202
0.000134885
0.00958962
0.000122398
0.00947448
0.000115142
0.00936238
0.000112104
9.28302e-05
0.00355099
-0.00738008
0.00696619
-0.00707247
0.00984837
-0.00589956
0.0121839
-0.00468668
0.0140423
-0.00361332
0.0154948
-0.00268855
0.0166019
-0.00189271
0.0174132
-0.00120726
0.0179585
-0.000615976
0.0182748
-0.000104636
0.0183653
0.000333318
0.0182762
0.000670366
0.0180591
0.000905036
0.0177643
0.00103902
0.01744
0.00107722
0.0171285
0.00103125
0.0168623
0.000920039
0.0166623
0.000766397
0.0165364
0.000596103
0.0164796
0.00043473
0.0164776
0.000301602
0.0165118
0.000205906
0.016565
0.000145863
0.0166251
0.000111214
0.0166867
8.95698e-05
0.0167474
7.42535e-05
0.0168049
6.48899e-05
0.0168558
6.41994e-05
0.016896
7.18649e-05
8.19018e-05
0.00301461
-0.0103947
0.00582268
-0.00988054
0.00815765
-0.00823453
0.010049
-0.00657807
0.0115688
-0.00513303
0.0127755
-0.00389533
0.013717
-0.00283422
0.0144331
-0.0019233
0.0149625
-0.00114537
0.0153467
-0.000488886
0.0156115
6.85665e-05
0.0157392
0.000542657
0.015767
0.000877227
0.015732
0.00107396
0.0156701
0.00113917
0.0156114
0.00108997
0.0155789
0.000952501
0.0155869
0.000758361
0.0156392
0.000543841
0.0157284
0.000345541
0.0158397
0.000190337
0.0159544
9.11098e-05
0.0160562
4.41562e-05
0.0161365
3.08882e-05
0.0161978
2.82636e-05
0.0162475
2.45042e-05
0.0162934
1.90074e-05
0.0163383
1.92949e-05
0.0163779
3.22608e-05
6.53419e-05
0.00242287
-0.0128176
0.00451393
-0.0119716
0.00618062
-0.00990122
0.00751911
-0.00791656
0.00860068
-0.0062146
0.0094686
-0.00476324
0.0101557
-0.0035213
0.0106867
-0.00245431
0.0110854
-0.00154407
0.0113819
-0.00078541
0.0116034
-0.000152939
0.011762
0.000384081
0.0118514
0.000787818
0.0118983
0.00102706
0.0119276
0.00110987
0.0119567
0.00106086
0.0119974
0.000911828
0.0120555
0.000700218
0.012129
0.00047039
0.012206
0.000268495
0.0122722
0.000124171
0.0123132
5.0102e-05
0.0123185
3.88926e-05
0.0122872
6.21867e-05
0.0122283
8.71751e-05
0.0121515
0.000101289
0.0120671
0.00010343
0.0119805
0.000105811
0.0118922
0.000120609
0.000146208
0.00173613
-0.0145537
0.00302781
-0.0132633
0.00395338
-0.0108268
0.00467397
-0.00863715
0.00525113
-0.00679176
0.00571473
-0.00522684
0.00608709
-0.00389367
0.00638113
-0.00274834
0.00660719
-0.00177014
0.00678109
-0.000959311
0.00694111
-0.000312957
0.00707305
0.000252144
0.00713519
0.000725673
0.00716348
0.000998772
0.00717264
0.00110071
0.00716703
0.00106648
0.00714737
0.000931492
0.00711317
0.000734412
0.0070612
0.000522358
0.00698028
0.000349419
0.00686422
0.000240233
0.00670815
0.000206172
0.00650883
0.000238208
0.00626243
0.000308592
0.00597654
0.000373057
0.00566553
0.0004123
0.00534351
0.000425454
0.00502124
0.000428076
0.00471555
0.000426303
0.000378019
0.000954895
-0.0155086
0.00135933
-0.0136677
0.00149464
-0.0109621
0.00154741
-0.00868992
0.00155079
-0.00679515
0.00153351
-0.00520955
0.00151107
-0.00387123
0.0014954
-0.00273267
0.00149666
-0.00177139
0.00152907
-0.000991719
0.00155581
-0.000339698
0.00153766
0.000270296
0.00147025
0.000793079
0.00135775
0.00111127
0.00119941
0.00125905
0.000980553
0.00128533
0.000688565
0.00122348
0.000319403
0.00110357
-0.000110809
0.00095257
-0.000568057
0.000806667
-0.00102723
0.000699408
-0.00146373
0.000642671
-0.0018584
0.000632878
-0.00220646
0.000656654
-0.00251849
0.00068508
-0.00280619
0.000700004
-0.00308038
0.000699643
-0.00334313
0.000690823
-0.00357957
0.000662749
0.000582553
-1.50053e-05
-0.0154936
-0.000497796
-0.0131849
-0.00117288
-0.010287
-0.00185381
-0.008009
-0.00250629
-0.00614266
-0.00309866
-0.00461719
-0.00361327
-0.00335661
-0.00404772
-0.00229822
-0.0044306
-0.00138852
-0.00482512
-0.0005972
-0.00524909
8.42747e-05
-0.00559879
0.000619999
-0.00582914
0.00102343
-0.00605546
0.0013376
-0.00632544
0.00152903
-0.00664737
0.00160726
-0.00701718
0.00159329
-0.00742419
0.00151058
-0.00785777
0.00138615
-0.00830454
0.00125344
-0.00874705
0.00114191
-0.0091683
0.00106392
-0.00955188
0.00101645
-0.00988258
0.000987363
-0.0101584
0.000960905
-0.0103878
0.000929392
-0.0105838
0.000895607
-0.0107547
0.000861731
-0.0109044
0.000812461
0.000747378
-0.000977234
-0.0145163
-0.00248323
-0.0116789
-0.00403212
-0.00873812
-0.00553195
-0.00650917
-0.00690921
-0.00476539
-0.00814469
-0.00338171
-0.00923027
-0.00227103
-0.0101682
-0.00136026
-0.0109784
-0.000578355
-0.0116608
8.51979e-05
-0.0121626
0.00058607
-0.0125284
0.000985808
-0.0128424
0.00133745
-0.0131239
0.00161906
-0.0134053
0.00181049
-0.0137054
0.00190732
-0.0140285
0.00191642
-0.0143724
0.0018545
-0.0147344
0.00174813
-0.0151102
0.00162919
-0.0154911
0.0015228
-0.0158638
0.00143668
-0.0162103
0.00136295
-0.0165112
0.00128828
-0.0167556
0.00120523
-0.0169456
0.00111941
-0.0170936
0.00104364
-0.0172139
0.000982049
-0.0173249
0.000923453
0.000878531
-0.00210296
-0.0124134
-0.00463361
-0.00914827
-0.00714526
-0.00622647
-0.00946399
-0.00419044
-0.011506
-0.00272343
-0.0132628
-0.00162491
-0.0147495
-0.000784293
-0.0159877
-0.000122032
-0.0169549
0.000388859
-0.0176543
0.00078458
-0.0181877
0.00111948
-0.0186265
0.00142461
-0.0189848
0.00169575
-0.0192875
0.00192172
-0.0195647
0.00208773
-0.0198388
0.00218143
-0.0201203
0.00219785
-0.0204118
0.00214605
-0.0207148
0.00205107
-0.0210303
0.00194473
-0.0213566
0.00184909
-0.0216849
0.00176505
-0.0219979
0.00167591
-0.0222731
0.00156351
-0.0224939
0.00142602
-0.022658
0.00128352
-0.0227773
0.00116294
-0.0228702
0.00107495
-0.0229597
0.00101289
0.00098494
-0.00344325
-0.00897014
-0.00713523
-0.00545629
-0.0106526
-0.00270906
-0.0137444
-0.00109873
-0.0163571
-0.000110726
-0.0184477
0.000465724
-0.0200516
0.000819599
-0.0212491
0.0010755
-0.0221534
0.00129312
-0.022872
0.00150318
-0.0234578
0.00170533
-0.0239306
0.00189737
-0.0243092
0.00207438
-0.0246196
0.00223216
-0.0248925
0.0023606
-0.0251519
0.00244081
-0.0254091
0.00245503
-0.0256666
0.00240353
-0.0259266
0.00231113
-0.0261954
0.00221346
-0.0264784
0.00213211
-0.0267728
0.00205949
-0.0270623
0.0019654
-0.0273206
0.00182178
-0.0275244
0.00162989
-0.0276677
0.00142674
-0.0277638
0.00125907
-0.0278362
0.00114736
-0.0279083
0.001085
0.00106989
-0.00530365
-0.00366649
-0.0108452
8.52956e-05
-0.0152459
0.00169165
-0.0186402
0.00229553
-0.021181
0.00243011
-0.0231039
0.00238856
-0.024607
0.00232268
-0.0257958
0.00226434
-0.0267382
0.0022355
-0.0274876
0.00225259
-0.02809
0.00230773
-0.0285717
0.00237904
-0.0289517
0.00245436
-0.0292567
0.00253724
-0.029521
0.00262483
-0.0297707
0.00269056
-0.0300148
0.00269906
-0.0302501
0.0026389
-0.030477
0.00253798
-0.0307065
0.00244297
-0.0309538
0.00237945
-0.0312236
0.00232928
-0.0315002
0.00224197
-0.0317509
0.00207247
-0.0319432
0.0018222
-0.0320663
0.00154981
-0.0321382
0.00133098
-0.0321901
0.00119927
-0.0322454
0.00114028
0.00113502
-0.00794185
0.00427536
-0.0144011
0.0065445
-0.0190886
0.00637915
-0.0225888
0.00579574
-0.0252284
0.00506978
-0.0272281
0.00438823
-0.028759
0.00385357
-0.0299462
0.00345151
-0.0308688
0.00315814
-0.0315944
0.00297822
-0.0321783
0.00289166
-0.0326466
0.00284729
-0.03301
0.00281773
-0.0332936
0.00282084
-0.0335393
0.00287057
-0.0337794
0.00293069
-0.0340175
0.0029371
-0.0342385
0.00285993
-0.0344361
0.00273555
-0.0346275
0.00263437
-0.0348417
0.00259371
-0.0350938
0.00258139
-0.0353681
0.00251629
-0.0356217
0.00232602
-0.0358077
0.00200821
-0.0359086
0.00165066
-0.0359505
0.00137289
-0.0359782
0.00122699
-0.0360165
0.00117855
0.00118193
-0.00994561
0.014221
-0.0176689
0.0142678
-0.0230387
0.0117489
-0.026736
0.00949312
-0.0293666
0.00770039
-0.0312565
0.00627808
-0.0326702
0.00526729
-0.0337644
0.00454572
-0.0345988
0.00399256
-0.035244
0.00362333
-0.0357738
0.00342147
-0.036211
0.00328456
-0.0365424
0.00314908
-0.0367844
0.0030628
-0.0369957
0.00308192
-0.0372233
0.00315826
-0.0374626
0.00317642
-0.0376763
0.00307365
-0.0378439
0.00290312
-0.0379911
0.00278153
-0.038169
0.00277163
-0.0384082
0.00282066
-0.0386921
0.0028001
-0.0389613
0.00259532
-0.0391473
0.00219418
-0.0392211
0.00172446
-0.039222
0.00137375
-0.0392186
0.00122361
-0.0392407
0.0012007
0.00121358
-0.0131911
0.0274121
-0.0227373
0.023814
-0.0281345
0.0171461
-0.0314001
0.0127587
-0.0337152
0.0100155
-0.0352441
0.00780702
-0.0363487
0.00637191
-0.0372567
0.00545371
-0.037942
0.00467786
-0.0384465
0.00412776
-0.0388871
0.00386214
-0.0392878
0.00368521
-0.0395777
0.00343903
-0.03975
0.00323505
-0.0399003
0.00323223
-0.0401102
0.00336815
-0.0403631
0.0034293
-0.0405802
0.00329083
-0.0407133
0.00303621
-0.0408007
0.00286895
-0.0409315
0.00290236
-0.0411609
0.00305007
-0.0414684
0.00310764
-0.0417705
0.00289738
-0.0419649
0.00238859
-0.0420034
0.00176302
-0.0419445
0.00131481
-0.0418986
0.00117768
-0.0419086
0.00121076
0.00123783
-0.0187786
0.0461907
-0.0303591
0.0353945
-0.0350813
0.0218683
-0.0366777
0.0143551
-0.0383435
0.0116813
-0.0391324
0.00859585
-0.0396494
0.00688893
-0.0403621
0.00616648
-0.0409147
0.00523044
-0.0411994
0.00441245
-0.0414918
0.00415455
-0.0418595
0.00405294
-0.0421088
0.00368834
-0.0421734
0.00329957
-0.0422189
0.00327774
-0.0424074
0.0035567
-0.0427001
0.00372194
-0.0429417
0.00353246
-0.0430307
0.00312524
-0.0430266
0.00286483
-0.0430864
0.00296215
-0.0433062
0.00326985
-0.0436552
0.00345664
-0.0440127
0.0032549
-0.0442275
0.00260338
-0.044218
0.00175351
-0.044068
0.00116478
-0.04396
0.00106973
-0.043968
0.00121878
0.00127473
0.207447
0.0057603
0.207034
0.0111752
0.206432
0.0163502
0.205647
0.0213683
0.204688
0.0262943
0.203561
0.0311827
0.202271
0.0360807
0.200826
0.0410303
0.199229
0.0460685
0.197488
0.0512282
0.195607
0.0565398
0.193593
0.0620316
0.191449
0.067731
0.189182
0.0736654
0.186797
0.0798634
0.184296
0.0863561
0.181685
0.0931797
0.178963
0.100377
0.176132
0.108002
0.173189
0.116124
0.17013
0.124834
0.166951
0.134256
0.163645
0.144563
0.160215
0.155996
0.156682
0.16891
0.153138
0.183834
0.149947
0.201563
0.148778
0.223011
0.1604
0.24567
0.258892
0.235721
0.21249
0.00595271
0.212118
0.0115481
0.211574
0.0168937
0.210868
0.0220741
0.210008
0.0271547
0.209
0.0321901
0.207853
0.0372277
0.206574
0.0423094
0.205171
0.047472
0.203651
0.0527481
0.202023
0.0581677
0.200296
0.0637584
0.19848
0.069547
0.196586
0.07556
0.194624
0.081825
0.192608
0.088372
0.190553
0.0952352
0.188475
0.102455
0.186396
0.110081
0.184345
0.118175
0.182361
0.126818
0.180505
0.136112
0.178877
0.146191
0.177646
0.157227
0.177135
0.169422
0.177994
0.182974
0.181638
0.197919
0.190662
0.213987
0.206071
0.230261
0.245826
0.219138
0.217658
0.00612263
0.217329
0.011877
0.21685
0.0173723
0.21623
0.0226938
0.215478
0.0279071
0.214602
0.0330666
0.213609
0.0382198
0.212511
0.043408
0.211316
0.0486672
0.210034
0.0540296
0.208678
0.0595238
0.20726
0.0651764
0.205795
0.0710125
0.204298
0.0770569
0.202788
0.0833347
0.201287
0.0898728
0.199822
0.0967007
0.198424
0.103853
0.197136
0.111369
0.196013
0.119298
0.195134
0.127697
0.194612
0.136634
0.194616
0.146187
0.19541
0.156433
0.197403
0.167429
0.201205
0.179172
0.207587
0.191537
0.217211
0.204364
0.229803
0.217669
0.228878
0.246751
0.222951
0.00626807
0.22267
0.0121583
0.222262
0.0177805
0.221736
0.02322
0.2211
0.0285425
0.220365
0.0338021
0.219539
0.0390453
0.218634
0.0443129
0.217662
0.0496398
0.216635
0.0550567
0.215567
0.060591
0.214476
0.0662673
0.213381
0.0721084
0.212301
0.0781361
0.211264
0.0843719
0.210299
0.0908377
0.209443
0.0975567
0.208742
0.104554
0.208254
0.111857
0.208055
0.119496
0.208249
0.127503
0.208975
0.135908
0.210426
0.144736
0.212867
0.153993
0.216642
0.163653
0.222173
0.173641
0.22991
0.183801
0.240426
0.193848
0.25464
0.203455
0.210371
0.273147
0.228374
0.00638717
0.228144
0.0123883
0.227812
0.0181129
0.227386
0.0236462
0.226875
0.0290532
0.22629
0.0343871
0.225641
0.0396938
0.224942
0.0450124
0.224205
0.0503769
0.223445
0.0558161
0.222681
0.0613554
0.221932
0.0670167
0.22122
0.0728201
0.220572
0.0787836
0.22002
0.0849239
0.219601
0.0912571
0.219359
0.0977984
0.219351
0.104562
0.219645
0.111563
0.22033
0.118811
0.221518
0.126315
0.223355
0.134071
0.226026
0.142065
0.229761
0.150258
0.23484
0.158574
0.241593
0.166887
0.2504
0.174994
0.261707
0.182541
0.275989
0.189173
0.193804
0.292556
0.233929
0.00647824
0.233754
0.0125637
0.233502
0.0183651
0.233182
0.0239665
0.232803
0.0294319
0.232376
0.0348136
0.231914
0.040156
0.23143
0.0454968
0.230939
0.0508682
0.230458
0.056297
0.230007
0.0618059
0.22961
0.0674143
0.229291
0.0731385
0.229082
0.0789923
0.229019
0.0849871
0.229144
0.0911325
0.229507
0.0974352
0.23017
0.1039
0.231207
0.110526
0.23271
0.117309
0.23479
0.124235
0.237583
0.131278
0.241254
0.138395
0.245994
0.145517
0.252026
0.152542
0.25959
0.159322
0.268931
0.165653
0.280228
0.171244
0.293578
0.175823
0.178876
0.308506
0.23962
0.0065398
0.239502
0.0126818
0.239334
0.0185328
0.239125
0.0241755
0.238884
0.0296725
0.238623
0.0350745
0.238355
0.0404244
0.238094
0.0457582
0.237856
0.0511057
0.237662
0.0564916
0.237532
0.0619358
0.237492
0.0674544
0.23757
0.0730601
0.2378
0.078762
0.238221
0.0845663
0.238878
0.0904757
0.239824
0.0964893
0.241122
0.102602
0.242847
0.108801
0.245086
0.11507
0.247942
0.121378
0.251535
0.127684
0.256001
0.133929
0.26149
0.140029
0.268157
0.145875
0.276154
0.151326
0.285601
0.156206
0.296544
0.160301
0.308973
0.163394
0.165218
0.322631
0.245448
0.00657058
0.24539
0.01274
0.24531
0.0186127
0.245217
0.024269
0.245119
0.0297699
0.245029
0.0351645
0.24496
0.0404934
0.244928
0.0457908
0.244949
0.0510841
0.245045
0.0563954
0.245239
0.0617419
0.245557
0.0671362
0.24603
0.0725872
0.246693
0.0780995
0.247585
0.0836742
0.248753
0.0893079
0.250249
0.0949927
0.252136
0.100715
0.254482
0.106455
0.257368
0.112184
0.260883
0.117863
0.265126
0.123442
0.270201
0.128854
0.276214
0.134015
0.283267
0.138822
0.291441
0.143152
0.300782
0.146865
0.311281
0.149802
0.322871
0.151805
0.152741
0.335348
0.251418
0.00656956
0.251422
0.0127365
0.251432
0.0186019
0.251458
0.0242437
0.251507
0.0297206
0.251592
0.0350795
0.251726
0.0403592
0.251926
0.0455913
0.252209
0.050801
0.252597
0.0560076
0.253113
0.0612253
0.253786
0.0664637
0.254645
0.0717276
0.255727
0.0770179
0.25707
0.0823308
0.25872
0.0876579
0.260728
0.0929856
0.263148
0.0982944
0.266045
0.103558
0.269487
0.108742
0.273547
0.113803
0.278301
0.118688
0.283825
0.12333
0.290188
0.127652
0.297447
0.131563
0.305636
0.134963
0.314758
0.137743
0.324767
0.139794
0.335563
0.141009
0.141328
0.346976
0.257532
0.006536
0.257599
0.0126698
0.257702
0.0184985
0.257849
0.0240972
0.258047
0.029522
0.25831
0.0348174
0.258649
0.04002
0.259081
0.0451589
0.259625
0.0502568
0.260303
0.0553304
0.261137
0.060391
0.262155
0.0654451
0.263389
0.0704943
0.264871
0.0755357
0.26664
0.0805619
0.268738
0.0855603
0.27121
0.0905133
0.274107
0.0953974
0.277482
0.100183
0.281391
0.104833
0.28589
0.109304
0.291035
0.113543
0.296876
0.117489
0.303453
0.121075
0.31079
0.124226
0.318889
0.126863
0.327724
0.128909
0.337229
0.130288
0.347301
0.130937
0.130832
0.357797
0.263794
0.00646943
0.263925
0.012539
0.264122
0.0183015
0.264391
0.0238284
0.26474
0.0291731
0.265179
0.0343777
0.265723
0.0394761
0.266387
0.0444951
0.267189
0.0494548
0.26815
0.0543694
0.269293
0.0592475
0.270646
0.0640929
0.272236
0.0689043
0.274095
0.073676
0.27626
0.0783975
0.278766
0.0830536
0.281656
0.087624
0.28497
0.0920834
0.288752
0.0964009
0.293045
0.10054
0.297891
0.104458
0.303325
0.108108
0.309377
0.111437
0.316064
0.114388
0.323388
0.116902
0.331329
0.118922
0.339845
0.120393
0.348865
0.121268
0.358292
0.12151
0.121119
0.368005
0.270207
0.00636967
0.270402
0.0123439
0.270693
0.0180106
0.271084
0.0234372
0.271583
0.0286744
0.272199
0.0337615
0.272945
0.0387298
0.273837
0.0436037
0.274891
0.0484009
0.276127
0.0531331
0.277568
0.0578067
0.279238
0.0624229
0.281164
0.0669784
0.283374
0.0714652
0.285901
0.0758709
0.288776
0.0801786
0.292033
0.0843669
0.295706
0.0884103
0.299829
0.0922784
0.304432
0.095937
0.309542
0.0993478
0.315181
0.102469
0.32136
0.105257
0.328081
0.107667
0.335328
0.109655
0.343072
0.111178
0.351263
0.112203
0.35983
0.112701
0.368686
0.112654
0.112076
0.377729
0.276774
0.00623682
0.277033
0.0120847
0.277417
0.0176261
0.27793
0.0229246
0.278577
0.0280275
0.279367
0.0329715
0.280311
0.0377853
0.281424
0.0424908
0.282722
0.0471034
0.284222
0.0516327
0.285946
0.0560831
0.287915
0.0604539
0.290153
0.0647401
0.292686
0.0689322
0.29554
0.0730169
0.298742
0.0769766
0.302319
0.0807903
0.306296
0.084433
0.310698
0.0878768
0.315544
0.0910909
0.32085
0.0940419
0.326624
0.0966951
0.332866
0.0990156
0.339564
0.100969
0.346696
0.102523
0.354223
0.103651
0.362095
0.104331
0.370246
0.10455
0.378597
0.104303
0.103608
0.387066
0.283498
0.00607127
0.283821
0.0117622
0.284297
0.0171496
0.284929
0.0222927
0.285721
0.0272356
0.286681
0.0320121
0.287817
0.0366484
0.289144
0.0411641
0.290675
0.0455726
0.292426
0.0498814
0.294416
0.0540933
0.296663
0.0582064
0.299189
0.0622143
0.302014
0.066107
0.30516
0.0698708
0.308649
0.0734885
0.312499
0.0769401
0.316729
0.0802026
0.321355
0.0832511
0.326387
0.0860588
0.331831
0.088598
0.337685
0.0908408
0.34394
0.0927603
0.350578
0.0943314
0.357568
0.0955326
0.364873
0.0963469
0.37244
0.0967634
0.380212
0.0967782
0.388119
0.0963948
0.0956336
0.396093
0.290384
0.00587365
0.290768
0.0113776
0.291335
0.016583
0.292083
0.0215444
0.293016
0.0263027
0.29414
0.0308889
0.295461
0.0353266
0.296992
0.0396334
0.298744
0.0438205
0.300731
0.0478942
0.302969
0.0518558
0.305473
0.0557023
0.30826
0.0594271
0.311347
0.0630198
0.314751
0.0664672
0.318486
0.0697531
0.322567
0.0728591
0.327005
0.0757651
0.331807
0.0784493
0.336976
0.0808895
0.34251
0.0830634
0.348402
0.0849495
0.354634
0.0865279
0.361184
0.0877815
0.36802
0.0886967
0.375102
0.0892646
0.382384
0.0894815
0.389813
0.08935
0.397329
0.0888782
0.0880874
0.404875
0.297435
0.00564483
0.297879
0.0109328
0.298533
0.0159289
0.299394
0.0206836
0.300463
0.025234
0.301743
0.0296085
0.303241
0.0338285
0.304966
0.0379092
0.306926
0.0418605
0.309133
0.0456871
0.311599
0.0493896
0.314337
0.0529643
0.317359
0.0564046
0.320679
0.0597003
0.324307
0.0628392
0.328253
0.0658067
0.332526
0.0685865
0.33713
0.0711612
0.342066
0.0735128
0.347332
0.0756235
0.35292
0.0774759
0.358816
0.079054
0.364999
0.0803443
0.371445
0.0813357
0.378121
0.082021
0.384988
0.0823969
0.392005
0.0824649
0.399123
0.0822314
0.406294
0.0817072
0.0809132
0.413469
0.304654
0.00538587
0.305157
0.0104297
0.305895
0.0151907
0.306864
0.0197147
0.308063
0.0240355
0.309492
0.0281788
0.311157
0.0321636
0.313063
0.0360034
0.315217
0.0397066
0.317627
0.043277
0.320303
0.0467142
0.323252
0.0500148
0.326485
0.053172
0.330008
0.0561767
0.33383
0.0590177
0.337954
0.0616823
0.342384
0.0641565
0.347119
0.066426
0.352156
0.0684763
0.357486
0.0702935
0.363097
0.0718647
0.368972
0.0731788
0.375089
0.0742271
0.381422
0.0750035
0.387937
0.0755054
0.394601
0.0757335
0.401373
0.0756926
0.408213
0.0753914
0.415078
0.074842
0.074064
0.421927
0.312046
0.005098
0.312605
0.00987092
0.313424
0.014372
0.314496
0.0186427
0.315817
0.0227137
0.317388
0.0266078
0.31921
0.030342
0.321285
0.0339282
0.323619
0.0373733
0.326215
0.0406804
0.32908
0.043849
0.33222
0.0468754
0.335638
0.0497535
0.33934
0.0524752
0.343327
0.0550307
0.3476
0.0574092
0.352157
0.0595993
0.356994
0.0615894
0.362102
0.0633682
0.36747
0.0649254
0.373083
0.066252
0.378921
0.0673409
0.384961
0.0681872
0.391176
0.0687885
0.397536
0.0691454
0.404008
0.0692615
0.410557
0.0691436
0.417147
0.0688014
0.423742
0.0682473
0.0674994
0.430306
0.319615
0.00478253
0.320227
0.00925891
0.321122
0.0134767
0.322292
0.0174731
0.32373
0.0212755
0.325434
0.0249042
0.327401
0.0283742
0.329634
0.0316958
0.332132
0.0348749
0.334899
0.037914
0.337935
0.0408123
0.341244
0.0435665
0.344827
0.0461712
0.348682
0.0486194
0.35281
0.0509029
0.357206
0.0530128
0.361866
0.05494
0.36678
0.0566754
0.371937
0.0582107
0.377324
0.0595387
0.382922
0.0606536
0.388712
0.0615512
0.394669
0.0622298
0.400768
0.0626895
0.40698
0.0629333
0.413276
0.0629664
0.419622
0.0627967
0.425989
0.0624343
0.432345
0.0618913
0.061184
0.438661
0.327365
0.00444082
0.328027
0.0085964
0.328995
0.0125089
0.330257
0.0162114
0.331805
0.019728
0.333632
0.0230767
0.335736
0.0262706
0.338113
0.0293184
0.340763
0.0322253
0.343683
0.0349932
0.346874
0.0376213
0.350334
0.0401069
0.35406
0.0424452
0.358049
0.0446304
0.362296
0.0466558
0.366795
0.0485144
0.371536
0.050199
0.376508
0.0517031
0.381698
0.0530208
0.387089
0.0541473
0.392663
0.0550794
0.398399
0.0558154
0.404273
0.0563554
0.410261
0.0567018
0.416336
0.0568587
0.42247
0.0568325
0.428635