/*--------------------------------*- C++ -*----------------------------------*\
  =========                 |
  \\      /  F ield         | OpenFOAM: The Open Source CFD Toolbox
   \\    /   O peration     | Website:  https://openfoam.org
    \\  /    A nd           | Version:  dev
     \\/     M anipulation  |
\*---------------------------------------------------------------------------*/
FoamFile
{
    version     2.0;
    format      ascii;
    class       surfaceVectorField;
    location    "8.4";
    object      Uf;
}
// * * * * * * * * * * * * * * * * * * * * * * * * * * * * * * * * * * * * * //

dimensions      [0 1 -1 0 0 0 0];

internalField   nonuniform List<vector> 
5457
(
(9.92088 0 0.0251098)
(9.97125 0 0.0387461)
(9.82401 0 0.0328272)
(9.92859 0 0.0485858)
(9.70961 0 0.0393126)
(9.85547 0 0.0587691)
(9.57543 0 0.0460124)
(9.7568 0 0.0705948)
(9.42137 0 0.05295)
(9.63752 0 0.0830153)
(9.24753 0 0.0601676)
(9.4986 0 0.0959389)
(9.0536 0 0.0678127)
(9.33929 0 0.109616)
(8.8389 0 0.0760367)
(9.15872 0 0.124293)
(8.60249 0 0.0849728)
(8.95607 0 0.140172)
(8.34322 0 0.094748)
(8.73035 0 0.157439)
(8.0598 0 0.105491)
(8.48036 0 0.176276)
(7.75074 0 0.117332)
(8.20472 0 0.196864)
(7.41449 0 0.1304)
(7.90188 0 0.21937)
(7.04941 0 0.144816)
(7.57023 0 0.243933)
(6.65393 0 0.160679)
(7.20809 0 0.270644)
(6.2266 0 0.178051)
(6.81389 0 0.299512)
(5.7663 0 0.196935)
(6.38621 0 0.330426)
(5.27244 0 0.21724)
(5.92404 0 0.363096)
(4.74523 0 0.238743)
(5.42696 0 0.396987)
(4.18605 0 0.261038)
(4.8955 0 0.431247)
(3.59781 0 0.283493)
(4.33148 0 0.464627)
(2.9854 0 0.305205)
(3.73844 0 0.495429)
(2.35596 0 0.32507)
(3.12211 0 0.521513)
(1.71896 0 0.342546)
(2.49091 0 0.540553)
(1.08421 0 0.361879)
(1.85571 0 0.551665)
(0.451706 0 0.348649)
(1.24535 0 0.563013)
(-0.145919 0 0.102416)
(0.608769 0 0.544835)
(-0.423649 0 -0.207099)
(0.0946194 0 0.259322)
(-0.402166 0 -0.361243)
(-0.133743 0 -0.0205449)
(-0.119682 0 -0.393896)
(9.99641 0 0.0516731)
(9.99705 0 0.0405052)
(9.95879 0 0.0708627)
(9.97851 0 0.0674557)
(9.89824 0 0.0879886)
(9.93377 0 0.0898719)
(9.81658 0 0.105987)
(9.86453 0 0.113558)
(9.71358 0 0.124925)
(9.77437 0 0.138518)
(9.58907 0 0.144858)
(9.66434 0 0.164651)
(9.44272 0 0.166095)
(9.53395 0 0.192338)
(9.27388 0 0.188973)
(9.38248 0 0.222038)
(9.08163 0 0.21379)
(9.20916 0 0.254158)
(8.86486 0 0.240824)
(9.01312 0 0.289075)
(8.62225 0 0.270347)
(8.79327 0 0.327166)
(8.35233 0 0.302619)
(8.5483 0 0.368802)
(8.05348 0 0.337871)
(8.27677 0 0.414334)
(7.72403 0 0.376278)
(7.97709 0 0.464066)
(7.36227 0 0.417919)
(7.64762 0 0.518211)
(6.96661 0 0.462725)
(7.28672 0 0.57683)
(6.5357 0 0.510404)
(6.89283 0 0.63975)
(6.06869 0 0.56035)
(6.46468 0 0.706452)
(5.56544 0 0.611536)
(6.00145 0 0.775932)
(5.02694 0 0.662397)
(5.5031 0 0.846544)
(4.45571 0 0.710717)
(4.97073 0 0.915822)
(3.85633 0 0.753543)
(4.40702 0 0.980315)
(3.23603 0 0.787192)
(3.81687 0 1.03546)
(2.60566 0 0.80749)
(3.20829 0 1.07548)
(1.98265 0 0.810449)
(2.59324 0 1.09313)
(1.40517 0 0.776865)
(1.99607 0 1.07705)
(0.929642 0 0.646354)
(1.41938 0 0.978354)
(0.439753 0 0.384275)
(0.937488 0 0.716741)
(0.0591222 0 -0.118668)
(0.443698 0 0.343455)
(0.174902 0 -0.33599)
(9.98903 0 0.059432)
(9.99481 0 0.0458784)
(9.95434 0 0.0894785)
(9.97368 0 0.084856)
(9.89729 0 0.118035)
(9.92984 0 0.119177)
(9.82046 0 0.147902)
(9.86357 0 0.15398)
(9.72415 0 0.179427)
(9.77735 0 0.190414)
(9.6082 0 0.212782)
(9.67226 0 0.228644)
(9.47233 0 0.248401)
(9.54808 0 0.269138)
(9.31605 0 0.286784)
(9.4043 0 0.312507)
(9.13865 0 0.328409)
(9.24032 0 0.359339)
(8.93921 0 0.373736)
(9.05546 0 0.41019)
(8.7166 0 0.423222)
(8.84885 0 0.465616)
(8.46954 0 0.477314)
(8.61946 0 0.526173)
(8.19661 0 0.536419)
(8.36609 0 0.592396)
(7.89624 0 0.600864)
(8.08744 0 0.664763)
(7.56682 0 0.670834)
(7.78211 0 0.743646)
(7.20673 0 0.746281)
(7.44863 0 0.829219)
(6.81444 0 0.826807)
(7.08557 0 0.921349)
(6.38874 0 0.911506)
(6.69158 0 1.01943)
(5.92889 0 0.998779)
(6.26558 0 1.1222)
(5.43499 0 1.08611)
(5.80697 0 1.22745)
(4.90839 0 1.16984)
(5.31592 0 1.33176)
(4.35227 0 1.2449)
(4.79381 0 1.4302)
(3.77243 0 1.30454)
(4.24381 0 1.51588)
(3.17858 0 1.33982)
(3.67165 0 1.57941)
(2.58649 0 1.33809)
(3.08618 0 1.60772)
(2.01974 0 1.27292)
(2.50279 0 1.58153)
(1.48684 0 1.09535)
(1.92863 0 1.46418)
(0.958227 0 0.769097)
(1.38517 0 1.21032)
(0.479836 0 0.202359)
(0.829487 0 0.800943)
(0.433704 0 0.13398)
(9.98515 0 0.0716154)
(9.99367 0 0.053149)
(9.95039 0 0.113633)
(9.97087 0 0.102293)
(9.89436 0 0.154137)
(9.9269 0 0.147957)
(9.81882 0 0.195579)
(9.86185 0 0.193727)
(9.72441 0 0.238818)
(9.77745 0 0.241284)
(9.61111 0 0.284333)
(9.67466 0 0.291172)
(9.47872 0 0.332732)
(9.55341 0 0.343967)
(9.32692 0 0.384688)
(9.41334 0 0.400386)
(9.1552 0 0.440863)
(9.25398 0 0.461156)
(8.96287 0 0.501903)
(9.0748 0 0.526981)
(8.74912 0 0.56845)
(8.87516 0 0.598559)
(8.51298 0 0.641137)
(8.65425 0 0.676589)
(8.25339 0 0.720558)
(8.41116 0 0.761751)
(7.96918 0 0.80722)
(8.14492 0 0.85467)
(7.65908 0 0.90147)
(7.85446 0 0.955855)
(7.32182 0 1.00338)
(7.53865 0 1.06561)
(6.95609 0 1.11261)
(7.19635 0 1.18389)
(6.56071 0 1.22817)
(6.82641 0 1.31012)
(6.13475 0 1.3482)
(6.42775 0 1.44295)
(5.67769 0 1.46962)
(5.99952 0 1.57993)
(5.18984 0 1.58779)
(5.54118 0 1.7171)
(4.6727 0 1.69603)
(5.05289 0 1.84855)
(4.12964 0 1.78514)
(4.5358 0 1.96583)
(3.5665 0 1.8425)
(3.99257 0 2.05728)
(2.99191 0 1.85068)
(3.42745 0 2.1071)
(2.41572 0 1.78242)
(2.8475 0 2.09442)
(1.84045 0 1.60037)
(2.25612 0 1.98864)
(1.25932 0 1.27832)
(1.66023 0 1.75293)
(0.666741 0 0.789425)
(1.02391 0 1.36763)
(0.523015 0 0.787011)
(9.98337 0 0.0844093)
(9.99316 0 0.0612928)
(9.94821 0 0.13684)
(9.96958 0 0.11993)
(9.89314 0 0.188037)
(9.92574 0 0.176244)
(9.81906 0 0.240175)
(9.86199 0 0.232704)
(9.72662 0 0.294476)
(9.77963 0 0.291095)
(9.61589 0 0.35167)
(9.67939 0 0.352284)
(9.48669 0 0.412483)
(9.56126 0 0.41699)
(9.33876 0 0.477692)
(9.42495 0 0.486024)
(9.17168 0 0.54807)
(9.27007 0 0.560224)
(8.98489 0 0.624377)
(9.09617 0 0.640409)
(8.77774 0 0.70737)
(8.9027 0 0.727394)
(8.54948 0 0.797794)
(8.68902 0 0.821987)
(8.29929 0 0.896359)
(8.45438 0 0.924976)
(8.02627 0 1.00369)
(8.198 0 1.03709)
(7.72948 0 1.12024)
(7.91904 0 1.15896)
(7.40795 0 1.24621)
(7.61659 0 1.29097)
(7.06065 0 1.38131)
(7.28974 0 1.43319)
(6.68656 0 1.52463)
(6.9375 0 1.58515)
(6.28471 0 1.67423)
(6.55885 0 1.74555)
(5.85423 0 1.82682)
(6.15272 0 1.91192)
(5.39454 0 1.97727)
(5.71806 0 2.08019)
(4.90558 0 2.11806)
(5.25391 0 2.2441)
(4.38808 0 2.23859)
(4.75956 0 2.3946)
(3.84378 0 2.32451)
(4.23478 0 2.51917)
(3.27529 0 2.35689)
(3.67972 0 2.60118)
(2.68526 0 2.3105)
(3.09557 0 2.61962)
(2.07258 0 2.15489)
(2.48156 0 2.5472)
(1.4293 0 1.86726)
(1.83982 0 2.35357)
(0.742573 0 1.41941)
(1.1313 0 2.02435)
(0.543279 0 1.51432)
(9.98264 0 0.0974998)
(9.99299 0 0.0697943)
(9.94744 0 0.159778)
(9.96925 0 0.137586)
(9.89354 0 0.221353)
(9.92597 0 0.203931)
(9.82133 0 0.284099)
(9.8638 0 0.270695)
(9.73133 0 0.349357)
(9.78385 0 0.339591)
(9.62366 0 0.418031)
(9.68664 0 0.411709)
(9.49817 0 0.490953)
(9.57217 0 0.487917)
(9.35463 0 0.568993)
(9.4402 0 0.569122)
(9.19266 0 0.653027)
(9.29041 0 0.656256)
(9.0118 0 0.743924)
(9.12239 0 0.75024)
(8.81147 0 0.842548)
(8.93568 0 0.851988)
(8.59103 0 0.949745)
(8.72968 0 0.962403)
(8.34979 0 1.06632)
(8.50376 0 1.08236)
(8.08698 0 1.19301)
(8.25721 0 1.21269)
(7.80183 0 1.33035)
(7.98929 0 1.3541)
(7.49349 0 1.47865)
(7.6992 0 1.50708)
(7.16107 0 1.63774)
(7.38606 0 1.67182)
(6.80359 0 1.8068)
(7.0489 0 1.84798)
(6.41996 0 1.98402)
(6.68661 0 2.03442)
(6.00897 0 2.16618)
(6.29785 0 2.22889)
(5.56923 0 2.34813)
(5.88102 0 2.42752)
(5.09928 0 2.52222)
(5.43416 0 2.62428)
(4.59756 0 2.67755)
(4.95492 0 2.8103)
(4.06252 0 2.79945)
(4.44065 0 2.9732)
(3.49253 0 2.86903)
(3.88833 0 3.09656)
(2.88568 0 2.86281)
(3.29506 0 3.1598)
(2.23789 0 2.75378)
(2.65675 0 3.13777)
(1.54235 0 2.52085)
(1.97472 0 3.00301)
(0.793602 0 2.13114)
(1.20717 0 2.74039)
(0.556703 0 2.2916)
(9.9825 0 0.110629)
(9.99302 0 0.0783631)
(9.9477 0 0.182328)
(9.96954 0 0.15504)
(9.89522 0 0.253823)
(9.92722 0 0.230891)
(9.82524 0 0.326775)
(9.86696 0 0.307516)
(9.73812 0 0.402565)
(9.78977 0 0.386532)
(9.63402 0 0.482247)
(9.69605 0 0.469161)
(9.51284 0 0.566774)
(9.58578 0 0.556413)
(9.37436 0 0.657114)
(9.45878 0 0.649291)
(9.21826 0 0.754239)
(9.31479 0 0.748812)
(9.04411 0 0.859115)
(9.15344 0 0.855992)
(8.85141 0 0.972699)
(8.9743 0 0.971837)
(8.63957 0 1.09593)
(8.77686 0 1.09734)
(8.40796 0 1.22969)
(8.56053 0 1.23347)
(8.15588 0 1.37481)
(8.32463 0 1.38113)
(7.88256 0 1.53193)
(8.06845 0 1.54114)
(7.58717 0 1.70145)
(7.79116 0 1.71412)
(7.26878 0 1.88336)
(7.49185 0 1.90038)
(6.92629 0 2.07704)
(7.16942 0 2.09978)
(6.55836 0 2.28092)
(6.82251 0 2.31147)
(6.1633 0 2.49211)
(6.44943 0 2.53356)
(5.73895 0 2.70588)
(6.04792 0 2.76271)
(5.28254 0 2.91501)
(5.61505 0 2.99351)
(4.79063 0 3.10915)
(5.14704 0 3.21786)
(4.2591 0 3.27416)
(4.63917 0 3.42425)
(3.6832 0 3.39177)
(4.08584 0 3.59708)
(3.05787 0 3.43955)
(3.48111 0 3.71642)
(2.37759 0 3.39162)
(2.81818 0 3.75796)
(1.6378 0 3.22596)
(2.09901 0 3.69376)
(0.839075 0 2.9006)
(1.27883 0 3.50422)
(0.573318 0 3.11342)
(9.98273 0 0.123584)
(9.99316 0 0.0868192)
(9.94873 0 0.204314)
(9.97026 0 0.172096)
(9.89794 0 0.285258)
(9.92926 0 0.256981)
(9.8305 0 0.367974)
(9.87123 0 0.342996)
(9.7467 0 0.453863)
(9.79715 0 0.431689)
(9.64667 0 0.544092)
(9.70734 0 0.524364)
(9.53037 0 0.639726)
(9.6018 0 0.622153)
(9.39761 0 0.741823)
(9.48037 0 0.726148)
(9.24811 0 0.851443)
(9.34284 0 0.837452)
(9.0815 0 0.969641)
(9.18892 0 0.957165)
(8.89733 0 1.09746)
(9.01821 0 1.08638)
(8.69505 0 1.23593)
(8.83026 0 1.22618)
(8.47407 0 1.38604)
(8.6245 0 1.37763)
(8.23369 0 1.54869)
(8.40031 0 1.54175)
(7.97314 0 1.72467)
(8.15694 0 1.71945)
(7.69151 0 1.91452)
(7.89355 0 1.91151)
(7.38774 0 2.11843)
(7.6091 0 2.11844)
(7.06049 0 2.33604)
(7.3023 0 2.34038)
(6.70805 0 2.5662)
(6.97151 0 2.57685)
(6.32819 0 2.80655)
(6.61455 0 2.82651)
(5.91791 0 3.0531)
(6.22853 0 3.08677)
(5.47325 0 3.29956)
(5.80954 0 3.35323)
(4.98909 0 3.53666)
(5.35243 0 3.61901)
(4.45911 0 3.75137)
(4.85064 0 3.87398)
(3.876 0 3.92637)
(4.29618 0 4.10388)
(3.23212 0 4.03971)
(3.68031 0 4.28956)
(2.52065 0 4.06478)
(2.99329 0 4.40658)
(1.73824 0 3.97587)
(2.23719 0 4.42432)
(0.889402 0 3.71845)
(1.36324 0 4.31597)
(0.598697 0 3.98454)
(9.98321 0 0.136206)
(9.99339 0 0.0950422)
(9.95032 0 0.225577)
(9.97131 0 0.188593)
(9.90151 0 0.315503)
(9.93193 0 0.282055)
(9.83694 0 0.407513)
(9.87643 0 0.376968)
(9.75683 0 0.503025)
(9.80579 0 0.474851)
(9.66134 0 0.603293)
(9.7203 0 0.577064)
(9.55045 0 0.709479)
(9.61995 0 0.684833)
(9.42402 0 0.822726)
(9.50464 0 0.799339)
(9.28182 0 0.944177)
(9.37421 0 0.921763)
(9.12354 0 1.07497)
(9.22841 0 1.05328)
(8.94876 0 1.21624)
(9.06693 0 1.19508)
(8.75701 0 1.3691)
(8.88935 0 1.34833)
(8.54771 0 1.53464)
(8.69516 0 1.51418)
(8.32019 0 1.71391)
(8.48377 0 1.69378)
(8.07362 0 1.90782)
(8.25444 0 1.88818)
(7.80704 0 2.11711)
(8.00628 0 2.09835)
(7.51922 0 2.34225)
(7.73816 0 2.32506)
(7.20855 0 2.58325)
(7.44861 0 2.56878)
(6.87295 0 2.83948)
(7.13571 0 2.82955)
(6.5096 0 3.10935)
(6.79685 0 3.10674)
(6.11469 0 3.38987)
(6.42849 0 3.3987)
(5.6831 0 3.67607)
(6.02583 0 3.70237)
(5.20814 0 3.96022)
(5.58244 0 4.01253)
(4.6814 0 4.23095)
(5.08995 0 4.32097)
(4.09292 0 4.47221)
(4.53788 0 4.61533)
(3.43216 0 4.66237)
(3.9143 0 4.87773)
(2.68982 0 4.77289)
(3.2053 0 5.08335)
(1.86161 0 4.77206)
(2.41095 0 5.19763)
(0.954049 0 4.58932)
(1.47605 0 5.18387)
(0.639088 0 4.91897)
(9.98386 0 0.148372)
(9.99368 0 0.102946)
(9.95235 0 0.245976)
(9.9726 0 0.204398)
(9.90578 0 0.344407)
(9.9351 0 0.305976)
(9.84437 0 0.445208)
(9.88241 0 0.409279)
(9.76833 0 0.549825)
(9.81552 0 0.515828)
(9.6778 0 0.659576)
(9.73471 0 0.627026)
(9.5728 0 0.77571)
(9.63998 0 0.744178)
(9.45327 0 0.899445)
(9.53129 0 0.868541)
(9.319 0 1.032)
(9.40852 0 1.00137)
(9.16976 0 1.1746)
(9.2715 0 1.14391)
(9.0052 0 1.32845)
(9.11997 0 1.29743)
(8.82489 0 1.49477)
(8.95359 0 1.46318)
(8.6283 0 1.67477)
(8.77191 0 1.64243)
(8.41479 0 1.86962)
(8.57438 0 1.83644)
(8.18354 0 2.08042)
(8.36032 0 2.04644)
(7.93352 0 2.30815)
(8.12882 0 2.27359)
(7.66337 0 2.55361)
(7.87871 0 2.51899)
(7.37131 0 2.81729)
(7.60843 0 2.78351)
(7.0549 0 3.09923)
(7.31584 0 3.06781)
(6.71083 0 3.39876)
(6.99803 0 3.37208)
(6.33458 0 3.71417)
(6.65097 0 3.69589)
(5.91999 0 4.04217)
(6.26915 0 4.03776)
(5.45887 0 4.37709)
(5.845 0 4.39459)
(4.94062 0 4.70986)
(5.36843 0 4.76075)
(4.35224 0 5.02643)
(4.82629 0 5.12669)
(3.6791 0 5.30597)
(4.20263 0 5.47691)
(2.90705 0 5.51785)
(3.47735 0 5.78719)
(2.0273 0 5.62256)
(2.64454 0 6.01908)
(1.0449 0 5.5289)
(1.63736 0 6.12335)
(0.704303 0 5.94238)
(9.98465 0 0.159984)
(9.99402 0 0.110465)
(9.95473 0 0.265387)
(9.97409 0 0.219404)
(9.91065 0 0.371828)
(9.93868 0 0.328619)
(9.85267 0 0.480895)
(9.88905 0 0.439786)
(9.781 0 0.59406)
(9.82618 0 0.554446)
(9.69581 0 0.7127)
(9.75038 0 0.674042)
(9.59716 0 0.838131)
(9.66166 0 0.799938)
(9.48501 0 0.971646)
(9.56003 0 0.933462)
(9.35926 0 1.11453)
(9.44542 0 1.07593)
(9.21972 0 1.26807)
(9.31775 0 1.22865)
(9.06611 0 1.43357)
(9.17683 0 1.39297)
(8.89808 0 1.61234)
(9.02239 0 1.57021)
(8.71518 0 1.80571)
(8.85407 0 1.76176)
(8.51681 0 2.01498)
(8.67141 0 1.96899)
(8.30219 0 2.24146)
(8.4738 0 2.1933)
(8.07031 0 2.48641)
(8.26038 0 2.43612)
(7.81978 0 2.75102)
(8.03003 0 2.69883)
(7.54871 0 3.03631)
(7.78119 0 2.98281)
(7.25448 0 3.34311)
(7.51169 0 3.28936)
(6.93348 0 3.67184)
(7.2185 0 3.61964)
(6.5807 0 4.0223)
(6.89741 0 3.97455)
(6.18918 0 4.39325)
(6.54246 0 4.35449)
(5.74943 0 4.7817)
(6.14537 0 4.75894)
(5.24871 0 5.18176)
(5.69466 0 5.18565)
(4.67047 0 5.58275)
(5.17458 0 5.62925)
(3.99439 0 5.96636)
(4.56452 0 6.07872)
(3.1979 0 6.30135)
(3.83571 0 6.51333)
(2.26132 0 6.54012)
(2.97021 0 6.89358)
(1.18033 0 6.56437)
(1.87865 0 7.15711)
(0.812557 0 7.09845)
(9.98553 0 0.170966)
(9.9944 0 0.117548)
(9.95738 0 0.283704)
(9.97572 0 0.233523)
(9.91601 0 0.397643)
(9.94258 0 0.349875)
(9.86169 0 0.514423)
(9.89624 0 0.468361)
(9.79469 0 0.635549)
(9.83765 0 0.590553)
(9.71517 0 0.762448)
(9.76713 0 0.717926)
(9.62325 0 0.896492)
(9.68475 0 0.851897)
(9.51894 0 1.03903)
(9.59055 0 0.993846)
(9.4022 0 1.19141)
(9.48456 0 1.14514)
(9.27293 0 1.35499)
(9.36673 0 1.30716)
(9.13093 0 1.53114)
(9.23698 0 1.48128)
(8.97594 0 1.72126)
(9.09513 0 1.66894)
(8.8076 0 1.92678)
(8.94094 0 1.87158)
(8.62542 0 2.14917)
(8.77405 0 2.09072)
(8.42871 0 2.38994)
(8.59396 0 2.32792)
(8.21654 0 2.65064)
(8.39996 0 2.58483)
(7.9876 0 2.93285)
(8.19106 0 2.86318)
(7.74005 0 3.2382)
(7.96584 0 3.16481)
(7.47133 0 3.56833)
(7.7223 0 3.49171)
(7.17779 0 3.92486)
(7.45758 0 3.84602)
(6.8543 0 4.3093)
(7.16761 0 4.23006)
(6.49359 0 4.72279)
(6.84659 0 4.6463)
(6.08538 0 5.16565)
(6.48615 0 5.09716)
(5.61523 0 5.63637)
(6.07428 0 5.58461)
(5.06307 0 6.12978)
(5.59351 0 6.10913)
(4.40161 0 6.63358)
(5.01896 0 6.66751)
(3.59547 0 7.12079)
(4.3118 0 7.24826)
(2.6037 0 7.53991)
(3.43486 0 7.81961)
(1.39389 0 7.73942)
(2.25574 0 8.31406)
(1.00221 0 8.46368)
(9.9865 0 0.181255)
(9.9948 0 0.124158)
(9.96027 0 0.300837)
(9.97747 0 0.246684)
(9.92177 0 0.421741)
(9.94676 0 0.369652)
(9.87133 0 0.545661)
(9.90388 0 0.494894)
(9.80923 0 0.674137)
(9.84977 0 0.624016)
(9.73568 0 0.808632)
(9.78479 0 0.758522)
(9.65081 0 0.950568)
(9.70903 0 0.899867)
(9.55472 0 1.10134)
(9.62259 0 1.04947)
(9.44742 0 1.26235)
(9.52556 0 1.20876)
(9.32891 0 1.435)
(9.41799 0 1.37913)
(9.19908 0 1.62073)
(9.29988 0 1.56203)
(9.05778 0 1.82101)
(9.17118 0 1.75894)
(8.90478 0 2.03738)
(9.03176 0 1.97139)
(8.73972 0 2.27144)
(8.8814 0 2.20101)
(8.56206 0 2.5249)
(8.71978 0 2.4495)
(8.37104 0 2.79958)
(8.54638 0 2.71871)
(8.16557 0 3.09745)
(8.36044 0 3.01068)
(7.94403 0 3.42071)
(8.16085 0 3.32768)
(7.70416 0 3.77182)
(7.94598 0 3.67233)
(7.44266 0 4.1536)
(7.71344 0 4.04769)
(7.15478 0 4.56932)
(7.4598 0 4.45745)
(6.83364 0 5.02269)
(7.18003 0 4.90609)
(6.46917 0 5.51783)
(6.86674 0 5.39913)
(6.04652 0 6.05886)
(6.50886 0 5.94326)
(5.54344 0 6.64879)
(6.08945 0 6.54637)
(4.92631 0 7.28687)
(5.58235 0 7.21683)
(4.14411 0 7.961)
(4.94153 0 7.96136)
(3.12085 0 8.6327)
(4.10814 0 8.77505)
(1.75557 0 9.12642)
(2.87729 0 9.61968)
(1.364 0 10.1831)
(9.98754 0 0.190801)
(9.99523 0 0.130262)
(9.96332 0 0.316711)
(9.97932 0 0.258827)
(9.92785 0 0.444029)
(9.95115 0 0.387873)
(9.88148 0 0.574499)
(9.91188 0 0.519293)
(9.82449 0 0.709693)
(9.86243 0 0.654725)
(9.75712 0 0.851104)
(9.80318 0 0.795699)
(9.67958 0 1.00019)
(9.73426 0 0.943696)
(9.59201 0 1.15838)
(9.65583 0 1.10017)
(9.49452 0 1.32711)
(9.56806 0 1.26656)
(9.38716 0 1.50783)
(9.47108 0 1.44432)
(9.26996 0 1.70202)
(9.36499 0 1.63492)
(9.14289 0 1.91122)
(9.24987 0 1.83988)
(9.00586 0 2.13704)
(9.12571 0 2.06079)
(8.85869 0 2.38119)
(8.9925 0 2.29935)
(8.70105 0 2.64555)
(8.85009 0 2.55738)
(8.53243 0 2.93217)
(8.69825 0 2.83689)
(8.35205 0 3.24336)
(8.53653 0 3.14016)
(8.15875 0 3.5818)
(8.36424 0 3.4698)
(7.95079 0 3.95068)
(8.18033 0 3.82893)
(7.7256 0 4.35388)
(7.9832 0 4.22136)
(7.47945 0 4.79626)
(7.77048 0 4.65188)
(7.20676 0 5.284)
(7.53868 0 5.12669)
(6.89914 0 5.82507)
(7.28255 0 5.654)
(6.54363 0 6.42982)
(6.99409 0 6.24494)
(6.11947 0 7.11164)
(6.66057 0 6.91501)
(5.59194 0 7.88762)
(6.26141 0 7.68641)
(4.89955 0 8.77755)
(5.75616 0 8.5926)
(3.92537 0 9.80054)
(5.08553 0 9.68465)
(2.43193 0 10.8547)
(3.97741 0 11.0479)
(2.14471 0 12.5651)
(9.98862 0 0.199565)
(9.99567 0 0.135837)
(9.96652 0 0.331266)
(9.98124 0 0.269909)
(9.9342 0 0.464425)
(9.95571 0 0.404477)
(9.89202 0 0.600831)
(9.92017 0 0.541483)
(9.84031 0 0.74208)
(9.87553 0 0.682593)
(9.77933 0 0.889688)
(9.82217 0 0.829353)
(9.70932 0 1.04514)
(9.76029 0 0.983263)
(9.63051 0 1.20988)
(9.69011 0 1.14579)
(9.54308 0 1.38538)
(9.61186 0 1.31841)
(9.44718 0 1.57311)
(9.52578 0 1.50256)
(9.34296 0 1.77457)
(9.43207 0 1.69974)
(9.23052 0 1.99135)
(9.33093 0 1.9115)
(9.10994 0 2.22511)
(9.22253 0 2.13945)
(8.98124 0 2.47765)
(9.10704 0 2.38534)
(8.84435 0 2.75094)
(8.98455 0 2.65106)
(8.69909 0 3.0472)
(8.85513 0 2.9387)
(8.5451 0 3.36899)
(8.71875 0 3.2507)
(8.38178 0 3.71935)
(8.57523 0 3.58988)
(8.20816 0 4.10197)
(8.42425 0 3.95966)
(8.02279 0 4.52153)
(8.26522 0 4.36432)
(7.82348 0 4.98405)
(8.09723 0 4.80931)
(7.60692 0 5.49759)
(7.91891 0 5.30188)
(7.36809 0 6.07319)
(7.72827 0 5.85189)
(7.09904 0 6.72648)
(7.52244 0 6.47326)
(6.7866 0 7.48065)
(7.29714 0 7.18655)
(6.40719 0 8.37238)
(7.04687 0 8.02413)
(5.91377 0 9.466)
(6.76136 0 9.04243)
(5.19377 0 10.9075)
(6.45949 0 10.3569)
(3.88182 0 13.1757)
(6.18577 0 12.3025)
(5.2527 0 16.3671)
(0.191455 0 -0.114268)
(0.112539 0 -0.187518)
(0.374318 0 -0.0973447)
(0.273619 0 -0.174873)
(0.525187 0 -0.0743558)
(0.434663 0 -0.140869)
(0.642745 0 -0.0533564)
(0.570432 0 -0.107174)
(0.73049 0 -0.0356841)
(0.67612 0 -0.0781047)
(0.792295 0 -0.0210808)
(0.755236 0 -0.053715)
(0.831575 0 -0.00907214)
(0.812189 0 -0.0333325)
(0.851374 0 0.000656967)
(0.850481 0 -0.0164047)
(0.854904 0 0.00795119)
(0.872797 0 -0.00285555)
(0.844321 0 0.012891)
(0.881544 0 0.00835911)
(0.82313 0 0.0160779)
(0.878019 0 0.016343)
(0.794068 0 0.0178934)
(0.864683 0 0.0218833)
(0.759674 0 0.0185231)
(0.844236 0 0.025287)
(0.722462 0 0.0181099)
(0.819226 0 0.0267124)
(0.684815 0 0.0168312)
(0.792109 0 0.0263865)
(0.648827 0 0.0149202)
(0.76517 0 0.0246283)
(0.616135 0 0.0126549)
(0.740329 0 0.0218441)
(0.587814 0 0.0103245)
(0.718969 0 0.0184761)
(0.564305 0 0.0081871)
(0.701838 0 0.0149755)
(0.545408 0 0.00642353)
(0.689014 0 0.0117527)
(0.530429 0 0.00510633)
(0.679991 0 0.00909579)
(0.518423 0 0.00420445)
(0.673888 0 0.0071185)
(0.508472 0 0.00361693)
(0.669731 0 0.00576079)
(0.499903 0 0.00321981)
(0.666712 0 0.00484358)
(0.492345 0 0.00291678)
(0.664335 0 0.004171)
(0.485601 0 0.00266666)
(0.662367 0 0.00363414)
(0.479481 0 0.00246984)
(0.66068 0 0.00321983)
(0.473724 0 0.00231579)
(0.659104 0 0.00295742)
(0.468119 0 0.00202001)
(0.657385 0 0.00281138)
(0.655082 0 0.00227304)
(0.177549 0 -0.273037)
(0.0943378 0 -0.361417)
(0.348309 0 -0.239604)
(0.243718 0 -0.338172)
(0.492419 0 -0.190038)
(0.384961 0 -0.275427)
(0.609194 0 -0.143997)
(0.505491 0 -0.213634)
(0.702116 0 -0.10492)
(0.601854 0 -0.160817)
(0.774739 0 -0.072327)
(0.677549 0 -0.116833)
(0.830094 0 -0.0451849)
(0.736212 0 -0.0803062)
(0.870658 0 -0.022633)
(0.780622 0 -0.0500133)
(0.897927 0 -0.00407872)
(0.812902 0 -0.0249154)
(0.913741 0 0.0106369)
(0.83476 0 -0.00413242)
(0.918267 0 0.0215985)
(0.848055 0 0.0128529)
(0.91381 0 0.0291227)
(0.852276 0 0.0252392)
(0.902953 0 0.033496)
(0.84973 0 0.0332697)
(0.888213 0 0.0350249)
(0.842608 0 0.0372929)
(0.872 0 0.034121)
(0.83306 0 0.0377507)
(0.856426 0 0.0313131)
(0.823078 0 0.0352862)
(0.843116 0 0.0272191)
(0.814314 0 0.0307375)
(0.833116 0 0.0225075)
(0.807932 0 0.0249997)
(0.826821 0 0.0178303)
(0.804526 0 0.0189855)
(0.823981 0 0.013718)
(0.804075 0 0.0135189)
(0.82388 0 0.0104802)
(0.806023 0 0.00915746)
(0.82559 0 0.00816418)
(0.809489 0 0.0061042)
(0.828248 0 0.00659164)
(0.813519 0 0.00422206)
(0.831257 0 0.00548503)
(0.817368 0 0.0031431)
(0.834336 0 0.00463362)
(0.82072 0 0.00247161)
(0.837368 0 0.00396956)
(0.823626 0 0.00200058)
(0.840243 0 0.00352157)
(0.826264 0 0.00170701)
(0.84279 0 0.00329611)
(0.828733 0 0.00164895)
(0.844802 0 0.00309407)
(0.830916 0 0.00180225)
(0.832804 0 0.00200544)
(0.150731 0 -0.43303)
(0.0741929 0 -0.509048)
(0.291134 0 -0.38094)
(0.200116 0 -0.472441)
(0.407883 0 -0.305483)
(0.308087 0 -0.384437)
(0.502452 0 -0.235985)
(0.400668 0 -0.29985)
(0.578438 0 -0.177265)
(0.474286 0 -0.228454)
(0.638776 0 -0.128426)
(0.53292 0 -0.169274)
(0.685851 0 -0.0879262)
(0.579227 0 -0.120254)
(0.721653 0 -0.0544396)
(0.615122 0 -0.0796769)
(0.748123 0 -0.0267217)
(0.642182 0 -0.0463288)
(0.767336 0 -0.00380314)
(0.661705 0 -0.0193077)
(0.780573 0 0.0143967)
(0.676482 0 0.00264396)
(0.786959 0 0.0275824)
(0.686083 0 0.020431)
(0.788349 0 0.0357759)
(0.690615 0 0.0322474)
(0.786602 0 0.0393047)
(0.691728 0 0.0385469)
(0.783504 0 0.0388136)
(0.690994 0 0.039922)
(0.780568 0 0.0351789)
(0.689796 0 0.0372957)
(0.778945 0 0.0294174)
(0.689207 0 0.031822)
(0.779347 0 0.0226263)
(0.689926 0 0.0247376)
(0.78196 0 0.0158862)
(0.692234 0 0.017321)
(0.786419 0 0.0100756)
(0.695919 0 0.0107453)
(0.791983 0 0.00570558)
(0.700351 0 0.00577914)
(0.797722 0 0.00287093)
(0.704711 0 0.002701)
(0.802808 0 0.00130301)
(0.70819 0 0.00127812)
(0.806824 0 0.000537946)
(0.710277 0 0.000872955)
(0.809889 0 0.000177328)
(0.710931 0 0.000779912)
(0.812377 0 3.91851e-05)
(0.710534 0 0.000660207)
(0.814671 0 0.000114292)
(0.709594 0 0.000500012)
(0.816916 0 0.000435527)
(0.708496 0 0.000495586)
(0.818896 0 0.000996512)
(0.707341 0 0.000809044)
(0.705797 0 0.00159996)
(0.121144 0 -0.55807)
(0.0539423 0 -0.627701)
(0.225697 0 -0.485948)
(0.150773 0 -0.572425)
(0.309031 0 -0.388622)
(0.219221 0 -0.462248)
(0.375956 0 -0.301286)
(0.280152 0 -0.360863)
(0.430034 0 -0.228282)
(0.326693 0 -0.276592)
(0.47343 0 -0.167724)
(0.364297 0 -0.206989)
(0.507785 0 -0.11748)
(0.394416 0 -0.149406)
(0.534335 0 -0.0759293)
(0.418207 0 -0.101675)
(0.55427 0 -0.0420218)
(0.436539 0 -0.0624557)
(0.569096 0 -0.0146635)
(0.450157 0 -0.0310185)
(0.580171 0 0.00712734)
(0.459947 0 -0.00589741)
(0.5881 0 0.0233791)
(0.469314 0 0.0144606)
(0.592571 0 0.0337695)
(0.474484 0 0.0289607)
(0.594915 0 0.0384887)
(0.476939 0 0.0368638)
(0.596381 0 0.0382881)
(0.477952 0 0.038895)
(0.597836 0 0.0342765)
(0.478377 0 0.0362996)
(0.59987 0 0.0277574)
(0.478673 0 0.0304631)
(0.602777 0 0.0201453)
(0.479026 0 0.022841)
(0.606449 0 0.012844)
(0.479418 0 0.0149816)
(0.610302 0 0.00696736)
(0.479564 0 0.00834944)
(0.61361 0 0.00310819)
(0.47888 0 0.00377016)
(0.61566 0 0.0012606)
(0.476893 0 0.0014853)
(0.615924 0 0.000844879)
(0.473257 0 0.00112576)
(0.614359 0 0.00101276)
(0.46758 0 0.0017575)
(0.611413 0 0.00111335)
(0.459851 0 0.00240553)
(0.607574 0 0.000948456)
(0.450603 0 0.00272899)
(0.603353 0 0.00069273)
(0.440494 0 0.00272084)
(0.599027 0 0.000628596)
(0.430092 0 0.00271774)
(0.59461 0 0.0010635)
(0.419872 0 0.00302465)
(0.408993 0 0.00358004)
(0.0868066 0 -0.649973)
(0.0327102 0 -0.712722)
(0.151391 0 -0.556967)
(0.0951387 0 -0.634188)
(0.197669 0 -0.442608)
(0.119196 0 -0.505459)
(0.233698 0 -0.343663)
(0.146242 0 -0.39371)
(0.262557 0 -0.26197)
(0.16233 0 -0.302279)
(0.285736 0 -0.194463)
(0.175532 0 -0.227135)
(0.304355 0 -0.138493)
(0.185878 0 -0.165205)
(0.319056 0 -0.0921679)
(0.194281 0 -0.113856)
(0.330359 0 -0.054365)
(0.201207 0 -0.0715996)
(0.339055 0 -0.0238088)
(0.206825 0 -0.0378864)
(0.347055 0 0.000835467)
(0.210771 0 -0.0120678)
(0.353652 0 0.019433)
(0.216191 0 0.00949319)
(0.35676 0 0.0312701)
(0.217294 0 0.0266762)
(0.358174 0 0.036647)
(0.215895 0 0.0358483)
(0.358632 0 0.0365964)
(0.21266 0 0.0385739)
(0.358351 0 0.0324399)
(0.207746 0 0.0364917)
(0.357368 0 0.0256012)
(0.200842 0 0.0311201)
(0.355659 0 0.0176814)
(0.191644 0 0.0239564)
(0.35306 0 0.0103795)
(0.179895 0 0.0166368)
(0.349014 0 0.00494419)
(0.166736 0 0.0108659)
(0.343211 0 0.00190863)
(0.152423 0 0.00729412)
(0.335407 0 0.00113014)
(0.137636 0 0.0061121)
(0.325442 0 0.00184981)
(0.12298 0 0.00689502)
(0.313121 0 0.00314225)
(0.108556 0 0.00872136)
(0.298827 0 0.00427413)
(0.0939771 0 0.0102942)
(0.283277 0 0.00490893)
(0.0792128 0 0.0111084)
(0.267175 0 0.00521985)
(0.0642351 0 0.0111921)
(0.251062 0 0.00563485)
(0.0491394 0 0.0109951)
(0.235778 0 0.00602215)
(0.0343524 0 0.0106909)
(0.0201708 0 0.00925616)
(0.0477447 0 -0.703904)
(0.00947554 0 -0.759485)
(0.0679665 0 -0.589774)
(0.0322437 0 -0.653526)
(0.0747318 0 -0.463098)
(0.00928711 0 -0.511776)
(0.0773706 0 -0.358011)
(-0.000380805 0 -0.396116)
(0.0775397 0 -0.272266)
(-0.0177277 0 -0.30243)
(0.0766756 0 -0.202009)
(-0.0329222 0 -0.226384)
(0.0755535 0 -0.144127)
(-0.046789 0 -0.164253)
(0.0747702 0 -0.0964563)
(-0.0583506 0 -0.113207)
(0.074833 0 -0.0582118)
(-0.0675937 0 -0.0716505)
(0.0764534 0 -0.0291577)
(-0.0758757 0 -0.0391663)
(0.0777905 0 -0.00589856)
(-0.0861788 0 -0.013099)
(0.0768829 0 0.014839)
(-0.097583 0 0.0101766)
(0.0735126 0 0.0300181)
(-0.103191 0 0.0291541)
(0.0678876 0 0.0373353)
(-0.11117 0 0.0398862)
(0.0599704 0 0.0387127)
(-0.121089 0 0.044123)
(0.0490277 0 0.0360447)
(-0.133453 0 0.0439803)
(0.0344282 0 0.0308603)
(-0.148735 0 0.0408751)
(0.0159702 0 0.024537)
(-0.167057 0 0.0359983)
(-0.00554047 0 0.018594)
(-0.18839 0 0.0303388)
(-0.0284028 0 0.0143137)
(-0.211031 0 0.025085)
(-0.0513616 0 0.0122307)
(-0.2341 0 0.0212359)
(-0.0731865 0 0.0122876)
(-0.256388 0 0.0190523)
(-0.09292 0 0.0136882)
(-0.276836 0 0.0183189)
(-0.110323 0 0.0153028)
(-0.294657 0 0.0185582)
(-0.125924 0 0.016343)
(-0.310049 0 0.0189043)
(-0.140309 0 0.0165626)
(-0.323481 0 0.0188599)
(-0.154019 0 0.0162375)
(-0.335693 0 0.0184049)
(-0.167156 0 0.0154738)
(-0.347313 0 0.0177437)
(-0.178979 0 0.0136158)
(-0.358446 0 0.0166206)
(-0.367362 0 0.0142644)
(-0.000750264 0 -0.71388)
(-0.0181771 0 -0.758751)
(-0.0248898 0 -0.579797)
(-0.0397976 0 -0.630441)
(-0.0586441 0 -0.446053)
(-0.109007 0 -0.480259)
(-0.0926903 0 -0.340273)
(-0.159862 0 -0.365077)
(-0.125315 0 -0.255525)
(-0.213148 0 -0.27339)
(-0.154933 0 -0.18763)
(-0.26065 0 -0.200643)
(-0.180664 0 -0.13295)
(-0.302946 0 -0.142418)
(-0.202386 0 -0.0884566)
(-0.339366 0 -0.0952087)
(-0.22153 0 -0.0517536)
(-0.37023 0 -0.0561636)
(-0.241256 0 -0.0210005)
(-0.397705 0 -0.0235854)
(-0.262454 0 0.0049061)
(-0.424472 0 0.00324968)
(-0.27994 0 0.025021)
(-0.44619 0 0.0233429)
(-0.291457 0 0.0384265)
(-0.458974 0 0.0376218)
(-0.302773 0 0.0459764)
(-0.471804 0 0.0480096)
(-0.316272 0 0.0488268)
(-0.485219 0 0.0535845)
(-0.332369 0 0.0481616)
(-0.500113 0 0.0549957)
(-0.350859 0 0.0450483)
(-0.5168 0 0.0532299)
(-0.37121 0 0.0404762)
(-0.535148 0 0.0492749)
(-0.392888 0 0.0354287)
(-0.554884 0 0.044148)
(-0.415227 0 0.0308634)
(-0.575459 0 0.0389785)
(-0.437352 0 0.0274144)
(-0.596321 0 0.0346715)
(-0.458415 0 0.0252195)
(-0.616761 0 0.0315406)
(-0.477594 0 0.0240053)
(-0.635914 0 0.0294216)
(-0.494129 0 0.023264)
(-0.65282 0 0.0279046)
(-0.50792 0 0.0225588)
(-0.666975 0 0.0265155)
(-0.51939 0 0.0217106)
(-0.67845 0 0.0250402)
(-0.529188 0 0.0207098)
(-0.687859 0 0.02356)
(-0.537733 0 0.0193726)
(-0.696052 0 0.0221335)
(-0.545219 0 0.0174811)
(-0.703422 0 0.0203751)
(-0.708352 0 0.0183003)
(-0.0488617 0 -0.674862)
(-0.052014 0 -0.710894)
(-0.124161 0 -0.526872)
(-0.120655 0 -0.558431)
(-0.201606 0 -0.393032)
(-0.23673 0 -0.407948)
(-0.276597 0 -0.290975)
(-0.332059 0 -0.29671)
(-0.345461 0 -0.211456)
(-0.422156 0 -0.212092)
(-0.407234 0 -0.148938)
(-0.501378 0 -0.146954)
(-0.461513 0 -0.0990803)
(-0.570062 0 -0.0963581)
(-0.508412 0 -0.0583732)
(-0.628672 0 -0.0563515)
(-0.54892 0 -0.0246846)
(-0.67819 0 -0.0233937)
(-0.58304 0 0.00217752)
(-0.717409 0 0.00336475)
(-0.608129 0 0.0220668)
(-0.747889 0 0.0225992)
(-0.62642 0 0.0368573)
(-0.769194 0 0.0371155)
(-0.642121 0 0.0482701)
(-0.787318 0 0.0491656)
(-0.656194 0 0.0559006)
(-0.802616 0 0.0581118)
(-0.670267 0 0.0595077)
(-0.816767 0 0.0634479)
(-0.68527 0 0.0596413)
(-0.830962 0 0.0652629)
(-0.701426 0 0.0570807)
(-0.845801 0 0.0640253)
(-0.718622 0 0.0527616)
(-0.86144 0 0.0604935)
(-0.736721 0 0.0477517)
(-0.877869 0 0.0556769)
(-0.755509 0 0.0430376)
(-0.895011 0 0.0506632)
(-0.774553 0 0.0391828)
(-0.912703 0 0.0462365)
(-0.793191 0 0.0362096)
(-0.930539 0 0.0425913)
(-0.810516 0 0.0337889)
(-0.947733 0 0.0394511)
(-0.825562 0 0.0315196)
(-0.963222 0 0.0364089)
(-0.837778 0 0.0292055)
(-0.976113 0 0.0332573)
(-0.847279 0 0.0269414)
(-0.986119 0 0.0301597)
(-0.85468 0 0.0248677)
(-0.99374 0 0.0274541)
(-0.860696 0 0.022877)
(-0.999962 0 0.0252238)
(-0.866246 0 0.0209391)
(-1.00529 0 0.0231586)
(-1.00841 0 0.0215117)
(-0.105148 0 -0.585651)
(-0.0941045 0 -0.607907)
(-0.231681 0 -0.428603)
(-0.213387 0 -0.437427)
(-0.357263 0 -0.300302)
(-0.380266 0 -0.290689)
(-0.4732 0 -0.207983)
(-0.519661 0 -0.191014)