/*--------------------------------*- C++ -*----------------------------------*\
  =========                 |
  \\      /  F ield         | OpenFOAM: The Open Source CFD Toolbox
   \\    /   O peration     | Website:  https://openfoam.org
    \\  /    A nd           | Version:  dev
     \\/     M anipulation  |
\*---------------------------------------------------------------------------*/
FoamFile
{
    version     2.0;
    format      ascii;
    class       volScalarField;
    location    "2.5";
    object      p;
}
// * * * * * * * * * * * * * * * * * * * * * * * * * * * * * * * * * * * * * //

dimensions      [0 2 -2 0 0 0 0];

internalField   nonuniform List<scalar> 
2790
(
147.697
147.604
147.871
148.443
149.223
150.181
151.313
152.62
154.097
155.738
157.538
159.489
161.583
163.808
166.148
168.584
171.088
173.627
176.159
178.633
180.991
183.168
185.098
186.719
187.978
188.852
189.288
189.343
189.394
189.607
147.494
147.512
147.804
148.372
149.149
150.103
151.231
152.532
154.002
155.634
157.425
159.366
161.449
163.663
165.992
168.418
170.914
173.447
175.977
178.455
180.823
183.018
184.972
186.62
187.905
188.779
189.175
189.23
189.363
189.647
147.295
147.383
147.694
148.252
149.016
149.957
151.071
152.353
153.801
155.409
157.172
159.081
161.129
163.305
165.593
167.976
170.428
172.918
175.41
177.857
180.207
182.399
184.371
186.061
187.412
188.387
188.98
189.335
189.651
189.949
147.07
147.189
147.513
148.062
148.811
149.736
150.83
152.088
153.507
155.082
156.806
158.672
160.67
162.791
165.02
167.337
169.722
172.145
174.572
176.962
179.269
181.441
183.422
185.162
186.616
187.768
188.636
189.306
189.859
190.378
146.809
146.942
147.274
147.816
148.548
149.453
150.52
151.748
153.13
154.661
156.336
158.145
160.081
162.132
164.284
166.52
168.818
171.153
173.494
175.807
178.052
180.187
182.169
183.959
185.529
186.872
188.002
188.964
189.775
190.522
146.509
146.647
146.981
147.513
148.226
149.104
150.14
151.329
152.667
154.147
155.762
157.505
159.366
161.334
163.396
165.534
167.729
169.958
172.195
174.41
176.572
178.65
180.611
182.432
184.095
185.596
186.942
188.148
189.168
190.086
146.166
146.305
146.637
147.156
147.845
148.693
149.693
150.838
152.124
153.544
155.092
156.758
158.533
160.406
162.363
164.389
166.465
168.571
170.684
172.78
174.835
176.825
178.733
180.543
182.248
183.849
185.342
186.721
187.886
188.932
145.781
145.918
146.243
146.745
147.409
148.223
149.181
150.276
151.504
152.858
154.328
155.908
157.587
159.353
161.194
163.093
165.034
166.998
168.966
170.918
172.835
174.702
176.509
178.251
179.929
181.548
183.102
184.574
185.824
186.975
145.355
145.488
145.802
146.285
146.92
147.696
148.607
149.648
150.812
152.091
153.478
154.963
156.535
158.184
159.895
161.653
163.443
165.246
167.046
168.825
170.568
172.266
173.913
175.513
177.075
178.609
180.117
181.588
182.859
184.097
144.888
145.016
145.317
145.777
146.38
147.115
147.977
148.958
150.052
151.251
152.546
153.928
155.385
156.905
158.475
160.079
161.701
163.324
164.93
166.503
168.031
169.506
170.923
172.291
173.623
174.942
176.262
177.599
178.799
180.103
144.383
144.504
144.79
145.225
145.794
146.484
147.292
148.209
149.228
150.341
151.539
152.811
154.144
155.527
156.945
158.382
159.819
161.241
162.627
163.962
165.23
166.42
167.527
168.555
169.518
170.446
171.376
172.374
173.336
174.654
143.84
143.955
144.223
144.632
145.163
145.807
146.557
147.406
148.347
149.37
150.464
151.619
152.823
154.06
155.316
156.573
157.812
159.013
160.155
161.217
162.179
163.022
163.73
164.295
164.721
165.03
165.272
165.579
165.96
167.133
143.263
143.37
143.62
144
144.492
145.086
145.776
146.555
147.413
148.341
149.328
150.362
151.429
152.514
153.599
154.667
155.694
156.658
157.534
158.294
158.907
159.341
159.564
159.539
159.235
158.637
157.761
156.767
155.816
156.32
142.654
142.752
142.983
143.332
143.783
144.327
144.955
145.66
146.433
147.263
148.139
149.048
149.974
150.901
151.81
152.68
153.486
154.2
154.792
155.225
155.455
155.433
155.095
154.363
153.14
151.31
148.746
145.441
141.488
139.447
142.014
142.104
142.314
142.632
143.041
143.532
144.096
144.726
145.412
146.142
146.904
147.685
148.467
149.233
149.962
150.629
151.207
151.664
151.961
152.053
151.88
151.371
150.427
148.913
146.635
143.303
138.458
131.438
120.965
108.723
2.58745
2.55098
2.42996
2.25876
2.07091
1.88214
1.69808
1.52108
1.35249
1.19301
1.04292
0.902325
0.771578
0.652214
0.547885
0.463559
0.402048
0.361218
0.337443
0.330148
0.3382
0.357481
0.379076
0.394421
0.396096
0.38047
0.343845
0.28345
0.197344
0.086966
2.49419
2.45192
2.33902
2.18151
2.00709
1.82964
1.65487
1.48546
1.32295
1.16827
1.02194
0.884144
0.755099
0.636261
0.531885
0.448292
0.389231
0.3518
0.330773
0.325483
0.335084
0.355763
0.378158
0.395435
0.400297
0.385559
0.349175
0.289006
0.202026
0.084676
2.40161
2.35189
2.2438
2.0978
1.9364
1.77054
1.60554
1.44426
1.28835
1.13899
0.996985
0.86259
0.735704
0.617432
0.512951
0.430736
0.374645
0.335501
0.310397
0.309985
0.329196
0.35958
0.389629
0.409003
0.412235
0.395927
0.357799
0.296071
0.206164
0.0843897
2.32383
2.26678
2.16127
2.02355
1.87272
1.71665
1.5602
1.40614
1.25614
1.11159
0.973721
0.843142
0.719231
0.601037
0.492879
0.408293
0.361958
0.33936
0.317412
0.306648
0.321934
0.35259
0.384237
0.406876
0.413667
0.39879
0.359585
0.295816
0.203741
0.0804432
2.28734
2.22305
2.11994
1.98709
1.84261
1.69235
1.54099
1.39124
1.24474
1.10286
0.967111
0.838941
0.719237
0.607552
0.507662
0.424372
0.362182
0.328801
0.315687
0.312641
0.327975
0.355626
0.384535
0.405292
0.410488
0.394072
0.353033
0.287442
0.194646
0.0720921
2.31165
2.23734
2.13455
2.00096
1.85603
1.70531
1.55374
1.40413
1.25819
1.11709
0.981947
0.853903
0.734128
0.62423
0.52659
0.445667
0.385898
0.347271
0.327037
0.322147
0.333237
0.354906
0.378182
0.394454
0.396357
0.377853
0.335609
0.2697
0.178592
0.06263
2.40119
2.31671
2.20446
2.06232
1.90844
1.75006
1.59222
1.43778
1.28844
1.14516
1.00901
0.880905
0.760762
0.649145
0.550293
0.469111
0.40785
0.365743
0.340709
0.331069
0.335605
0.349515
0.365428
0.375688
0.373269
0.35225
0.309324
0.244303
0.156979
0.0529536
2.54745
2.44271
2.30997
2.14967
1.97922
1.80695
1.63842
1.4764
1.3221
1.17542
1.0363
0.905682
0.784794
0.674516
0.576684
0.494542
0.430141
0.383332
0.35271
0.336812
0.33371
0.33916
0.347056
0.350739
0.343719
0.320368
0.27725
0.213734
0.131914
0.0432322
2.71149
2.57626
2.4133
2.22943
2.04125
1.85593
1.67679
1.5067
1.34667
1.19712
1.05751
0.927133
0.806435
0.696614
0.599214
0.516142
0.448724
0.397092
0.360485
0.337693
0.326675
0.323721
0.323739
0.32102
0.309714
0.284578
0.241693
0.180254
0.105311
0.033496
2.84014
2.67585
2.48913
2.28293
2.07685
1.88019
1.69546
1.52242
1.36082
1.21034
1.07054
0.940795
0.821131
0.712308
0.61541
0.531522
0.461383
0.405199
0.362679
0.332987
0.31431
0.303468
0.296198
0.287695
0.272854
0.246785
0.204549
0.145665
0.0784357
0.023866
2.92639
2.73168
2.52039
2.29788
2.08073
1.87665
1.68844
1.51521
1.35553
1.20794
1.07104
0.943884
0.826509
0.719599
0.623853
0.53967
0.46728
0.406934
0.358806
0.322569
0.29683
0.278907
0.265211
0.25177
0.234259
0.207682
0.167174
0.111246
0.0520049
0.0144725
2.93341
2.7052
2.47021
2.23755
2.02161
1.82457
1.6449
1.47998
1.32823
1.18816
1.05769
0.935449
0.821786
0.717862
0.624234
0.540569
0.466506
0.402373
0.348967
0.306676
0.274644
0.250601
0.231469
0.214048
0.194833
0.168696
0.130642
0.077941
0.0264989
0.0054367
2.76422
2.50476
2.28291
2.07712
1.8895
1.71942
1.56311
1.41635
1.27917
1.15178
1.03154
0.916379
0.807511
0.707518
0.617153
0.535034
0.459872
0.392144
0.333621
0.285726
0.248225
0.219093
0.195532
0.17505
0.155094
0.130936
0.0957099
0.0464749
0.00232342
-0.00311592
2.32519
2.04751
1.91644
1.80603
1.6842
1.56514
1.44934
1.32982
1.21205
1.10203
0.9959
0.88931
0.785295
0.689683
0.603906
0.524627
0.448832
0.3773
0.313442
0.260219
0.218078
0.184929
0.157893
0.1351
0.11517
0.0939083
0.0627524
0.0175166
-0.0200313
-0.0110494
1.45776
1.17708
1.3175
1.4432
1.42445
1.37697
1.3198
1.23224
1.13247
1.0434
0.956029
0.858484
0.75731
0.665541
0.586059
0.511447
0.43527
0.35901
0.288969
0.230421
0.184492
0.14847
0.118823
0.0942109
0.0748199
0.0574151
0.0319209
-0.00815563
-0.0398469
-0.0182379
141.335
141.416
141.604
141.889
142.254
142.69
143.188
143.74
144.336
144.963
145.609
146.257
146.892
147.492
148.035
148.495
148.84
149.032
149.027
148.768
148.183
147.176
145.613
143.301
139.941
135.036
127.666
115.91
93.7292
33.8235
140.607
140.679
140.845
141.095
141.414
141.792
142.222
142.693
143.196
143.716
144.241
144.754
145.237
145.667
146.021
146.269
146.376
146.301
145.992
145.383
144.392
142.904
140.761
137.731
133.457
127.355
118.393
104.836
85.3267
56.9272
139.838
139.899
140.042
140.256
140.528
140.847
141.206
141.594
142.001
142.413
142.815
143.191
143.52
143.779
143.943
143.979
143.851
143.513
142.909
141.968
140.6
138.683
136.054
132.483
127.644
121.085
112.217
100.407
86.2185
69.6966
139.027
139.078
139.197
139.374
139.597
139.857
140.144
140.448
140.758
141.06
141.339
141.577
141.752
141.842
141.818
141.648
141.292
140.703
139.822
138.579
136.881
134.611
131.618
127.705
122.627
116.093
107.807
97.4435
84.9443
69.8771
138.177
138.218
138.312
138.452
138.626
138.824
139.039
139.259
139.472
139.664
139.82
139.921
139.946
139.87
139.665
139.296
138.725
137.904
136.774
135.267
133.296
130.755
127.515
123.421
118.294
111.934
104.144
94.6836
83.3864
70.4615
137.29
137.32
137.39
137.492
137.616
137.754
137.896
138.031
138.148
138.233
138.268
138.235
138.114
137.878
137.5
136.946
136.177
135.146
133.799
132.072
129.886
127.152
123.765
119.606
114.546
108.45
101.198
92.6915
82.9225
72.3047
136.368
136.388
136.433
136.498
136.572
136.649
136.719
136.772
136.794
136.773
136.69
136.529
136.268
135.882
135.342
134.618
133.67
132.457
130.927
129.023
126.68
123.823
120.37
116.236
111.332
105.582
98.9305
91.3681
82.939
73.9783
135.415
135.425
135.446
135.473
135.499
135.516
135.515
135.486
135.417
135.293
135.098
134.814
134.421
133.894
133.207
132.329
131.225
129.857
128.179
126.142
123.692
120.772
117.32
113.277
108.59
103.221
97.1541
90.4116
83.0432
75.32
134.435
134.435
134.431
134.422
134.4
134.359
134.289
134.182
134.024
133.802
133.5
133.101
132.586
131.93
131.11
130.097
128.86
127.364
125.571
123.441
120.93
117.994
114.592
110.686
106.246
101.258
95.7283
89.6915
83.2009
76.4831
133.432
133.421
133.394
133.349
133.281
133.183
133.048
132.865
132.622
132.308
131.906
131.401
130.773
130.002
129.065
127.936
126.588
124.991
123.114
120.925
118.389
115.477
112.161
108.417
104.235
99.6139
94.5727
89.1504
83.3998
77.5052
132.409
132.389
132.339
132.26
132.147
131.995
131.797
131.542
131.221
130.82
130.326
129.723
128.995
128.121
127.083
125.857
124.419
122.747
120.813
118.594
116.065
113.204
109.996
106.43
102.504
98.2286
93.6266
88.7374
83.6087
78.3885
131.373
131.343
131.272
131.159
131.004
130.801
130.544
130.222
129.827
129.346
128.768
128.078
127.26
126.298
125.174
123.868
122.362
120.636
118.669
116.444
113.944
111.156
108.071
104.687
101.009
97.0519
92.841
88.4123
83.8075
79.1454
130.328
130.289
130.197
130.054
129.859
129.608
129.295
128.911
128.448
127.895
127.241
126.473
125.578
124.54
123.345
121.977
120.421
118.66
116.68
114.469
112.015
109.312
106.357
103.153
99.7098
96.0435
92.1789
88.1481
83.9869
79.7911
129.28
129.233
129.122
128.949
128.717
128.421
128.057
127.617
127.092
126.474
125.753
124.917
123.956
122.855
121.604
120.189
118.598
116.819
114.842
112.659
110.264
107.654
104.831
101.801
98.5758
95.1721
91.6128
87.9262
84.1424
80.339
128.235
128.18
128.052
127.852
127.585
127.249
126.838
126.346
125.767
125.091
124.311
123.418
122.4
121.249
119.954
118.505
116.893
115.11
113.149
111.006
108.677
106.164
103.47
100.605
97.5805
94.4126
91.1223
87.7337
84.2723
80.8012
127.2
127.138
126.993
126.769
126.471
126.097
125.644
125.107
124.478
123.753
122.922
121.98
120.917
119.726
118.398
116.928
115.307
113.53
111.595
109.498
107.24
104.824
102.256
99.5445
96.7028
93.7458
90.6918
87.5616
84.3766
81.1883
126.181
126.113
125.953
125.706
125.38
124.973
124.483
123.905
123.234
122.465
121.592
120.61
119.511
118.289
116.94
115.457
113.836
112.075
110.171
108.126
105.94
103.619
101.17
98.6014
95.9254
93.1562
90.3098
87.404
84.4566
81.5102
125.185
125.112
124.938
124.672
124.32
123.884
123.361
122.747
122.04
121.235
120.327
119.312
118.185
116.942
115.578
114.091
112.479
110.739
108.873
106.881
104.768
102.538
100.2
97.7614
95.2347
92.6321
89.9678
87.2569
84.5145
81.7755
124.22
124.141
123.956
123.672
123.298
122.836
122.284
121.641
120.903
120.067
119.131
118.091
116.943
115.685
114.315
112.831
111.232
109.518
107.691
105.754
103.711
101.568
99.3321
97.0126
94.6196
92.1645
89.6597
87.1181
84.5525
81.992
123.293
123.21
123.014
122.714
122.321
121.837
121.261
120.592
119.828
118.968
118.009
116.95
115.788
114.522
113.151
111.674
110.093
108.408
106.622
104.738
102.762
100.7
98.5578
96.3453
94.0715
91.7464
89.3811
86.9865
84.5737
82.1667
122.411
122.324
122.119
121.806
121.396
120.893
120.296
119.606
118.822
117.942
116.966
115.893
114.722
113.453
112.085
110.62
109.059
107.404
105.658
103.826
101.913
99.9248
97.8684
95.7518
93.5836
91.3728
89.129
86.8618
84.5807
82.3058
121.583
121.492
121.279
120.954
120.53
120.011
119.398
118.69
117.889
116.994
116.006
114.923
113.747
112.479
111.118
109.667
108.127
106.503
104.796
103.013
101.158
99.2374
97.2577
95.2263
93.151
91.0401
88.9018
86.7447
84.577
82.4154
120.815
120.721
120.502
120.167
119.731
119.198
118.571
117.85
117.036
116.13
115.132
114.044
112.867
111.601
110.249
108.813
107.296
105.701
104.032
102.294
100.492
98.632
96.7204
94.764
92.7699
90.7455
88.6983
86.6357
84.565
82.5001
120.117
120.021
119.796
119.452
119.006
118.462
117.824
117.092
116.268
115.353
114.35
113.259
112.082
110.822
109.481
108.061
106.565
104.998
103.363
101.666
99.9117
98.1055
96.2536
94.3624
92.4384
90.4885
88.5191
86.5371
84.5488
82.566
119.498
119.399
119.168
118.817
118.361
117.809
117.161
116.421
115.589
114.669
113.662
112.571
111.397
110.143
108.812
107.407
105.932
104.391
102.787
101.126
99.4135
97.6539
95.8535
94.0181
92.1539
90.2669
88.3632
86.4488
84.5295
82.6152
118.965
118.864
118.627
118.269
117.806
117.246
116.592
115.845
115.009
114.085
113.076
111.985
110.815
109.568
108.247
106.857
105.4
103.882
102.305
100.676
98.9986
97.2787
95.5217
93.7331
91.9187
90.084
88.2348
86.3764
84.5142
82.6566
118.53
118.425
118.181
117.815
117.345
116.779
116.12
115.368
114.527
113.601
112.592
111.502
110.336
109.096
107.785
106.407
104.967
103.467
101.914
100.31
98.6623
96.9748
95.253
93.5022
91.7277
89.9349
88.1289
86.3148
84.4975
82.6839
118.204
118.093
117.84
117.467
116.993
116.422
115.758
115.003
114.16
113.232
112.223
111.135
109.973
108.738
107.436
106.068
104.641
103.157
101.621
100.039
98.414
96.7519
95.0576
93.3363
91.5929
89.8325
88.0601
86.2805
84.4985
82.7201
118.002
117.867
117.596
117.218
116.741
116.169
115.502
114.745
113.901
112.973
111.965
110.879
109.72
108.49
107.193
105.834
104.415
102.943
101.42
99.8512
98.2421
96.5971
94.9212
93.2194
91.4965
89.7574
88.0069
86.2495
84.4897
82.7324
117.983
117.784
117.486
117.101
116.621
116.045
115.376
114.617
113.772
112.844
111.837
110.753
109.596
108.37
107.078
105.724
104.312
102.847
101.333
99.7736
98.1748
96.5409
94.8768
93.1874
91.4773
89.7515
88.0144
86.2707
84.5245
82.7802
-50.4137
-30.2771
-10.7335
36.702
29.5223
18.0193
52.3688
40.4354
29.4242
53.6977
43.3465
35.3849
57.9785
49.746
43.0448
62.3263
55.4597
49.6062
65.5558
59.7036
54.679
68.1102
63.1052
58.8121
70.2619
65.9431
62.2445
72.0768
68.3069
65.086
73.6016
70.2766
67.4429
74.8852
71.9255
69.4082
75.9678
73.3108
71.0544
76.8813
74.4775
72.4383
77.6518
75.4617
73.6051
78.3011
76.2927
74.5906
78.847
76.994
75.4235
79.3046
77.5852
76.1273
79.6867
78.0824
76.7212
80.0042
78.4992
77.2211
80.2665
78.8473
77.6406
80.4821
79.1367
77.9912
80.6575
79.3755
78.2823
80.8009
79.5728
78.5237
80.9145
79.7317
78.7197
81.0101
79.8647
78.8828
81.079
79.9635
79.0064
81.1498
80.0571
79.1172
81.1825
80.106
79.1802
81.2513
80.1889
79.2696
-1.40322
-1.21463
0.163265
1.12075
1.1879
1.17511
1.1893
1.13579
1.04286
0.980124
0.920183
0.830274
0.725261
0.634966
0.564801
0.49817
0.421611
0.33837
0.260188
0.195876
0.14711
0.109571
0.0781033
0.051792
0.0331109
0.0206152
0.0031455
-0.0298744
-0.056259
-0.0245299
4.41762
1.20747
1.99405
1.71893
0.804409
0.709275
1.05801
1.11839
0.970093
0.918107
0.895505
0.809724
0.686762
0.595098
0.541729
0.489735
0.411798
0.316269
0.226015
0.155069
0.105002
0.0679895
0.0354613
0.00684165
-0.0116054
-0.0181978
-0.0244129
-0.0463766
-0.0676459
-0.0295072
15.271
6.79493
3.83065
1.84629
1.24157
1.55661
1.75143
1.18692
0.668742
0.694832
0.882612
0.84168
0.662687
0.553121
0.519359
0.491
0.408742
0.29149
0.18423
0.106715
0.058422
0.0251337
-0.00787736
-0.0406814
-0.0600556
-0.0595688
-0.0501723
-0.0547356
-0.0694666
-0.0321284
24.732
14.9162
9.11109
5.41938
3.42146
2.43566
1.6883
1.13117
0.925795
1.17766
1.30777
0.919334
0.516075
0.385141
0.439905
0.513295
0.434726
0.27602
0.141055
0.0534663
0.00875296
-0.0164995
-0.0492938
-0.0898451
-0.111863
-0.103076
-0.0735841
-0.053159
-0.05817
-0.031663
33.7723
24.0658
16.7723
11.4579
7.74898
5.21896
3.47592
2.36722
1.72738
1.43743
1.17274
0.892036
0.637538
0.557436
0.679353
0.707144
0.467938
0.20525
0.040495
-0.0398809
-0.0564379
-0.051246
-0.0794024
-0.136847
-0.166912
-0.150591
-0.0979187
-0.0452016
-0.0317178
-0.027691
41.6506
32.7578
24.8855
18.4536
13.5113
9.82555
7.11371
5.14525
3.73155
2.74322
2.02823
1.49913
1.07991
0.821259
0.727072
0.630892
0.47173
0.263654
0.0946166
0.00488284
-0.0185565
-0.0278316
-0.101317
-0.205512
-0.247108
-0.213004
-0.126075
-0.0316993
0.0216014
-0.0189536
48.0714
40.287
32.5271
25.643
20.0032
15.5033
11.9373
9.13288
6.95807
5.30299
4.04405
3.06238
2.2859
1.71525
1.3285
1.03287
0.755289
0.468256
0.227032
0.0703302
-0.0130349
-0.0667773
-0.144776
-0.225973
-0.250352
-0.198846
-0.0986534
0.00833427
0.109748
0.000183501
53.3018
46.5827
39.3353
32.5072
26.6113
21.6384
17.4659
14.001
11.1668
8.87912
7.03782
5.54663
4.34203
3.39378
2.66334
2.07944
1.57247
1.11747
0.740426
0.461816
0.268599
0.123845
-0.00859984
-0.119848
-0.171832
-0.147728
-0.0669707
0.0309428
0.117731
-0.0980773
57.5697
51.758
45.1774
38.7016
32.8721
27.739
23.2402
19.3389
16.0035
13.185
10.8182
8.83652
7.18535
5.82351
4.70794
3.78213
2.99219
2.31172
1.7426
1.28825
0.934381
0.652201
0.41631
0.227902
0.107987
0.0652813
0.0799497
0.108164
0.0827111
-0.33619
61.0523
55.985
50.0813
44.0911
38.5251
33.4602
28.868
24.7443
21.0906
17.8905
15.1104
12.7087
10.6451
8.88235
7.38284
6.10344
5.00285
4.05363
3.24438
2.5681
2.01024
1.54855
1.16343
0.850001
0.614741
0.456112
0.35004
0.24518
0.0496965
-0.544097
63.912
59.4498
54.1653
48.6893
43.4799
38.6196
34.0957
29.9199
26.1133
22.682
19.6154
16.8926
14.4889
12.378
10.5316
8.91812
7.50629
6.27128
5.19716
4.2721
3.48164
2.80753
2.23289
1.74832
1.34986
1.02742
0.752864
0.471832
0.0941945
-0.624026
66.2802
62.3118
57.5671
52.5786
47.7502
43.1597
38.8001
34.6885
30.8547
27.3176
24.0814
21.1407
18.4841
16.0967
13.9603
12.0534
10.3539
8.84175
7.50149
6.32013
5.28391
4.37722
3.58481
2.89462
2.29632
1.77424
1.29859
0.818667
0.260542
-0.5575
68.2551
64.6938
60.4107
55.861
51.4005
47.0991
42.9505
38.9717
35.1943
31.6432
28.3312
25.2627
22.4363
19.8463
17.4834
15.3348
13.3862
11.6232
10.033
8.60367
7.32308
6.17782
5.15411
4.2389
3.41874
2.67541
1.98039
1.29074
0.55186
-0.365133
69.9113
66.6889
62.7984
58.6344
54.5123
50.4937
46.5709
42.7583
39.0865
35.5816
32.2608
29.1342
26.2068
23.4798
20.9506
18.6132
16.4598
14.481
12.6675
11.0099
9.498
8.12055
6.86542
5.71982
4.66947
3.69614
2.77449
1.87047
0.946259
-0.0840607
71.3058
68.3681
64.812
60.9838
57.1652
53.4105
49.7101
46.0754
42.5336
39.1106
35.8249
32.6893
29.713
26.9014
24.2566
21.778
19.4623
17.3047
15.2991
13.4389
11.716
10.1214
8.64476
7.27425
5.99632
4.79418
3.64642
2.52696
1.41037
0.244306
72.4833
69.7862
66.5159
62.979
59.4294
55.915
52.4246
48.9661
45.5636
42.241
39.0167
35.9047
32.916
30.0589
27.3386
24.7579
22.3172
20.015
17.8483
15.8126
13.9023
12.1104
10.4281
8.84533
7.34979
5.92678
4.55858
3.22527
1.90925
0.583125
73.4791
70.9864
67.961
64.6767
61.3639
58.0653
54.7684
51.478
48.2146
44.9999
41.8514
38.7832
35.8069
32.9321
30.1663
27.5144
24.9794
22.5621
20.2621
18.077
16.0031
14.0351
12.166
10.3873
8.68826
7.05625
5.47654
3.93331
2.41306
0.90547
74.3214
72.0028
69.1878
66.1226
63.0176
59.9113
56.7901
53.6559
50.5263
47.4205
44.3544
41.3415
38.3936
35.5207
32.7312
30.0317
27.4267
24.9191
22.5099
20.1987
17.9834
15.8602
13.8237
11.8667
9.98013
8.15301
6.37271
4.6258
2.90012
1.19584
75.0335
72.8634
70.2294
67.3542
64.4311
61.495
58.5316
55.5405
52.5364
49.5361
46.554
43.6024
40.6926
37.8346
35.0374
32.3082
29.6525
27.0746
24.5767
22.1598
19.8231
17.5641
15.3789
13.2613
11.2035
9.19594
7.22729
5.28515
3.35708
1.44859
75.6343
73.5912
71.1129
68.4023
65.6378
62.8516
60.0289
57.1673
54.2789
51.3784
48.4783
45.59
42.7237
39.8893
37.0955
34.3499
31.6587
29.0267
26.4573
23.9523
21.512
19.1352
16.8185
14.5572
12.3444
10.1713
8.02744
5.90061
3.7773
1.66483
76.1399
74.205
71.8606
69.2923
66.6658
64.0109
61.3125
58.5669
55.7836
52.9755
50.1535
47.3276
44.5072
41.7015
38.9188
36.1667
33.4516
30.7787
28.1521
25.5742
23.0462
20.5674
18.1356
15.7466
13.3943
11.0707
8.76541
6.46624
4.15836
1.84883
76.564
74.7212
72.4915
70.0458
67.5387
64.9981
62.4089
59.7659
57.0769
54.3529
51.6035
48.8373
46.0627
43.2881
40.5215
37.7699
35.0399
32.3368
29.6649
27.0271
24.4251
21.8589
19.3269
16.8253
14.3487
11.8894
9.43723
6.97957
4.50054
2.0058
76.9174
75.1526
73.0208
70.6801
68.2757
65.8339
63.3394
60.7864
58.181
55.5324
52.849
50.1383
47.4077
44.6648
41.9169
39.1707
36.4324
33.7074
31
28.3135
25.6498
23.0092
20.3906
17.7908
15.2045
12.6243
10.0401
7.43894
4.80415
2.13945
77.211
75.5118
73.4629
71.2113
68.8944
66.537
64.1241
61.6489
59.1162
56.534
53.9095
51.2492
48.5595
45.8472
43.119
40.381
37.6393
34.8989
32.1641
29.4383
26.7235
24.0205
21.328
18.6434
15.9616
13.2753
10.5743
7.84538
5.07144
2.25377
77.451
75.8063
73.8265
71.6497
69.4062
67.1199
64.7759
62.3669
59.8965
57.3716
54.7985
52.1826
49.5297
46.8457
44.1367
41.4084
38.6663
35.9154
33.1597
30.4026
27.6462
24.8912
22.1367
19.3801
16.6165
13.8386
11.0362
8.19597
5.30043
2.34849
77.649
76.0486
74.1256
72.0103
69.8273
67.5996
65.3127
62.9586
60.5403
58.0636
55.5339
52.9561
50.3351
47.6762
44.9849
42.2665
39.5261
36.7682
33.9969
31.2153
28.4255
25.6282
22.8227
20.0064
17.1744
14.3193
11.4311
8.49615
5.49685
2.42888
77.8018
76.2363
74.3583
72.2918
70.1567
67.9757
65.7344
63.4244
61.0479
58.61
56.1157
53.569
50.9743
48.3365
45.6604
42.951
40.2129
37.4506
34.6677
31.8674
29.0516
26.221
23.3749
20.5106
17.6233
14.7057
11.7474
8.73495
5.65069
2.48789
77.9317
76.3919
74.5481
72.5186
70.4199
68.2741
66.0673
63.7908
61.4462
59.038
56.5707
54.048
51.4738
48.8524
46.1885
43.4864
40.7507
37.9855
35.1944
32.3802
29.5449
26.6891
23.8121
20.9111
17.9814
15.0155
12.0029
8.92984
5.7786
2.53838
78.0114
76.4879
74.6665
72.6621
70.5879
68.4657
66.282
64.0279
61.7047
59.3165
56.8674
54.3609
51.8005
49.1903
46.5347
43.8378
41.1039
38.337
35.5406
32.7173
29.869
26.9964
24.0986
21.1729
18.2144
15.2155
12.1655
9.05041
5.8523
2.55866
78.1001
76.5777
74.7686
72.7793
70.7189
68.6094
66.4379
64.1957
61.8835
59.5056
57.0657
54.5671
52.0134
49.4083
46.7561
44.061
41.3271
38.5582
35.7577
32.9285
30.0722
27.1896
24.2797
21.3399
18.3651
15.3477
12.2766
9.13695
5.90821
2.56599
)
;

boundaryField
{
    inlet
    {
        type            zeroGradient;
    }
    outlet
    {
        type            fixedValue;
        value           uniform 0;
    }
    flap
    {
        type            zeroGradient;
    }
    upperWall
    {
        type            zeroGradient;
    }
    lowerWall
    {
        type            zeroGradient;
    }
    frontAndBack
    {
        type            empty;
    }
}


// ************************************************************************* //
