/*--------------------------------*- C++ -*----------------------------------*\
  =========                 |
  \\      /  F ield         | OpenFOAM: The Open Source CFD Toolbox
   \\    /   O peration     | Website:  https://openfoam.org
    \\  /    A nd           | Version:  dev
     \\/     M anipulation  |
\*---------------------------------------------------------------------------*/
FoamFile
{
    version     2.0;
    format      ascii;
    class       surfaceScalarField;
    location    "2.5";
    object      phi;
}
// * * * * * * * * * * * * * * * * * * * * * * * * * * * * * * * * * * * * * //

dimensions      [0 3 -1 0 0 0 0];

internalField   nonuniform List<scalar> 
5457
(
0.198418
0.00158248
0.19648
0.00193756
0.194192
0.00228835
0.191508
0.0026839
0.188426
0.00308157
0.184949
0.00347717
0.18107
0.003879
0.176776
0.00429445
0.172047
0.00472865
0.166861
0.00518563
0.161192
0.00566889
0.155011
0.00618137
0.148286
0.00672524
0.140984
0.00730154
0.133075
0.00790962
0.124528
0.00854648
0.115322
0.00920583
0.105445
0.00987702
0.0949014
0.0105438
0.0837183
0.0111832
0.071954
0.0117642
0.0597062
0.0122479
0.047118
0.0125882
0.0343783
0.0127397
0.0216838
0.0126945
0.00903419
0.0126496
-0.00291743
0.0119516
-0.00847179
0.00555435
-0.00804231
-0.000429476
-0.00804231
0.199928
0.00165443
0.199175
0.00269019
0.197964
0.00349955
0.196331
0.00431741
0.19427
0.005142
0.19178
0.00596766
0.188852
0.00680642
0.185475
0.00767177
0.18163
0.00857401
0.177294
0.00952147
0.172441
0.0105214
0.167043
0.0115801
0.161066
0.0127023
0.154476
0.0138907
0.147241
0.0151448
0.139328
0.0164596
0.13071
0.0178237
0.12137
0.019217
0.111305
0.0206084
0.100536
0.0219527
0.0891118
0.0231883
0.0771247
0.024235
0.0647192
0.0249937
0.0521122
0.0253466
0.0396525
0.0251543
0.028103
0.024199
0.0185924
0.0214623
0.00879442
0.0153523
0.00118217
0.00718278
-0.00686014
0.19978
0.00187397
0.199086
0.00338422
0.197945
0.00464075
0.196408
0.00585436
0.194482
0.00706851
0.192162
0.00828712
0.189444
0.00952429
0.186319
0.0107977
0.18277
0.0121224
0.178781
0.0135108
0.174328
0.0149739
0.169387
0.0165215
0.163928
0.0181612
0.157921
0.0198981
0.151332
0.0217332
0.14413
0.0236615
0.136285
0.0256692
0.127771
0.0277308
0.118575
0.0298051
0.108697
0.0318303
0.0981655
0.0337198
0.0870436
0.0353569
0.0754474
0.0365899
0.0635707
0.0372233
0.0517294
0.0369956
0.0403946
0.0355338
0.0297366
0.0321203
0.0191644
0.0259245
0.00959635
0.0167509
0.00273621
0.199703
0.002171
0.199007
0.00407973
0.197887
0.00576155
0.196375
0.0073656
0.194487
0.00895701
0.19222
0.0105535
0.189572
0.0121724
0.186536
0.0138341
0.183101
0.0155573
0.179254
0.0173577
0.174979
0.0192493
0.170256
0.0212445
0.165064
0.0233532
0.159379
0.0255825
0.153177
0.0279351
0.146432
0.0304067
0.139118
0.0329835
0.131211
0.035638
0.122692
0.038324
0.113551
0.0409709
0.103795
0.0434763
0.0934526
0.045699
0.0825918
0.0474507
0.0713296
0.0484855
0.0598382
0.048487
0.0483146
0.0470573
0.0368091
0.0436258
0.0251866
0.037547
0.0133349
0.0286026
0.0160711
0.199667
0.0025037
0.198964
0.00478319
0.197862
0.00686314
0.19638
0.00884763
0.194531
0.0108062
0.192316
0.0127686
0.189732
0.0147567
0.186773
0.0167932
0.18343
0.0188994
0.179694
0.0210939
0.175551
0.0233927
0.170985
0.0258099
0.165981
0.0283573
0.160521
0.031043
0.154585
0.0338708
0.148155
0.0368373
0.141209
0.0399293
0.133727
0.0431193
0.125691
0.0463606
0.117082
0.0495799
0.107889
0.0526693
0.0981103
0.0554775
0.087761
0.0578
0.0768756
0.059371
0.0655062
0.0598564
0.053706
0.0588575
0.0414524
0.0558794
0.0285867
0.0504128
0.0148518
0.0423375
0.0309229
0.199653
0.00285101
0.198948
0.00548745
0.19787
0.00794137
0.196426
0.0102922
0.194625
0.0126066
0.192471
0.0149226
0.189961
0.0172668
0.18709
0.0196645
0.18385
0.0221392
0.180232
0.0247116
0.176225
0.0273997
0.171816
0.030219
0.166991
0.0331824
0.161735
0.0362992
0.156032
0.0395739
0.149865
0.043004
0.143217
0.0465774
0.136068
0.0502685
0.128396
0.0540326
0.120176
0.0577991
0.111383
0.0614631
0.101984
0.0648757
0.0919509
0.0678336
0.0812508
0.070071
0.0698517
0.0712556
0.057715
0.0709942
0.0447593
0.068835
0.0308483
0.0643238
0.0158727
0.057313
0.0467956
0.19965
0.00320107
0.198954
0.00618365
0.197904
0.0089913
0.196504
0.0116922
0.194761
0.0143492
0.192679
0.0170051
0.190254
0.0196909
0.187484
0.0224347
0.184362
0.0252618
0.180878
0.0281951
0.177024
0.0312542
0.172787
0.0344561
0.168154
0.037815
0.163112
0.0413412
0.157646
0.0450404
0.151738
0.0489117
0.145371
0.052945
0.138521
0.0571179
0.131163
0.0613906
0.123263
0.0656995
0.114777
0.0699493
0.10565
0.0740028
0.0958125
0.0776706
0.0851828
0.0807007
0.0736657
0.0827727
0.0611597
0.0835002
0.0475541
0.0824406
0.032758
0.0791199
0.0167826
0.0732884
0.0635782
0.199655
0.00354653
0.198974
0.00686398
0.197958
0.0100074
0.196609
0.0130413
0.194933
0.0160257
0.192931
0.0190061
0.190605
0.0220176
0.187949
0.0250905
0.184959
0.0282524
0.181626
0.0315278
0.177942
0.0349381
0.173896
0.038502
0.169476
0.042235
0.164668
0.046149
0.159457
0.0502516
0.153824
0.0545442
0.147749
0.0590203
0.141204
0.0636625
0.134156
0.0684386
0.12656
0.0732958
0.118356
0.0781538
0.109464
0.0828948
0.0997818
0.0873524
0.0891837
0.0912989
0.0775226
0.0944338
0.0646458
0.0963769
0.0504167
0.0966698
0.0347679
0.0947687
0.0177898
0.0902665
0.081368
0.199664
0.00388248
0.199006
0.00752201
0.198029
0.0109839
0.196738
0.0143332
0.195135
0.0176282
0.193225
0.0209165
0.191006
0.024236
0.188477
0.0276197
0.185633
0.031097
0.182466
0.0346941
0.17897
0.0384342
0.175135
0.0423375
0.170948
0.0464214
0.166397
0.0506999
0.161466
0.0551831
0.156134
0.0598759
0.150378
0.0647767
0.144165
0.0698754
0.137454
0.0751499
0.130188
0.0805618
0.122291
0.0860508
0.11366
0.091525
0.104163
0.0968497
0.09363
0.101832
0.0818621
0.106202
0.0686481
0.109591
0.0538017
0.111516
0.0372368
0.111334
0.0190837
0.10842
0.100452
0.199677
0.00420538
0.199047
0.00815249
0.198115
0.0119156
0.196886
0.0155619
0.195365
0.0191496
0.193554
0.0227276
0.191453
0.0263364
0.189062
0.0300111
0.186376
0.0337829
0.18339
0.0376796
0.180099
0.0417261
0.176492
0.0459444
0.172559
0.0503537
0.168289
0.0549706
0.163663
0.0598084
0.158663
0.0648765
0.15326
0.0701796
0.147419
0.0757163
0.141091
0.0814773
0.134211
0.0874421
0.126688
0.0935743
0.118398
0.0998148
0.109178
0.10607
0.098815
0.112194
0.0870499
0.117967
0.073589
0.123052
0.058149
0.126956
0.0405531
0.128929
0.0209024
0.12807
0.121354
0.199693
0.00451258
0.199094
0.00875111
0.198212
0.0127975
0.197052
0.016722
0.195618
0.0205835
0.193914
0.024432
0.19194
0.0283101
0.189697
0.0322547
0.187181
0.0362987
0.184389
0.0404713
0.181316
0.0447991
0.177955
0.0493057
0.174296
0.0540125
0.170328
0.0589386
0.166035
0.0641011
0.161398
0.0695144
0.156387
0.0751903
0.150966
0.0811376
0.145082
0.0873612
0.138663
0.0938609
0.131609
0.100628
0.123781
0.107643
0.114989
0.114862
0.104978
0.122206
0.0934162
0.129528
0.0798977
0.13657
0.0639698
0.142884
0.0452377
0.147661
0.023614
0.149694
0.144968
0.199711
0.00480202
0.199147
0.00931437
0.198319
0.0136255
0.197233
0.0178087
0.195892
0.0219242
0.194301
0.026023
0.192462
0.0301493
0.190375
0.0343416
0.188039
0.0386342
0.185453
0.0430577
0.182612
0.04764
0.179511
0.0524063
0.176144
0.05738
0.1725
0.062583
0.168565
0.0680359
0.164321
0.0737583
0.159742
0.0797693
0.154791
0.0860884
0.149417
0.0927351
0.143547
0.0997305
0.137079
0.107096
0.129868
0.114855
0.121707
0.123023
0.112308
0.131604
0.10127
0.140566
0.0880459
0.149795
0.071927
0.159003
0.0520922
0.167496
0.0278905
0.173896
0.172859
0.19973
0.00507209
0.199205
0.0098394
0.198435
0.0143958
0.197425
0.0188178
0.196183
0.0231668
0.194711
0.0274948
0.193013
0.0318474
0.19109
0.0362643
0.188943
0.0407809
0.186572
0.045429
0.183975
0.0502375
0.181148
0.0552331
0.178087
0.060441
0.174785
0.0658853
0.171231
0.0715899
0.16741
0.0775793
0.1633
0.0838793
0.158869
0.0905191
0.154072
0.0975322
0.148843
0.10496
0.143087
0.112852
0.136667
0.121275
0.129382
0.130308
0.120934
0.140052
0.11088
0.150621
0.0985449
0.162129
0.0829085
0.17464
0.062447
0.187958
0.0351351
0.201208
0.207994
0.199751
0.00532152
0.199266
0.0103239
0.198556
0.0151056
0.197628
0.0197458
0.196488
0.0243072
0.19514
0.0288428
0.193588
0.033399
0.191836
0.0380166
0.189885
0.0427319
0.187737
0.0475773
0.185392
0.0525826
0.182849
0.0577756
0.180107
0.0631827
0.177163
0.0688299
0.174009
0.0747438
0.170636
0.0809525
0.167027
0.0874875
0.163161
0.0943855
0.159002
0.101691
0.154499
0.109463
0.149577
0.117774
0.144126
0.126726
0.137979
0.136456
0.130875
0.147155
0.122401
0.159095
0.111863
0.172668
0.0980292
0.188473
0.0785581
0.207429
0.0486869
0.231079
0.256681
0.199772
0.00554935
0.19933
0.0107661
0.198683
0.0157525
0.197839
0.0205899
0.196804
0.0253422
0.195584
0.0300632
0.194183
0.0347999
0.192606
0.0395938
0.190856
0.0444816
0.188937
0.0494964
0.186851
0.0546683
0.184601
0.0600256
0.182188
0.0655956
0.179613
0.0714053
0.176874
0.0774829
0.173967
0.083859
0.170886
0.0905684
0.167619
0.0976528
0.164146
0.105164
0.160439
0.11317
0.156454
0.121759
0.152126
0.131054
0.147354
0.141228
0.14198
0.152529
0.135743
0.165332
0.128172
0.180239
0.118329
0.198317
0.103961
0.221797
0.0777471
0.257293
0.334428
0.00534727
-0.00534727
0.0103169
-0.00496965
0.014577
-0.00426006
0.0181949
-0.00361792
0.0212863
-0.00309145
0.0239499
-0.00266358
0.0262656
-0.00231571
0.0282978
-0.00203213
0.030096
-0.00179818
0.0316976
-0.00160161
0.0331294
-0.00143188
0.0344041
-0.00127468
0.0355109
-0.00110675
0.0364133
-0.000902402
0.0370727
-0.00065946
0.0374916
-0.000418856
0.0377177
-0.000226112
0.0377781
-6.04327e-05
0.0376646
0.000113585
0.0374118
0.000252755
0.0370949
0.000316937
0.0368191
0.000275748
0.0366676
0.000151561
0.0367059
-3.83836e-05
0.0369585
-0.000252561
0.0374557
-0.000497206
0.0382014
-0.000745727
0.0391881
-0.000986635
0.0403795
-0.00119145
-0.00114356
0.00450589
-0.00985316
0.00889743
-0.00936119
0.0127445
-0.00810712
0.0160633
-0.00693673
0.0189508
-0.00597896
0.0214914
-0.00520417
0.0237508
-0.00457513
0.0257794
-0.00406071
0.0276147
-0.00363351
0.0292859
-0.00327278
0.030818
-0.00296402
0.0322311
-0.00268775
0.0335285
-0.00240419
0.0346834
-0.0020573
0.0356494
-0.0016254
0.0364097
-0.00117914
0.0370213
-0.000837733
0.03753
-0.000569146
0.0379203
-0.000276693
0.0381738
-7.65582e-07
0.0383046
0.000186089
0.0383956
0.000184801
0.0384647
8.24321e-05
0.0385131
-8.67589e-05
0.0385503
-0.000289749
0.0385507
-0.00049767
0.0385226
-0.000717593
0.0384957
-0.000959711
0.0385226
-0.00121836
-0.00155872
0.00351011
-0.0133633
0.00686131
-0.0127124
0.00976983
-0.0110156
0.0122725
-0.00943941
0.0144427
-0.00814917
0.0163412
-0.00710261
0.0180167
-0.0062507
0.019505
-0.00554895
0.0208296
-0.00495814
0.0220076
-0.00445077
0.0230578
-0.00401422
0.0240054
-0.00363538
0.0248673
-0.00326608
0.0256258
-0.0028158
0.0262196
-0.0022192
0.0266023
-0.0015618
0.0268825
-0.00111796
0.0270664
-0.000752997
0.0268612
-7.15464e-05
0.0261317
0.000728754
0.0249482
0.00136962
0.0234337
0.0016993
0.0217498
0.00176625
0.0200774
0.00158567
0.0186232
0.00116445
0.017598
0.000527547
0.016965
-8.46086e-05
0.0167772
-0.000771837
0.0171432
-0.00158442
-0.00249056
0.00247077
-0.015834
0.00462383
-0.0148654
0.0064037
-0.0127955
0.00790119
-0.0109369
0.00916113
-0.00940911
0.0102181
-0.00815956
0.0111035
-0.00713617
0.0118398
-0.00628519
0.0124381
-0.00555651
0.0128991
-0.00491171
0.0132219
-0.004337
0.0134273
-0.00384082
0.0135548
-0.00339356
0.0136338
-0.00289485
0.0136139
-0.00219931
0.0131844
-0.00113231
0.011962
0.000104516
0.0101483
0.00106067
0.00847004
0.00160671
0.00709788
0.00210091
0.0058425
0.002625
0.00463633
0.00290547
0.00353141
0.00287117
0.00260725
0.00250983
0.00193914
0.00183255
0.00158376
0.000882929
0.0016979
-0.000198747
0.00223491
-0.00130885
0.00315724
-0.00250675
-0.00344462
0.00130514
-0.0171392
0.00213977
-0.0157001
0.00268175
-0.0133375
0.00304568
-0.0113008
0.00324178
-0.00960522
0.00328736
-0.00820514
0.00319834
-0.00704715
0.00298882
-0.00607566
0.00266768
-0.00523536
0.00222939
-0.00447342
0.0016405
-0.00374812
0.000826445
-0.00302676
-0.000287851
-0.00227926
-0.00167898
-0.00150372
-0.00326317
-0.000615117
-0.00471032
0.000314842
-0.00572871
0.0011229
-0.00648258
0.00181454
-0.0072825
0.00240663
-0.00805982
0.00287824
-0.00868717
0.00325235
-0.00916656
0.00338485
-0.00949551
0.00320012
-0.00967044
0.00268475
-0.00970085
0.00186296
-0.00960793
0.000790008
-0.00937938
-0.000427296
-0.00901398
-0.00167425
-0.00865082
-0.00286991
-0.00380853
-6.83288e-05
-0.0170708
-0.000569394
-0.015199
-0.00131867
-0.0125882
-0.00218257
-0.0104369
-0.00316405
-0.00862374
-0.00424907
-0.00712012
-0.00543117
-0.00586505
-0.00670399
-0.00480285
-0.00805841
-0.00388094
-0.00947697
-0.00305485
-0.0109281
-0.00229698
-0.012371
-0.00158387
-0.0137683
-0.000881961
-0.0150984
-0.000173629
-0.0162014
0.000487846
-0.0170315
0.00114497
-0.0177145
0.00180593
-0.0183032
0.00240326
-0.0187938
0.00289716
-0.0191808
0.00326529
-0.0194134
0.00348493
-0.0195005
0.00347197
-0.0194708
0.00317045
-0.0193565
0.00257043
-0.0191919
0.00169837
-0.0190068
0.00060495
-0.0188234
-0.000610785
-0.0186516
-0.00184598
-0.0185022
-0.00301939
-0.00396541
-0.00143304
-0.0156378
-0.00339317
-0.0132389
-0.00545137
-0.01053
-0.00755692
-0.00833139
-0.00965459
-0.00652606
-0.0117213
-0.00505344
-0.0137289
-0.00385739
-0.0156525
-0.00287932
-0.0174698
-0.00206355
-0.0191713
-0.00135337
-0.0207508
-0.000717484
-0.0221989
-0.000135778
-0.0234642
0.000383294
-0.0244957
0.000857928
-0.0253484
0.00134052
-0.026062
0.00185857
-0.0266317
0.00237564
-0.0270669
0.00283839
-0.0273737
0.00320399
-0.0275517
0.00344327
-0.0275901
0.00352335
-0.0275075
0.00338935
-0.0273392
0.00300219
-0.0271244
0.00235557
-0.0269011
0.00147516
-0.0267045
0.000408342
-0.0265657
-0.000749663
-0.0264893
-0.00192238
-0.026462
-0.00304663
-0.0039514
-0.0028971
-0.0127407
-0.00620476
-0.00993122
-0.00949144
-0.00724334
-0.0126306
-0.00519223
-0.0155515
-0.00360518
-0.0182374
-0.00236753
-0.0206772
-0.00141756
-0.0228795
-0.000677039
-0.0248558
-8.73045e-05
-0.0265882
0.000379096
-0.0280688
0.000763085
-0.0293151
0.00111057
-0.0303778
0.00144591
-0.0313071
0.00178729
-0.0321072
0.00214063
-0.0327585
0.00250986
-0.0332542
0.00287135
-0.0336016
0.00318574
-0.0338117
0.00341416
-0.0338923
0.00352385
-0.0338501
0.00348116
-0.0337077
0.00324698
-0.0334998
0.00279429
-0.033265
0.00212077
-0.0330429
0.001253
-0.0328708
0.000236211
-0.0327821
-0.000838281
-0.0327793
-0.00192526
-0.032853
-0.0029729
-0.00379175
-0.00441301
-0.0083277
-0.00897658
-0.00536765
-0.0133215
-0.00289838
-0.0172627
-0.0012511
-0.0207496
-0.000118278
-0.0237417
0.000624647
-0.0262748
0.00111548
-0.0284148
0.00146302
-0.0302271
0.00172499
-0.0317869
0.00193886
-0.0331578
0.00213397
-0.0343643
0.00231704
-0.0354169
0.00249856
-0.036318
0.00268843
-0.0370697
0.0028923
-0.037668
0.0031082
-0.0381139
0.00331716
-0.0384152
0.00348712
-0.0385838
0.00358267
-0.0386308
0.00357091
-0.0385704
0.00342077
-0.0384267
0.00310325
-0.0382327
0.00260033
-0.0380255
0.00191352
-0.0378416
0.00106917
-0.0377181
0.000112656
-0.0376858
-0.000870522
-0.0377544
-0.00185669
-0.0379171
-0.00281019
-0.00354055
-0.00621155
-0.00211615
-0.0120999
0.000520718
-0.0170585
0.00206016
-0.0211988
0.00288929
-0.0246186
0.00330151
-0.027475
0.00348104
-0.0299171
0.00355757
-0.0320231
0.00356898
-0.0338465
0.00354841
-0.0354293
0.00352169
-0.0368014
0.00350606
-0.0379898
0.0035054
-0.0390108
0.00351959
-0.0398722
0.00354989
-0.0405793
0.0035993
-0.0411364
0.00366539
-0.0415511
0.00373181
-0.0418333
0.0037693
-0.0419942
0.00374358
-0.0420458
0.00362255
-0.0420041
0.00337901
-0.0418927
0.00299187
-0.0417426
0.00245022
-0.0415881
0.00175902
-0.0414641
0.000945197
-0.0414069
5.54139e-05
-0.0414428
-0.000834583
-0.0415848
-0.00171463
-0.0418283
-0.0025667
-0.00321785
-0.00748448
0.00536833
-0.0139172
0.00695347
-0.0191316
0.00727455
-0.0234422
0.00719991
-0.02702
0.00687931
-0.0300049
0.00646591
-0.0325037
0.0060563
-0.0346166
0.00568195
-0.0364174
0.00534917
-0.0379594
0.00506369
-0.0392841
0.00483075
-0.0404232
0.00464455
-0.0413955
0.00449183
-0.04221
0.00436443
-0.0428745
0.00426381
-0.0433994
0.00419025
-0.0437971
0.00412956
-0.0440795
0.0040517
-0.0442565
0.00392059
-0.0443385
0.0037045
-0.0443402
0.00338075
-0.0442841
0.00293577
-0.0441988
0.00236494
-0.0441157
0.00167583
-0.0440664
0.00089595
-0.0440847
7.37507e-05
-0.0441945
-0.000724803
-0.0444113
-0.00149781
-0.0447321
-0.00224595
-0.0028241
-0.00812056
0.0134889
-0.0152149
0.0140478
-0.020936
0.0129956
-0.0254575
0.0117214
-0.029069
0.0104909
-0.0319919
0.00938877
-0.0343928
0.00845725
-0.0364006
0.00768967
-0.0380971
0.00704568
-0.0395376
0.00650418
-0.0407705
0.00606365
-0.0418335
0.00570756
-0.0427446
0.00540291
-0.0435087
0.0051286
-0.0441329
0.00488795
-0.0446322
0.0046896
-0.0450248
0.00452217
-0.0453239
0.00435074
-0.0455364
0.00413318
-0.0456689
0.00383694
-0.0457331
0.00344499
-0.0457497
0.0029523
-0.0457452
0.00236047
-0.0457478
0.00167842
-0.0457844
0.000932522
-0.0458839
0.000173303
-0.0460686
-0.000540145
-0.0463605
-0.00120591
-0.0467593
-0.00184708
-0.00235386
-0.00937121
0.0228601
-0.0173118
0.0219884
-0.0232078
0.0188917
-0.0275679
0.0160815
-0.0309252
0.0138482
-0.0335668
0.0120303
-0.035698
0.0105885
-0.0374817
0.00947337
-0.0389958
0.00855974
-0.0402779
0.00778634
-0.0413785
0.00716426
-0.0423443
0.00667327
-0.0431888
0.00624745
-0.0439041
0.00584389
-0.0444911
0.00547491
-0.0449707
0.00516921
-0.0453693
0.00492077
-0.0457013
0.00468275
-0.0459682
0.0044001
-0.0461693
0.004038
-0.0463118
0.00358753
-0.0464147
0.00305519
-0.0465038
0.00244953
-0.046604
0.00177867
-0.046736
0.00106453
-0.04692
0.000357342
-0.0471798
-0.000280383
-0.0475461
-0.000839672
-0.0480269
-0.00136622
-0.00179932
-0.0116671
0.0345272
-0.0207626
0.0310838
-0.0263534
0.0244825
-0.0299394
0.0196675
-0.0326743
0.0165831
-0.0347918
0.0141478
-0.0364626
0.0122593
-0.0379073
0.0109181
-0.0391804
0.0098328
-0.0402567
0.00886266
-0.0411858
0.00809334
-0.0420392
0.00752668
-0.0428228
0.0070311
-0.0434987
0.00651978
-0.0440531
0.0060293
-0.0445175
0.00563357
-0.0449337
0.00533704
-0.0453178
0.00506679
-0.0456601
0.00474242
-0.0459479
0.00432584
-0.0461824
0.00382203
-0.0463823
0.00325505
-0.0465749
0.00264212
-0.0467831
0.00198691
-0.0470197
0.00130113
-0.0472947
0.000632306
-0.0476296
5.45225e-05
-0.0480674
-0.000401824
-0.048635
-0.000798639
-0.00114917
-0.015854
0.0503813
-0.0264816
0.0417114
-0.0309479
0.0289487
-0.0325682
0.0212878
-0.0342707
0.0182856
-0.0356538
0.0155309
-0.0366452
0.0132507
-0.0376479
0.0119207
-0.0386766
0.0108615
-0.0395168
0.00970291
-0.0402262
0.00880269
-0.0409569
0.00825742
-0.0417047
0.00777889
-0.0423647
0.00717977
-0.0428923
0.00655689
-0.0433426
0.00608388
-0.0437905
0.00578492
-0.0442529
0.00552923
-0.0446985
0.00518797
-0.0450943
0.00472167
-0.0454337
0.0041614
-0.0457386
0.00355991
-0.0460426
0.00294613
-0.0463685
0.00231286
-0.0467198
0.00165239
-0.047093
0.00100555
-0.0475041
0.000465546
-0.0480084
0.000102514
-0.0486649
-0.000142139
-0.000378379
0.207447
0.00576226
0.207034
0.011179
0.206431
0.0163554
0.205646
0.0213749
0.204686
0.0263021
0.203558
0.0311914
0.202267
0.0360903
0.200821
0.0410405
0.199223
0.046079
0.197481
0.0512389
0.195599
0.0565505
0.193582
0.0620419
0.191437
0.0677406
0.189169
0.0736739
0.186781
0.0798702
0.184279
0.0863609
0.181666
0.0931818
0.178943
0.100376
0.176111
0.107996
0.173167
0.116113
0.170109
0.124817
0.166931
0.134232
0.16363
0.144529
0.160208
0.155951
0.156687
0.168852
0.153166
0.18376
0.150014
0.201469
0.148921
0.22289
0.160722
0.245492
0.258524
0.236625
0.21249
0.00595484
0.212117
0.0115521
0.211573
0.0168994
0.210867
0.0220813
0.210006
0.0271633
0.208997
0.0321997
0.207849
0.0372383
0.206569
0.0423208
0.205164
0.0474839
0.203643
0.0527603
0.202013
0.05818
0.200285
0.0637705
0.198467
0.0695585
0.19657
0.0755705
0.194606
0.081834
0.192588
0.088379
0.190531
0.0952395
0.188451
0.102456
0.18637
0.110077
0.184317
0.118166
0.182333
0.126801
0.180477
0.136087
0.178851
0.146155
0.177626
0.157176
0.177125
0.169353
0.178005
0.18288
0.181687
0.197787
0.190782
0.213795
0.206303
0.229971
0.245376
0.219451
0.217657
0.00612493
0.217328
0.0118814
0.216849
0.0173785
0.216229
0.0227016
0.215476
0.0279163
0.214598
0.0330772
0.213605
0.0382315
0.212505
0.0434206
0.211309
0.0486805
0.210025
0.0540434
0.208668
0.0595378
0.207248
0.0651904
0.20578
0.0710262
0.204281
0.0770698
0.202768
0.0833463
0.201265
0.0898825
0.199797
0.0967079
0.198396
0.103856
0.197105
0.111368
0.195979
0.119291
0.195097
0.127683
0.194573
0.136611
0.194576
0.146152
0.19537
0.156382
0.197366
0.167357
0.201175
0.179071
0.207565
0.191397
0.217193
0.204167
0.229765
0.217399
0.228515
0.246626
0.222951
0.00627055
0.222669
0.012163
0.222261
0.0177872
0.221734
0.0232285
0.221098
0.0285527
0.220361
0.0338136
0.219534
0.0390582
0.218628
0.0443268
0.217654
0.0496546
0.216625
0.0550723
0.215556
0.0606071
0.214463
0.0662836
0.213364
0.0721245
0.212283
0.0781517
0.211242
0.0843865
0.210274
0.0908507
0.209415
0.0975675
0.208709
0.104562
0.208217
0.111861
0.208014
0.119495
0.208202
0.127494
0.208923
0.135891
0.210369
0.144706
0.212803
0.153948
0.216571
0.163589
0.222091
0.173551
0.22981
0.183678
0.240293
0.193684
0.254453
0.20324
0.21009
0.272877
0.228374
0.00638984
0.228144
0.0123933
0.227811
0.0181202
0.227384
0.0236555
0.226872
0.0290642
0.226286
0.0343997
0.225636
0.0397078
0.224935
0.0450278
0.224197
0.0503934
0.223435
0.0558336
0.222669
0.0613736
0.221917
0.0670354
0.221203
0.072839
0.220552
0.0788023
0.219996
0.0849421
0.219573
0.0912741
0.219327
0.0978136
0.219313
0.104575
0.219602
0.111572
0.22028
0.118816
0.221462
0.126313
0.22329
0.134062
0.22595
0.142046
0.229673
0.150226
0.234736
0.158526
0.241467
0.16682
0.250242
0.174903
0.261505
0.182421
0.275724
0.18902
0.193616
0.292199
0.233929
0.0064811
0.233753
0.0125692
0.233501
0.0183729
0.23318
0.0239764
0.2328
0.0294438
0.232373
0.0348273
0.231909
0.0401713
0.231423
0.0455137
0.23093
0.0508865
0.230447
0.0563165
0.229994
0.0618265
0.229594
0.0674357
0.229273
0.0731605
0.22906
0.0790145
0.228993
0.0850093
0.229113
0.091154
0.229471
0.0974557
0.230128
0.103918
0.231158
0.110542
0.232653
0.117322
0.234723
0.124243
0.237505
0.13128
0.241162
0.138389
0.245886
0.145502
0.251895
0.152517
0.259431
0.159284
0.268734
0.1656
0.27998
0.171175
0.293261
0.175739
0.17878
0.308098
0.23962
0.00654285
0.239501
0.0126876
0.239333
0.0185412
0.239123
0.0241861
0.238882
0.0296853
0.23862
0.0350893
0.23835
0.0404411
0.238087
0.0457767
0.237848
0.0511258
0.237651
0.0565132
0.237518
0.0619588
0.237475
0.0674787
0.237551
0.0730854
0.237777
0.0787881
0.238193
0.0845929
0.238845
0.0905024
0.239785
0.0965157
0.241076
0.102627
0.242793
0.108826
0.245022
0.115092
0.247867
0.121398
0.251447
0.1277
0.255897
0.13394
0.261365
0.140034
0.268006
0.145875
0.275971
0.151319
0.285378
0.156194
0.296269
0.160284
0.308633
0.163375
0.165202
0.32221
0.245448
0.00657382
0.24539
0.0127462
0.245309
0.0186215
0.245215
0.0242804
0.245117
0.0297837
0.245025
0.0351804
0.244955
0.0405115
0.244921
0.0458109
0.24494
0.0511062
0.245034
0.0564194
0.245226
0.0617676
0.245541
0.0671636
0.24601
0.072616
0.246668
0.0781297
0.247556
0.0837056
0.248718
0.0893402
0.250208
0.0950256
0.252087
0.100748
0.254424
0.106488
0.2573
0.112217
0.260802
0.117895
0.26503
0.123473
0.270087
0.128883
0.276078
0.134043
0.283105
0.138848
0.291245
0.143178
0.300547
0.146892
0.310998
0.149833
0.32253
0.151843
0.152791
0.334941
0.251418
0.006573
0.251421
0.012743
0.251431
0.0186113
0.251456
0.0242558
0.251504
0.0297352
0.251588
0.0350966
0.251721
0.0403787
0.251919
0.0456131
0.2522
0.050825
0.252586
0.0560338
0.253099
0.0612537
0.253769
0.0664941
0.254625
0.0717602
0.255702
0.0770524
0.25704
0.0823672
0.258685
0.0876961
0.260685
0.0930254
0.263097
0.0983356
0.265985
0.103601
0.269416
0.108786
0.273462
0.113849
0.2782
0.118734
0.283706
0.123378
0.290047
0.127702
0.297279
0.131616
0.305438
0.13502
0.314523
0.137807
0.324489
0.139867
0.335237
0.141095
0.141432
0.346596
0.257532
0.00653962
0.257599
0.0126767
0.257701
0.0185085
0.257847
0.02411
0.258045
0.0295375
0.258306
0.0348356
0.258644
0.0400408
0.259074
0.0451823
0.259617
0.0502828
0.260292
0.0553589
0.261123
0.0604221
0.262139
0.0654787
0.263368
0.0705305
0.264846
0.0755746
0.26661
0.0806034
0.268701
0.0856044
0.271167
0.0905601
0.274055
0.0954469
0.277421
0.100235
0.281318
0.104888
0.285805
0.109362
0.290934
0.113605
0.296757
0.117555
0.303313
0.121146
0.310625
0.124303
0.318696
0.126949
0.327498
0.129005
0.336968
0.130397
0.347
0.131062
0.130978
0.357454
0.263794
0.00647322
0.263924
0.0125462
0.264121
0.018312
0.264389
0.0238419
0.264737
0.0291895
0.265176
0.034397
0.265718
0.0394983
0.26638
0.0445201
0.267181
0.0494827
0.268139
0.0544002
0.26928
0.0592813
0.270629
0.0641297
0.272215
0.0689443
0.274071
0.0737192
0.27623
0.0784441
0.278731
0.0831037
0.281613
0.0876778
0.284919
0.092141
0.288692
0.0964626
0.292974
0.100606
0.297807
0.104529
0.303227
0.108185
0.309262
0.11152
0.31593
0.114478
0.323231
0.117002
0.331148
0.119032
0.339636
0.120516
0.348627
0.121406
0.358023
0.121666
0.121297
0.367704
0.270207
0.00637361
0.270401
0.0123514
0.270692
0.0180215
0.271083
0.0234513
0.27158
0.0286916
0.272196
0.0337818
0.272941
0.0387532
0.273831
0.0436302
0.274883
0.0484306
0.276117
0.0531661
0.277555
0.057843
0.279222
0.0624628
0.281144
0.067022
0.283351
0.0715126
0.285873
0.0759224
0.288742
0.0802343
0.291993
0.0844273
0.295658
0.0884755
0.299772
0.092349
0.304364
0.0960134
0.309463
0.0994306
0.315088
0.102559
0.321253
0.105356
0.327956
0.107775
0.335185
0.109773
0.342909
0.111309
0.351077
0.112348
0.359621
0.112862
0.368453
0.112834
0.112277
0.377473
0.276774
0.0062409
0.277032
0.0120925
0.277416
0.0176375
0.277928
0.0229393
0.278575
0.0280455
0.279364
0.0329927
0.280307
0.0378098
0.281419
0.0425186
0.282715
0.0471347
0.284213
0.0516676
0.285934
0.0561217
0.287901
0.0604965
0.290136
0.0647869
0.292665
0.0689835
0.295514
0.0730728
0.298711
0.0770376
0.302282
0.0808566
0.306252
0.0845052
0.310645
0.0879554
0.315483
0.0911763
0.320778
0.094135
0.326541
0.0967967
0.33277
0.0991266
0.339454
0.10109
0.34657
0.102657
0.354082
0.103798
0.361936
0.104493
0.37007
0.104728
0.378405
0.1045
0.103825
0.386857
0.283498
0.00607546
0.28382
0.0117702
0.284297
0.0171613
0.284928
0.0223079
0.285719
0.0272542
0.286678
0.0320341
0.287814
0.0366739
0.289139
0.0411932
0.290669
0.0456053
0.292418
0.0499181
0.294406
0.0541341
0.296651
0.0582514
0.299174
0.062264
0.301996
0.0661617
0.305138
0.0699307
0.308621
0.0735541
0.312466
0.0770117
0.316691
0.0802808
0.321309
0.0833365
0.326334
0.086152
0.331769
0.0886997
0.337614
0.0909519
0.343859
0.0928817
0.350485
0.0944642
0.357464
0.0956778
0.364756
0.0965058
0.372311
0.0969373
0.380071
0.0969685
0.387968
0.0966027
0.0958603
0.395932
0.290384
0.00587793
0.290768
0.0113858
0.291335
0.0165949
0.292083
0.0215599
0.293015
0.0263218
0.294138
0.0309115
0.295459
0.0353529
0.296988
0.0396634
0.298739
0.0438545
0.300725
0.0479323
0.302961
0.0518982
0.305463
0.0557495
0.308248
0.0594792
0.311332
0.0630773
0.314732
0.0665304
0.318464
0.0698224
0.32254
0.0729351
0.326973
0.0758482
0.331769
0.0785402
0.336932
0.0809888
0.34246
0.0831719
0.348344
0.0850678
0.354569
0.086657
0.361111
0.0879222
0.367939
0.0888501
0.375013
0.0894316
0.382287
0.0896632
0.389708
0.0895473
0.397219
0.089092
0.0883185
0.404761
0.297435
0.00564917
0.297879
0.0109411
0.298533
0.0159411
0.299394
0.0206993
0.300462
0.0252534
0.301742
0.0296316
0.30324
0.0338553
0.304963
0.0379399
0.306922
0.0418953
0.309128
0.0457263
0.311593
0.0494333
0.314329
0.053013
0.31735
0.0564585
0.320668
0.0597599
0.324293
0.0629049
0.328237
0.0658789
0.332506
0.0686657
0.337106
0.0712479
0.342039
0.0736077
0.347301
0.0757272
0.352883
0.0775889
0.358774
0.0791773
0.364953
0.0804784
0.371393
0.0814815
0.378064
0.0821792
0.384927
0.0825683
0.39194
0.0826503
0.399056
0.0824314
0.406226
0.0819225
0.0811442
0.4134
0.304654
0.00539023
0.305157
0.0104381
0.305895
0.0152029
0.306864
0.0197305
0.308062
0.024055
0.309492
0.028202
0.311157
0.0321907
0.313062
0.0360345
0.315215
0.0397419
0.317625
0.0433167
0.320299
0.0467588
0.323248
0.0500644
0.326479
0.0532271
0.330002
0.0562377
0.333822
0.059085
0.337944
0.0617563
0.342372
0.0642378
0.347105
0.066515
0.352139
0.0685736
0.357467
0.0703997
0.363075
0.0719804
0.368948
0.0733046
0.375063
0.0743636
0.381393
0.0751514
0.387907
0.0756652
0.394569
0.0759059
0.401341
0.0758781
0.408182
0.0755905
0.41505
0.0750549
0.074291
0.421903
0.312046
0.00510233
0.312605
0.00987924
0.313424
0.0143842
0.314496
0.0186585
0.315818
0.0227332
0.317389
0.026631
0.31921
0.0303691
0.321285
0.0339593
0.323619
0.0374087
0.326215
0.0407204
0.32908
0.0438938
0.332219
0.0469253
0.335637
0.049809
0.339338
0.0525366
0.343325
0.0550985
0.347597
0.0574839
0.352154
0.0596813
0.35699
0.0616791
0.362097
0.0634662
0.367464
0.0650322
0.373077
0.0663682
0.378914
0.067467
0.384954
0.0683236
0.39117
0.0689358
0.397531
0.069304
0.404005
0.0694318
0.410557
0.069326
0.417152
0.0689961
0.423752
0.0684545
0.0677192
0.430324
0.319615
0.00478678
0.320227
0.0092671
0.321123
0.0134887
0.322293
0.0174887
0.323731
0.0212947
0.325435
0.0249272
0.327403
0.028401
0.329636
0.0317266
0.332134
0.03491
0.334901
0.0379535
0.337938
0.0408567
0.341248
0.0436161
0.34483
0.0462264
0.348686
0.0486805
0.352815
0.0509703
0.357212
0.053087
0.361871
0.0550213
0.366786
0.0567644
0.371945
0.0583078
0.377332
0.0596444
0.382932
0.0607683
0.388724
0.0616754
0.394684
0.0623637
0.400786
0.0628337
0.407002
0.063088
0.413302
0.0631319
0.419655
0.0629732
0.426029
0.062622
0.432393
0.0620901
0.0613939
0.438719
0.327365
0.00444495
0.328028
0.00860435
0.328996
0.0125205
0.330258
0.0162265
0.331806
0.0197467
0.333634
0.0230991
0.335739
0.0262967
0.338117
0.0293485
0.340767
0.0322595
0.343689
0.0350318
0.346881
0.0376648
0.350341
0.0401554
0.354069
0.0424991
0.358059
0.0446901
0.362308
0.0467217
0.366808
0.0485868
0.371551
0.0502785
0.376525
0.0517899
0.381718
0.0531154
0.387112
0.0542501
0.39269
0.0551907
0.39843
0.0559355
0.404309
0.0564847
0.410302
0.0568405
0.416383
0.0570071
0.422524