/*--------------------------------*- C++ -*----------------------------------*\
  =========                 |
  \\      /  F ield         | OpenFOAM: The Open Source CFD Toolbox
   \\    /   O peration     | Website:  https://openfoam.org
    \\  /    A nd           | Version:  dev
     \\/     M anipulation  |
\*---------------------------------------------------------------------------*/
FoamFile
{
    version     2.0;
    format      ascii;
    class       surfaceVectorField;
    location    "2.5";
    object      Uf;
}
// * * * * * * * * * * * * * * * * * * * * * * * * * * * * * * * * * * * * * //

dimensions      [0 1 -1 0 0 0 0];

internalField   nonuniform List<vector> 
5457
(
(9.92088 0 0.0251116)
(9.97124 0 0.0387486)
(9.824 0 0.0328301)
(9.92858 0 0.0485905)
(9.70958 0 0.0393165)
(9.85545 0 0.0587759)
(9.57539 0 0.0460171)
(9.75676 0 0.0706033)
(9.42131 0 0.0529554)
(9.63747 0 0.0830252)
(9.24745 0 0.0601735)
(9.49853 0 0.0959499)
(9.0535 0 0.0678188)
(9.33919 0 0.109627)
(8.83878 0 0.0760429)
(9.15861 0 0.124305)
(8.60234 0 0.0849789)
(8.95593 0 0.140184)
(8.34306 0 0.0947536)
(8.73019 0 0.15745)
(8.05962 0 0.105496)
(8.48019 0 0.176286)
(7.75055 0 0.117336)
(8.20453 0 0.196873)
(7.41429 0 0.130403)
(7.90168 0 0.219376)
(7.04921 0 0.144817)
(7.57002 0 0.243936)
(6.65373 0 0.160678)
(7.20789 0 0.270644)
(6.22641 0 0.178049)
(6.81368 0 0.299509)
(5.76611 0 0.196931)
(6.38601 0 0.330419)
(5.27226 0 0.217234)
(5.92385 0 0.363085)
(4.74507 0 0.238735)
(5.42679 0 0.396973)
(4.18591 0 0.261029)
(4.89535 0 0.43123)
(3.5977 0 0.283482)
(4.33136 0 0.464608)
(2.98531 0 0.305194)
(3.73834 0 0.495409)
(2.3559 0 0.325058)
(3.12203 0 0.521493)
(1.71892 0 0.342535)
(2.49086 0 0.540535)
(1.08419 0 0.361865)
(1.85568 0 0.551647)
(0.45171 0 0.348621)
(1.24534 0 0.562992)
(-0.145872 0 0.102413)
(0.608765 0 0.544795)
(-0.423589 0 -0.207037)
(0.0946659 0 0.25931)
(-0.402116 0 -0.361159)
(-0.133749 0 -0.0205355)
(-0.119656 0 -0.393847)
(9.9964 0 0.0516785)
(9.99705 0 0.0405102)
(9.95877 0 0.0708714)
(9.9785 0 0.0674653)
(9.89821 0 0.0880001)
(9.93375 0 0.0898856)
(9.81654 0 0.106001)
(9.86449 0 0.113575)
(9.71351 0 0.12494)
(9.77432 0 0.138538)
(9.58899 0 0.144875)
(9.66427 0 0.164673)
(9.44262 0 0.166113)
(9.53386 0 0.192361)
(9.27375 0 0.188991)
(9.38236 0 0.222062)
(9.08148 0 0.213807)
(9.20903 0 0.254182)
(8.86469 0 0.24084)
(9.01297 0 0.289098)
(8.62207 0 0.270361)
(8.7931 0 0.327186)
(8.35213 0 0.30263)
(8.54811 0 0.368818)
(8.05328 0 0.337878)
(8.27657 0 0.414346)
(7.72382 0 0.37628)
(7.97688 0 0.464073)
(7.36206 0 0.417916)
(7.64741 0 0.518211)
(6.9664 0 0.462717)
(7.28651 0 0.576823)
(6.5355 0 0.510391)
(6.89263 0 0.639736)
(6.0685 0 0.560332)
(6.46449 0 0.706431)
(5.56527 0 0.611513)
(6.00128 0 0.775904)
(5.0268 0 0.66237)
(5.50295 0 0.84651)
(4.45559 0 0.710688)
(4.9706 0 0.915784)
(3.85623 0 0.753513)
(4.40691 0 0.980275)
(3.23596 0 0.787164)
(3.81679 0 1.03542)
(2.60561 0 0.807463)
(3.20824 0 1.07544)
(1.98262 0 0.810423)
(2.59321 0 1.09309)
(1.40515 0 0.776837)
(1.99605 0 1.07702)
(0.929618 0 0.646325)
(1.41936 0 0.978324)
(0.439721 0 0.384233)
(0.937482 0 0.716737)
(0.0591085 0 -0.118681)
(0.443665 0 0.343446)
(0.174893 0 -0.335954)
(9.98902 0 0.0594412)
(9.99481 0 0.0458859)
(9.95432 0 0.0894931)
(9.97367 0 0.0848704)
(9.89726 0 0.118054)
(9.92982 0 0.119197)
(9.82041 0 0.147925)
(9.86353 0 0.154006)
(9.72409 0 0.179453)
(9.7773 0 0.190444)
(9.60812 0 0.212811)
(9.67218 0 0.228677)
(9.47222 0 0.248431)
(9.54799 0 0.269173)
(9.31593 0 0.286814)
(9.40418 0 0.312544)
(9.13851 0 0.328438)
(9.24018 0 0.359374)
(8.93904 0 0.373763)
(9.0553 0 0.410224)
(8.71642 0 0.423246)
(8.84868 0 0.465647)
(8.46935 0 0.477333)
(8.61927 0 0.526198)
(8.1964 0 0.536431)
(8.36589 0 0.592414)
(7.89603 0 0.600869)
(8.08723 0 0.664774)
(7.56661 0 0.67083)
(7.7819 0 0.743646)
(7.20652 0 0.746268)
(7.44842 0 0.829209)
(6.81425 0 0.826785)
(7.08537 0 0.921328)
(6.38856 0 0.911476)
(6.69139 0 1.0194)
(5.92873 0 0.998741)
(6.26541 0 1.12216)
(5.43485 0 1.08607)
(5.80682 0 1.2274)
(4.90827 0 1.16979)
(5.3158 0 1.33171)
(4.35218 0 1.24485)
(4.79372 0 1.43014)
(3.77237 0 1.30449)
(4.24374 0 1.51582)
(3.17854 0 1.33978)
(3.67161 0 1.57935)
(2.58647 0 1.33805)
(3.08615 0 1.60766)
(2.01973 0 1.27289)
(2.50279 0 1.58149)
(1.48683 0 1.09533)
(1.92863 0 1.46415)
(0.958222 0 0.769097)
(1.38517 0 1.21031)
(0.479817 0 0.202376)
(0.829485 0 0.800948)
(0.433687 0 0.133997)
(9.98515 0 0.0716283)
(9.99367 0 0.0531591)
(9.95037 0 0.113653)
(9.97086 0 0.102312)
(9.89433 0 0.154164)
(9.92688 0 0.147985)
(9.81877 0 0.195611)
(9.86181 0 0.193761)
(9.72435 0 0.238855)
(9.7774 0 0.241325)
(9.61102 0 0.284373)
(9.67458 0 0.291217)
(9.47862 0 0.332773)
(9.55332 0 0.344014)
(9.3268 0 0.38473)
(9.41322 0 0.400434)
(9.15505 0 0.440903)
(9.25384 0 0.461204)
(8.9627 0 0.50194)
(9.07464 0 0.527026)
(8.74893 0 0.568482)
(8.87498 0 0.5986)
(8.51278 0 0.641163)
(8.65405 0 0.676623)
(8.25319 0 0.720575)
(8.41096 0 0.761776)
(7.96896 0 0.807227)
(8.14471 0 0.854684)
(7.65887 0 0.901464)
(7.85424 0 0.955856)
(7.32161 0 1.00336)
(7.53843 0 1.06559)
(6.95589 0 1.11257)
(7.19614 0 1.18386)
(6.56053 0 1.22812)
(6.82621 0 1.31007)
(6.13459 0 1.34814)
(6.42758 0 1.44289)
(5.67756 0 1.46956)
(5.99937 0 1.57986)
(5.18973 0 1.58772)
(5.54106 0 1.71702)
(4.67263 0 1.69596)
(5.0528 0 1.84846)
(4.12959 0 1.78507)
(4.53574 0 1.96574)
(3.56648 0 1.84243)
(3.99254 0 2.0572)
(2.99191 0 1.85062)
(3.42745 0 2.10703)
(2.41573 0 1.78238)
(2.84752 0 2.09437)
(1.84046 0 1.60035)
(2.25614 0 1.98861)
(1.25933 0 1.27832)
(1.66025 0 1.75292)
(0.666744 0 0.78944)
(1.02393 0 1.36764)
(0.523019 0 0.787032)
(9.98337 0 0.0844259)
(9.99316 0 0.0613055)
(9.94819 0 0.136867)
(9.96957 0 0.119954)
(9.89311 0 0.188072)
(9.92572 0 0.176279)
(9.81901 0 0.240217)
(9.86195 0 0.232748)
(9.72655 0 0.294524)
(9.77957 0 0.291146)
(9.6158 0 0.351722)
(9.67931 0 0.352341)
(9.48659 0 0.412538)
(9.56116 0 0.41705)
(9.33863 0 0.477747)
(9.42483 0 0.486086)
(9.17152 0 0.548123)
(9.26992 0 0.560285)
(8.98471 0 0.624426)
(9.096 0 0.640467)
(8.77755 0 0.707412)
(8.90251 0 0.727446)
(8.54927 0 0.797827)
(8.68881 0 0.822031)
(8.29907 0 0.896381)
(8.45416 0 0.925009)
(8.02604 0 1.0037)
(8.19777 0 1.03711)
(7.72926 0 1.12024)
(7.9188 0 1.15896)
(7.40773 0 1.24618)
(7.61636 0 1.29095)
(7.06044 0 1.38127)
(7.28952 0 1.43316)
(6.68637 0 1.52457)
(6.93729 0 1.58509)
(6.28454 0 1.67415)
(6.55866 0 1.74547)
(5.85409 0 1.82673)
(6.15256 0 1.91183)
(5.39444 0 1.97718)
(5.71793 0 2.08009)
(4.90552 0 2.11796)
(5.25382 0 2.24399)
(4.38805 0 2.2385)
(4.75952 0 2.39449)
(3.84378 0 2.32442)
(4.23477 0 2.51906)
(3.27531 0 2.35682)
(3.67975 0 2.60109)
(2.6853 0 2.31046)
(3.09562 0 2.61955)
(2.07262 0 2.15487)
(2.48162 0 2.54717)
(1.42933 0 1.86726)
(1.83987 0 2.35357)
(0.74259 0 1.41944)
(1.13134 0 2.02438)
(0.543295 0 1.51435)
(9.98263 0 0.0975204)
(9.99299 0 0.0698097)
(9.94742 0 0.159811)
(9.96924 0 0.137616)
(9.89351 0 0.221396)
(9.92594 0 0.203973)
(9.82128 0 0.284152)
(9.86376 0 0.270748)
(9.73126 0 0.349417)
(9.78379 0 0.339653)
(9.62357 0 0.418095)
(9.68656 0 0.411777)
(9.49806 0 0.491021)
(9.57206 0 0.487991)
(9.35449 0 0.569061)
(9.44007 0 0.569198)
(9.1925 0 0.653093)
(9.29025 0 0.656331)
(9.01161 0 0.743985)
(9.12222 0 0.750312)
(8.81126 0 0.842601)
(8.93548 0 0.852053)
(8.59081 0 0.949787)
(8.72946 0 0.962457)
(8.34955 0 1.06635)
(8.50352 0 1.0824)
(8.08674 0 1.19302)
(8.25696 0 1.21272)
(7.80159 0 1.33035)
(7.98904 0 1.3541)
(7.49325 0 1.47862)
(7.69894 0 1.50706)
(7.16084 0 1.63769)
(7.38581 0 1.67178)
(6.80338 0 1.80673)
(7.04867 0 1.8479)
(6.41978 0 1.98392)
(6.6864 0 2.03432)
(6.00882 0 2.16606)
(6.29768 0 2.22877)
(5.56913 0 2.34801)
(5.88089 0 2.42739)
(5.09922 0 2.52209)
(5.43407 0 2.62414)
(4.59754 0 2.67743)
(4.95489 0 2.81015)
(4.06254 0 2.79934)
(4.44066 0 2.97306)
(3.49258 0 2.86895)
(3.88838 0 3.09645)
(2.88575 0 2.86276)
(3.29514 0 3.15972)
(2.23797 0 2.75377)
(2.65684 0 3.13773)
(1.54241 0 2.52087)
(1.97481 0 3.00302)
(0.793636 0 2.13118)
(1.20723 0 2.74044)
(0.556733 0 2.29167)
(9.9825 0 0.110653)
(9.99301 0 0.0783812)
(9.94769 0 0.182367)
(9.96953 0 0.155075)
(9.89519 0 0.253875)
(9.9272 0 0.23094)
(9.82519 0 0.326837)
(9.86692 0 0.307579)
(9.73805 0 0.402637)
(9.78971 0 0.386605)
(9.63393 0 0.482325)
(9.69596 0 0.469242)
(9.51272 0 0.566856)
(9.58567 0 0.556501)
(9.37421 0 0.657196)
(9.45865 0 0.649381)
(9.21808 0 0.754319)
(9.31462 0 0.748902)
(9.04391 0 0.85919)
(9.15325 0 0.856079)
(8.85119 0 0.972764)
(8.97409 0 0.971915)
(8.63934 0 1.09598)
(8.77663 0 1.09741)
(8.40771 0 1.22973)
(8.56027 0 1.23352)
(8.15561 0 1.37482)
(8.32436 0 1.38116)
(7.88229 0 1.53192)
(8.06816 0 1.54115)
(7.5869 0 1.70141)
(7.79088 0 1.71409)
(7.26853 0 1.8833)
(7.49157 0 1.90032)
(6.92606 0 2.07695)
(7.16915 0 2.09969)
(6.55816 0 2.2808)
(6.82228 0 2.31135)
(6.16314 0 2.49197)
(6.44923 0 2.53341)
(5.73883 0 2.70572)
(6.04777 0 2.76253)
(5.28248 0 2.91484)
(5.61495 0 2.99332)
(4.79063 0 3.10899)
(5.147 0 3.21767)
(4.25914 0 3.27401)
(4.6392 0 3.42407)
(3.68329 0 3.39166)
(4.08593 0 3.59693)
(3.05799 0 3.43949)
(3.48124 0 3.71632)
(2.37771 0 3.39161)
(2.81834 0 3.75792)
(1.6379 0 3.226)
(2.09916 0 3.69379)
(0.83913 0 2.90068)
(1.27893 0 3.50431)
(0.573367 0 3.11355)
(9.98273 0 0.123613)
(9.99316 0 0.0868403)
(9.94871 0 0.204359)
(9.97025 0 0.172137)
(9.89791 0 0.285319)
(9.92924 0 0.257038)
(9.83045 0 0.368048)
(9.87119 0 0.343068)
(9.74663 0 0.453947)
(9.79709 0 0.431774)
(9.64657 0 0.544184)
(9.70725 0 0.52446)
(9.53024 0 0.639823)
(9.60168 0 0.622255)
(9.39745 0 0.741921)
(9.48023 0 0.726254)
(9.24793 0 0.851539)
(9.34267 0 0.837559)
(9.08129 0 0.969732)
(9.18872 0 0.957268)
(8.89709 0 1.09754)
(9.01798 0 1.08648)
(8.6948 0 1.236)
(8.83 0 1.22626)
(8.4738 0 1.38608)
(8.62422 0 1.3777)
(8.2334 0 1.54871)
(8.40001 0 1.54179)
(7.97284 0 1.72466)
(8.15663 0 1.71946)
(7.69122 0 1.91448)
(7.89323 0 1.91148)
(7.38745 0 2.11835)
(7.60878 0 2.11838)
(7.06022 0 2.33593)
(7.302 0 2.34027)
(6.70782 0 2.56605)
(6.97123 0 2.5767)
(6.32801 0 2.80637)
(6.61432 0 2.82633)
(5.91778 0 3.0529)
(6.22835 0 3.08655)
(5.47318 0 3.29934)
(5.80942 0 3.35298)
(4.98909 0 3.53644)
(5.35239 0 3.61876)
(4.45919 0 3.75118)
(4.85069 0 3.87374)
(3.87613 0 3.92623)
(4.2963 0 4.10367)
(3.23229 0 4.03963)
(3.6805 0 4.28942)
(2.52083 0 4.06478)
(2.99351 0 4.40653)
(1.73839 0 3.97595)
(2.23741 0 4.42437)
(0.889489 0 3.71859)
(1.3634 0 4.31612)
(0.598776 0 3.98475)
(9.9832 0 0.136239)
(9.99339 0 0.0950662)
(9.9503 0 0.225629)
(9.9713 0 0.188639)
(9.90147 0 0.315573)
(9.93191 0 0.282121)
(9.83688 0 0.407597)
(9.87639 0 0.377052)
(9.75676 0 0.503122)
(9.80572 0 0.47495)
(9.66124 0 0.603399)
(9.72021 0 0.577174)
(9.55032 0 0.709592)
(9.61983 0 0.684952)
(9.42386 0 0.822842)
(9.50449 0 0.799463)
(9.28163 0 0.94429)
(9.37402 0 0.921888)
(9.12331 0 1.07508)
(9.2282 0 1.05341)
(8.94851 0 1.21633)
(9.06668 0 1.19519)
(8.75673 0 1.36918)
(8.88907 0 1.34842)
(8.54741 0 1.5347)
(8.69485 0 1.51426)
(8.31986 0 1.71394)
(8.48344 0 1.69383)
(8.07329 0 1.90781)
(8.25409 0 1.8882)
(7.80671 0 2.11707)
(8.00592 0 2.09833)
(7.51889 0 2.34216)
(7.7378 0 2.32499)
(7.20824 0 2.58311)
(7.44826 0 2.56866)
(6.87268 0 2.8393)
(7.13539 0 2.82938)
(6.50938 0 3.10913)
(6.79657 0 3.10651)
(6.11453 0 3.38961)
(6.42827 0 3.39843)
(5.68302 0 3.67579)
(6.02569 0 3.70206)
(5.20815 0 3.95994)
(5.5824 0 4.0122)
(4.6815 0 4.2307)
(5.09001 0 4.32065)
(4.0931 0 4.47202)
(4.53805 0 4.61505)
(3.43241 0 4.66226)
(3.91456 0 4.87753)
(2.69008 0 4.7729)
(3.20562 0 5.08328)
(1.86184 0 4.77219)
(2.41128 0 5.19772)
(0.954187 0 4.58955)
(1.47631 0 5.18411)
(0.639213 0 4.91931)
(9.98385 0 0.148409)
(9.99368 0 0.102973)
(9.95233 0 0.246035)
(9.97259 0 0.20445)
(9.90575 0 0.344486)
(9.93507 0 0.30605)
(9.84431 0 0.445305)
(9.88236 0 0.409374)
(9.76824 0 0.549936)
(9.81545 0 0.51594)
(9.67769 0 0.659699)
(9.73461 0 0.627152)
(9.57266 0 0.77584)
(9.63986 0 0.744314)
(9.45309 0 0.899579)
(9.53113 0 0.868684)
(9.3188 0 1.03213)
(9.40833 0 1.00151)
(9.16952 0 1.17472)
(9.27127 0 1.14405)
(9.00493 0 1.32856)
(9.1197 0 1.29756)
(8.82458 0 1.49487)
(8.95328 0 1.4633)
(8.62797 0 1.67484)
(8.77157 0 1.64253)
(8.41443 0 1.86966)
(8.57402 0 1.83651)
(8.18317 0 2.08042)
(8.35993 0 2.04646)
(7.93313 0 2.3081)
(8.12841 0 2.27358)
(7.66299 0 2.55351)
(7.8783 0 2.51891)
(7.37095 0 2.81713)
(7.60802 0 2.78338)
(7.05457 0 3.09901)
(7.31546 0 3.06761)
(6.71056 0 3.39848)
(6.99769 0 3.37182)
(6.33438 0 3.71385)
(6.6507 0 3.69556)
(5.91989 0 4.04181)
(6.26897 0 4.03738)
(5.45888 0 4.37673)
(5.84494 0 4.39417)
(4.94075 0 4.70952)
(5.3685 0 4.76032)
(4.35249 0 5.02616)
(4.82651 0 5.12631)
(3.67945 0 5.30582)
(4.203 0 5.47664)
(2.90745 0 5.51786)
(3.47783 0 5.78708)
(2.02766 0 5.62276)
(2.64504 0 6.0192)
(1.04512 0 5.52928)
(1.63777 0 6.12372)
(0.704508 0 5.94294)
(9.98464 0 0.160026)
(9.99402 0 0.110495)
(9.95471 0 0.265454)
(9.97408 0 0.219463)
(9.91061 0 0.371918)
(9.93865 0 0.328703)
(9.85261 0 0.481004)
(9.889 0 0.439892)
(9.78091 0 0.594186)
(9.82611 0 0.554572)
(9.69569 0 0.712839)
(9.75028 0 0.674184)
(9.59701 0 0.838281)
(9.66153 0 0.800093)
(9.48483 0 0.9718)
(9.55986 0 0.933625)
(9.35904 0 1.11468)
(9.44522 0 1.07609)
(9.21946 0 1.26822)
(9.31751 0 1.22882)
(9.06581 0 1.43371)
(9.17654 0 1.39312)
(8.89774 0 1.61246)
(9.02206 0 1.57035)
(8.71481 0 1.8058)
(8.8537 0 1.76188)
(8.51641 0 2.01503)
(8.67101 0 1.96907)
(8.30177 0 2.24147)
(8.47336 0 2.19335)
(8.06988 0 2.48637)
(8.25992 0 2.43611)
(7.81934 0 2.75091)
(8.02956 0 2.69876)
(7.54828 0 3.03614)
(7.78072 0 2.98267)
(7.25409 0 3.34286)
(7.51123 0 3.28914)
(6.93315 0 3.67151)
(7.21809 0 3.61933)
(6.58045 0 4.02191)
(6.89706 0 3.97415)
(6.18904 0 4.3928)
(6.54222 0 4.35402)
(5.74943 0 4.78122)
(6.14527 0 4.7584)
(5.24888 0 5.18129)
(5.69474 0 5.18509)
(4.67081 0 5.58235)
(5.17486 0 5.62871)
(3.99489 0 5.96612)
(4.56501 0 6.0783)
(3.19849 0 6.30136)
(3.83639 0 6.51313)
(2.26189 0 6.54043)
(2.97098 0 6.89372)
(1.1807 0 6.56497)
(1.87931 0 7.15767)
(0.812913 0 7.09936)
(9.98553 0 0.171013)
(9.9944 0 0.117582)
(9.95737 0 0.283779)
(9.97571 0 0.233588)
(9.91597 0 0.397744)
(9.94256 0 0.349969)
(9.86163 0 0.514546)
(9.89619 0 0.468479)
(9.7946 0 0.635692)
(9.83757 0 0.590694)
(9.71505 0 0.762605)
(9.76703 0 0.718086)
(9.62309 0 0.896661)
(9.68461 0 0.852072)
(9.51874 0 1.03921)
(9.59038 0 0.994032)
(9.40197 0 1.19159)
(9.48434 0 1.14533)
(9.27265 0 1.35517)
(9.36647 0 1.30735)
(9.1306 0 1.5313)
(9.23667 0 1.48147)
(8.97557 0 1.7214)
(9.09477 0 1.66911)
(8.8072 0 1.9269)
(8.94054 0 1.87172)
(8.62498 0 2.14925)
(8.7736 0 2.09083)
(8.42824 0 2.38997)
(8.59347 0 2.32798)
(8.21604 0 2.65061)
(8.39944 0 2.58484)
(7.98709 0 2.93274)
(8.19052 0 2.86311)
(7.73955 0 3.23801)
(7.96529 0 3.16466)
(7.47086 0 3.56804)
(7.72176 0 3.49146)
(7.17737 0 3.92448)
(7.45707 0 3.84567)
(6.85397 0 4.30882)
(7.16718 0 4.2296)
(6.49339 0 4.72223)
(6.84626 0 4.64572)
(6.08535 0 5.16502)
(6.48599 0 5.09648)
(5.61542 0 5.63573)
(6.07434 0 5.58386)
(5.06351 0 6.12921)
(5.59383 0 6.10839)
(4.4023 0 6.63319)
(5.01961 0 6.66687)
(3.59635 0 7.12073)
(4.31277 0 7.24789)
(2.60461 0 7.54034)
(3.43605 0 7.81973)
(1.39452 0 7.74038)
(2.25688 0 8.31488)
(1.00288 0 8.46521)
(9.9865 0 0.181307)
(9.9948 0 0.124195)
(9.96025 0 0.30092)
(9.97746 0 0.246755)
(9.92173 0 0.421852)
(9.94673 0 0.369755)
(9.87127 0 0.545797)
(9.90382 0 0.495025)
(9.80914 0 0.674296)
(9.84969 0 0.624172)
(9.73555 0 0.808809)
(9.78468 0 0.7587)
(9.65064 0 0.950759)
(9.70888 0 0.900063)
(9.55451 0 1.10154)
(9.6224 0 1.04968)
(9.44717 0 1.26255)
(9.52532 0 1.20897)
(9.32861 0 1.4352)
(9.41771 0 1.37935)
(9.19873 0 1.62092)
(9.29955 0 1.56224)
(9.05739 0 1.82118)
(9.17079 0 1.75914)
(8.90434 0 2.03752)
(9.03132 0 1.97157)
(8.73923 0 2.27155)
(8.88091 0 2.20115)
(8.56153 0 2.52495)
(8.71923 0 2.44959)
(8.37048 0 2.79956)
(8.54579 0 2.71874)
(8.16498 0 3.09735)
(8.35982 0 3.01063)
(7.94344 0 3.42051)
(8.16021 0 3.32754)
(7.70359 0 3.77151)
(7.94533 0 3.67207)
(7.44213 0 4.15317)
(7.71282 0 4.0473)
(7.15434 0 4.56875)
(7.45924 0 4.45691)
(6.83334 0 5.02199)
(7.17958 0 4.9054)
(6.46909 0 5.51702)
(6.86647 0 5.39828)
(6.04671 0 6.05799)
(6.50885 0 5.94228)
(5.54398 0 6.64795)
(6.08979 0 6.54532)
(4.92724 0 7.28622)
(5.58315 0 7.21584)
(4.14542 0 7.96078)
(4.94288 0 7.96065)
(3.12235 0 8.63325)
(4.11001 0 8.77499)
(1.75675 0 9.12799)
(2.87932 0 9.62081)
(1.36535 0 10.1858)
(9.98753 0 0.190859)
(9.99522 0 0.130302)
(9.9633 0 0.316803)
(9.97931 0 0.258906)
(9.92781 0 0.444152)
(9.95112 0 0.387987)
(9.88141 0 0.57465)
(9.91183 0 0.519438)
(9.82439 0 0.709869)
(9.86235 0 0.654898)
(9.75699 0 0.851302)
(9.80306 0 0.795897)
(9.67941 0 1.0004)
(9.7341 0 0.943915)
(9.5918 0 1.15861)
(9.65563 0 1.10041)
(9.49425 0 1.32735)
(9.56781 0 1.26681)
(9.38684 0 1.50806)
(9.47078 0 1.44457)
(9.26958 0 1.70225)
(9.36464 0 1.63517)
(9.14246 0 1.91142)
(9.24945 0 1.84012)
(9.00537 0 2.13721)
(9.12523 0 2.06101)
(8.85814 0 2.38133)
(8.99196 0 2.29953)
(8.70045 0 2.64563)
(8.84949 0 2.55751)
(8.53178 0 2.93218)
(8.69759 0 2.83696)
(8.35137 0 3.24327)
(8.53581 0 3.14014)
(8.15805 0 3.5816)
(8.36349 0 3.46967)
(7.95009 0 3.95034)
(8.17956 0 3.82867)
(7.72494 0 4.35339)
(7.98243 0 4.22094)
(7.47887 0 4.7956)
(7.76976 0 4.65128)
(7.20632 0 5.28315)
(7.53806 0 5.12588)
(6.89894 0 5.82404)
(7.2821 0 5.65297)
(6.54376 0 6.42865)
(6.99393 0 6.24368)
(6.12007 0 7.1104)
(6.66085 0 6.91355)
(5.59315 0 7.88651)
(6.26232 0 7.68488)
(4.90146 0 8.77693)
(5.75795 0 8.59124)
(3.9279 0 9.80106)
(5.08843 0 9.68402)
(2.43435 0 10.8573)
(3.98132 0 11.0491)
(2.14776 0 12.5701)
(9.98861 0 0.199628)
(9.99567 0 0.135881)
(9.9665 0 0.331366)
(9.98123 0 0.269994)
(9.93416 0 0.46456)
(9.95567 0 0.4046)
(9.89195 0 0.600998)
(9.92011 0 0.541642)
(9.8402 0 0.742275)
(9.87544 0 0.682784)
(9.77919 0 0.889907)
(9.82204 0 0.829572)
(9.70914 0 1.04538)
(9.76012 0 0.983506)
(9.63028 0 1.21014)
(9.6899 0 1.14606)
(9.5428 0 1.38565)
(9.6116 0 1.31868)
(9.44684 0 1.57337)
(9.52546 0 1.50284)
(9.34255 0 1.77483)
(9.43169 0 1.70003)
(9.23005 0 1.9916)
(9.33048 0 1.91178)
(9.10941 0 2.22533)
(9.22201 0 2.13971)
(8.98064 0 2.47783)
(9.10644 0 2.38557)
(8.84368 0 2.75106)
(8.98388 0 2.65123)
(8.69836 0 3.04724)
(8.85439 0 2.93881)
(8.54432 0 3.36893)
(8.71794 0 3.25072)
(8.38095 0 3.71916)
(8.57436 0 3.58978)
(8.20732 0 4.10163)
(8.42333 0 3.95941)
(8.02196 0 4.521)
(8.26428 0 4.36389)
(7.82271 0 4.9833)
(8.0963 0 4.80866)
(7.60629 0 5.49659)
(7.91806 0 5.30096)
(7.36769 0 6.07191)
(7.72758 0 5.85066)
(7.09901 0 6.72493)
(7.52203 0 6.47167)
(6.78715 0 7.47886)
(7.2972 0 7.18459)
(6.40861 0 8.37051)
(7.0477 0 8.02183)
(5.91644 0 9.46446)
(6.76345 0 9.03994)
(5.19804 0 10.9074)
(6.46373 0 10.3548)
(3.88736 0 13.1806)
(6.19435 0 12.3025)
(5.26806 0 16.3776)
(0.267363 0 -0.173441)
(0.151699 0 -0.261866)
(0.515846 0 -0.147366)
(0.363411 0 -0.237625)
(0.728849 0 -0.120128)
(0.579708 0 -0.198885)
(0.909745 0 -0.0977378)
(0.772174 0 -0.164917)
(1.06432 0 -0.0800262)
(0.935735 0 -0.13759)
(1.1975 0 -0.0659978)
(1.07555 0 -0.115748)
(1.31328 0 -0.0548333)
(1.19721 0 -0.0982538)
(1.41489 0 -0.045889)
(1.30461 0 -0.0841853)
(1.5048 0 -0.0386367)
(1.40036 0 -0.072734)
(1.58488 0 -0.0326391)
(1.48633 0 -0.063253)
(1.65647 0 -0.0274783)
(1.56396 0 -0.055214)
(1.72021 0 -0.0226655)
(1.63432 0 -0.0479917)
(1.77554 0 -0.0176826)
(1.69786 0 -0.040685)
(1.82066 0 -0.0122782)
(1.75389 0 -0.0323894)
(1.85364 0 -0.00681479)
(1.80053 0 -0.0231106)
(1.87458 0 -0.00213485)
(1.83599 0 -0.014332)
(1.88589 0 0.00123972)
(1.86069 0 -0.00755416)
(1.88891 0 0.00352026)
(1.87756 0 -0.0019713)
(1.88323 0 0.00507045)
(1.88817 0 0.00361762)
(1.87059 0 0.00608993)
(1.89205 0 0.00785996)
(1.85474 0 0.00680249)
(1.88897 0 0.00962305)
(1.84096 0 0.00745426)
(1.88321 0 0.00817471)
(1.83338 0 0.00765809)
(1.87912 0 0.00438698)
(1.8353 0 0.00622404)
(1.87898 0 -0.00108479)
(1.84793 0 0.00277068)
(1.88333 0 -0.00696922)
(1.87279 0 -0.00223479)
(1.89288 0 -0.013396)
(1.91007 0 -0.00849672)
(1.90796 0 -0.0196172)
(1.9594 0 -0.0153175)
(1.92874 0 -0.0253416)
(2.01898 0 -0.0203005)
(1.95569 0 -0.0298794)
(1.99729 0 -0.0280013)
(0.225294 0 -0.370417)
(0.111914 0 -0.482528)
(0.444872 0 -0.326787)
(0.29892 0 -0.447608)
(0.637225 0 -0.273166)
(0.477165 0 -0.378489)
(0.803166 0 -0.227436)
(0.637546 0 -0.316199)
(0.947541 0 -0.19088)
(0.774965 0 -0.266104)
(1.07457 0 -0.1618)
(0.893757 0 -0.22615)
(1.18754 0 -0.138564)
(0.998109 0 -0.194119)
(1.28897 0 -0.119828)
(1.09092 0 -0.168224)
(1.38074 0 -0.104509)
(1.17412 0 -0.14697)
(1.46429 0 -0.0917618)
(1.24902 0 -0.129253)
(1.5409 0 -0.0807814)
(1.31663 0 -0.114294)
(1.61155 0 -0.0704768)
(1.37798 0 -0.101193)
(1.67643 0 -0.0594847)
(1.43404 0 -0.0883794)
(1.73417 0 -0.0470344)
(1.48496 0 -0.0738416)
(1.78247 0 -0.0340896)
(1.52951 0 -0.0569618)
(1.82048 0 -0.0225664)
(1.56469 0 -0.0403468)
(1.85106 0 -0.0121918)
(1.58863 0 -0.0279877)
(1.8765 0 -0.00146722)
(1.60708 0 -0.0185654)
(1.89601 0 0.0076195)
(1.62221 0 -0.00881251)
(1.90869 0 0.0115962)
(1.61898 0 -2.38074e-05)
(1.91523 0 0.00961613)
(1.59893 0 0.00565016)
(1.91978 0 0.0029779)
(1.56636 0 0.00547852)
(1.92324 0 -0.00607762)
(1.52695 0 0.00238603)
(1.92565 0 -0.015504)
(1.48524 0 -0.00245196)
(1.92751 0 -0.0238458)
(1.44568 0 -0.0079954)
(1.92754 0 -0.0302321)
(1.41338 0 -0.0134085)
(1.92613 0 -0.0347214)
(1.39419 0 -0.0188772)
(1.92478 0 -0.0374041)
(1.38189 0 -0.0246501)
(1.92613 0 -0.0367645)
(1.38276 0 -0.0305544)
(1.40828 0 -0.0381667)
(0.175506 0 -0.569912)
(0.0770535 0 -0.654425)
(0.343065 0 -0.509388)
(0.22175 0 -0.607846)
(0.488491 0 -0.430732)
(0.343701 0 -0.514276)
(0.613625 0 -0.362661)
(0.455596 0 -0.43028)
(0.722136 0 -0.307777)
(0.549291 0 -0.362693)
(0.817058 0 -0.263733)
(0.62928 0 -0.308648)
(0.900837 0 -0.228152)
(0.69817 0 -0.265212)
(0.975249 0 -0.199034)
(0.757842 0 -0.229877)
(1.04148 0 -0.174827)
(0.809601 0 -0.20055)
(1.10038 0 -0.154502)
(0.85416 0 -0.175776)
(1.15289 0 -0.137242)
(0.891764 0 -0.154791)
(1.20027 0 -0.121642)
(0.92285 0 -0.136871)
(1.24337 0 -0.105106)
(0.9485 0 -0.120063)
(1.28129 0 -0.0851342)
(0.969993 0 -0.101066)
(1.31098 0 -0.0634047)
(0.989131 0 -0.0777711)
(1.33011 0 -0.0469565)
(1.00382 0 -0.05344)
(1.34413 0 -0.0389201)
(0.992456 0 -0.0373498)
(1.35332 0 -0.0323149)
(0.950002 0 -0.0245626)
(1.34306 0 -0.0203978)
(0.90636 0 -0.00227871)
(1.30658 0 -0.00651703)
(0.862393 0 0.0226622)
(1.24741 0 0.0032704)
(0.805673 0 0.0415854)
(1.17168 0 0.00784979)
(0.739047 0 0.0503766)
(1.08749 0 0.00893514)
(0.667989 0 0.0511248)
(1.00387 0 0.00840166)
(0.59857 0 0.0448138)
(0.931161 0 0.00612548)
(0.537607 0 0.032132)
(0.879901 0 0.00127943)
(0.491043 0 0.0142135)
(0.848251 0 -0.00585665)
(0.468124 0 -0.00222573)
(0.838858 0 -0.0155682)
(0.467263 0 -0.0198246)
(0.857161 0 -0.0297858)
(0.484644 0 -0.0397346)
(0.537513 0 -0.0609837)
(0.123538 0 -0.707717)
(0.044282 0 -0.775423)
(0.231191 0 -0.628452)
(0.137571 0 -0.710796)
(0.320185 0 -0.529584)
(0.194277 0 -0.597371)
(0.39506 0 -0.445196)
(0.251065 0 -0.49854)
(0.458057 0 -0.377167)
(0.29257 0 -0.418769)
(0.510904 0 -0.322428)
(0.32489 0 -0.354578)
(0.555177 0 -0.278062)
(0.348772 0 -0.302782)
(0.591989 0 -0.241503)
(0.365281 0 -0.260377)
(0.621907 0 -0.210699)
(0.375337 0 -0.224753)
(0.644954 0 -0.184371)
(0.379334 0 -0.19398)
(0.661093 0 -0.161953)
(0.376751 0 -0.167237)
(0.671365 0 -0.142852)
(0.366322 0 -0.144606)
(0.677739 0 -0.125335)
(0.34569 0 -0.124749)
(0.681691 0 -0.106232)
(0.313955 0 -0.103903)
(0.680697 0 -0.0817167)
(0.278306 0 -0.0770742)
(0.659222 0 -0.0505683)
(0.238351 0 -0.0387442)
(0.598099 0 -0.0184913)
(0.191588 0 0.00349177)
(0.507415 0 0.011133)
(0.124316 0 0.034599)
(0.423502 0 0.0405407)
(0.0557575 0 0.0511729)
(0.354894 0 0.0653242)
(0.00464677 0 0.0653325)
(0.292125 0 0.0796232)
(-0.0448807 0 0.079702)
(0.231816 0 0.0833844)
(-0.0908596 0 0.0861343)
(0.17657 0 0.0776586)
(-0.1311 0 0.0831072)
(0.130362 0 0.0628355)
(-0.163534 0 0.0709321)
(0.096957 0 0.0396877)
(-0.186528 0 0.050568)
(0.0791879 0 0.0123169)
(-0.199946 0 0.0237883)
(0.0848948 0 -0.0143138)
(-0.201334 0 -0.00522828)
(0.111745 0 -0.0416751)
(-0.181448 0 -0.0336177)
(0.157862 0 -0.0699992)
(-0.15679 0 -0.062865)
(-0.119514 0 -0.0843448)
(0.0652569 0 -0.788952)
(0.0103739 0 -0.839338)
(0.106988 0 -0.689989)
(0.0445595 0 -0.750704)
(0.134088 0 -0.575922)
(0.0312409 0 -0.622674)
(0.152284 0 -0.480641)
(0.0278484 0 -0.51513)
(0.162089 0 -0.403466)
(0.0111587 0 -0.427497)
(0.164368 0 -0.341088)
(-0.0110592 0 -0.356559)
(0.159917 0 -0.290389)
(-0.0396018 0 -0.299005)
(0.149441 0 -0.248485)
(-0.0738996 0 -0.251697)
(0.133384 0 -0.212839)
(-0.113355 0 -0.211763)
(0.111469 0 -0.181455)
(-0.157472 0 -0.17667)
(0.0820252 0 -0.152772)
(-0.206064 0 -0.14453)
(0.0413222 0 -0.124877)
(-0.259347 0 -0.113957)
(-0.0143926 0 -0.0956892)
(-0.31912 0 -0.083787)
(-0.0839489 0 -0.0621448)
(-0.386486 0 -0.0539722)
(-0.163159 0 -0.0219957)
(-0.455828 0 -0.0215566)
(-0.235516 0 0.0183978)
(-0.519603 0 0.0107729)
(-0.286436 0 0.0479903)
(-0.56593 0 0.037515)
(-0.324129 0 0.0649774)
(-0.601798 0 0.0591899)
(-0.364125 0 0.0769696)
(-0.636568 0 0.0766498)
(-0.402991 0 0.0886186)
(-0.666354 0 0.089505)
(-0.434359 0 0.0961866)
(-0.69121 0 0.0987502)
(-0.458328 0 0.0949877)
(-0.709336 0 0.100346)
(-0.474776 0 0.0840569)
(-0.720397 0 0.0926289)
(-0.483522 0 0.0642828)
(-0.72483 0 0.0758758)
(-0.485042 0 0.0376836)
(-0.723722 0 0.0514071)
(-0.480396 0 0.00713547)
(-0.718964 0 0.0212848)
(-0.468969 0 -0.02478)
(-0.71214 0 -0.0112405)
(-0.450699 0 -0.0553129)
(-0.697481 0 -0.043003)
(-0.432541 0 -0.0800948)
(-0.686319 0 -0.0719724)
(-0.680503 0 -0.0932555)
(-0.00341644 0 -0.805139)
(-0.0279579 0 -0.835992)
(-0.0284697 0 -0.686462)
(-0.0585111 0 -0.726745)
(-0.0659337 0 -0.561568)
(-0.140572 0 -0.587693)
(-0.109128 0 -0.459674)
(-0.208091 0 -0.47575)
(-0.158202 0 -0.376655)
(-0.283919 0 -0.383814)
(-0.212453 0 -0.309288)
(-0.361178 0 -0.309409)
(-0.271558 0 -0.25406)
(-0.440129 0 -0.24885)
(-0.335199 0 -0.20775)
(-0.519838 0 -0.198968)
(-0.40292 0 -0.167598)
(-0.599457 0 -0.156979)
(-0.473849 0 -0.131611)
(-0.678234 0 -0.120646)
(-0.546405 0 -0.0986343)
(-0.755347 0 -0.0885731)
(-0.61855 0 -0.0680634)
(-0.829649 0 -0.0596325)
(-0.688415 0 -0.0395983)
(-0.900218 0 -0.0324214)
(-0.754919 0 -0.0127988)
(-0.963461 0 -0.00623197)
(-0.810068 0 0.0123465)
(-1.01818 0 0.0170964)
(-0.851574 0 0.036352)
(-1.05998 0 0.0391774)
(-0.885725 0 0.0595947)
(-1.09389 0 0.0603342)
(-0.915161 0 0.0792451)
(-1.12239 0 0.0783938)
(-0.939688 0 0.0929905)
(-1.14529 0 0.0922727)
(-0.95904 0 0.101516)
(-1.16207 0 0.101541)
(-0.970669 0 0.104045)
(-1.17208 0 0.105812)
(-0.975025 0 0.0984122)
(-1.17524 0 0.102929)
(-0.973541 0 0.0840628)
(-1.17256 0 0.0917698)
(-0.967825 0 0.061864)
(-1.16561 0 0.0726448)
(-0.959595 0 0.0335849)
(-1.15638 0 0.0468653)
(-0.950342 0 0.00168919)
(-1.14703 0 0.0162989)
(-0.941168 0 -0.0308085)
(-1.13893 0 -0.0160674)
(-0.932582 0 -0.0611388)
(-1.13083 0 -0.0474137)
(-0.925108 0 -0.0859734)
(-1.12818 0 -0.0757211)
(-1.12956 0 -0.0970969)
(-0.0716518 0 -0.750572)
(-0.072343 0 -0.765814)
(-0.169659 0 -0.617527)
(-0.16768 0 -0.633021)
(-0.272569 0 -0.489577)
(-0.314622 0 -0.491604)
(-0.377846 0 -0.386878)
(-0.443765 0 -0.379773)
(-0.48273 0 -0.304005)
(-0.571476 0 -0.290454)
(-0.586063 0 -0.237361)
(-0.692991 0 -0.2196)
(-0.686446 0 -0.183544)
(-0.80757 0 -0.163666)
(-0.782623 0 -0.139569)
(-0.914493 0 -0.119282)
(-0.873492 0 -0.102802)
(-1.0133 0 -0.0834678)
(-0.958566 0 -0.0711675)
(-1.10403 0 -0.0534491)
(-1.03754 0 -0.0433166)
(-1.18501 0 -0.0276666)
(-1.10995 0 -0.0183748)
(-1.2568 0 -0.00511203)
(-1.17321 0 0.00411662)
(-1.31982 0 0.0140901)
(-1.22479 0 0.0246225)
(-1.37371 0 0.0307931)
(-1.26742 0 0.0439773)
(-1.41784 0 0.0469782)
(-1.3031 0 0.0625039)
(-1.45526 0 0.0635948)
(-1.33159 0 0.0793402)
(-1.48537 0 0.0793674)
(-1.35334 0 0.0930074)
(-1.50835 0 0.0925878)
(-1.36868 0 0.102348)
(-1.52447 0 0.102045)
(-1.37758 0 0.106695)
(-1.53387 0 0.107076)
(-1.3795 0 0.105021)
(-1.53662 0 0.106978)
(-1.37537 0 0.096097)
(-1.53333 0 0.100479)
(-1.36696 0 0.0796574)
(-1.52539 0 0.0868996)
(-1.35622 0 0.0565127)
(-1.51464 0 0.0665725)
(-1.34506 0 0.0282862)
(-1.50316 0 0.0407059)
(-1.33523 0 -0.00278708)
(-1.4931 0 0.0110018)
(-1.32828 0 -0.0341014)
(-1.48592 0 -0.0197208)
(-1.32446 0 -0.0633808)
(-1.48232 0 -0.0493761)
(-1.3231 0 -0.0875755)
(-1.48435 0 -0.0764041)
(-1.48809 0 -0.0967537)
(-0.144855 0 -0.628889)
(-0.122738 0 -0.623937)
(-0.310238 0 -0.488161)
(-0.279054 0 -0.474864)
(-0.474572 0 -0.364317)
(-0.485454 0 -0.338162)
(-0.63153 0 -0.268808)
(-0.666591 0 -0.236679)
(-0.777575 0 -0.195035)
(-0.833994 0 -0.160455)
(-0.91187 0 -0.13784)
(-0.984714 0 -0.102882)
(-1.03386 0 -0.0931353)
(-1.11676 0 -0.0601458)
(-1.14398 0 -0.0579176)
(-1.23236 0 -0.0280478)
(-1.24279 0 -0.0297499)
(-1.33335 0 -0.00353135)
(-1.32941 0 -0.00705044)
(-1.4215 0 0.0149718)
(-1.40344 0 0.0115414)
(-1.49801 0 0.029425)
(-1.46576 0 0.02733)
(-1.56416 0 0.0418128)
(-1.51889 0 0.0414457)
(-1.62059 0 0.0531524)
(-1.56536 0 0.0551119)
(-1.66995 0 0.0641501)
(-1.60536 0 0.068875)
(-1.7122 0 0.0750177)
(-1.63793 0 0.0822252)
(-1.74703 0 0.0858798)
(-1.66271 0 0.0939077)
(-1.77418 0 0.0959285)
(-1.68008 0 0.102673)
(-1.79386 0 0.103918)
(-1.69059 0 0.107569)
(-1.80648 0 0.108739)
(-1.69462 0 0.10784)
(-1.81248 0 0.109582)
(-1.69251 0 0.102628)
(-1.81237 0 0.105697)
(-1.68539 0 0.091171)
(-1.80706 0 0.0962587)
(-1.67499 0 0.0733907)
(-1.79801 0 0.080882)
(-1.66325 0 0.0500673)
(-1.787 0 0.0599367)
(-1.65214 0 0.022701)
(-1.77609 0 0.0345757)
(-1.64354 0 -0.00669621)
(-1.76734 0 0.00636412)
(-1.63911 0 -0.035948)
(-1.76222 0 -0.022052)
(-1.63896 0 -0.0633166)
(-1.76262 0 -0.0494502)
(-1.64265 0 -0.08592)
(-1.76827 0 -0.0745551)
(-1.7734 0 -0.0928445)
(-0.220651 0 -0.446025)
(-0.182622 0 -0.407823)
(-0.448829 0 -0.309042)
(-0.402356 0 -0.256656)
(-0.666077 0 -0.200713)
(-0.658793 0 -0.135314)
(-0.863134 0 -0.120895)
(-0.872023 0 -0.0570291)
(-1.03748 0 -0.061878)
(-1.05677 0 -0.00526417)
(-1.18709 0 -0.0202866)
(-1.21437 0 0.0271444)
(-1.31374 0 0.00774199)
(-1.34828 0 0.0473289)