/*--------------------------------*- C++ -*----------------------------------*\
  =========                 |
  \\      /  F ield         | OpenFOAM: The Open Source CFD Toolbox
   \\    /   O peration     | Website:  https://openfoam.org
    \\  /    A nd           | Version:  dev
     \\/     M anipulation  |
\*---------------------------------------------------------------------------*/
FoamFile
{
    version     2.0;
    format      ascii;
    class       volScalarField;
    location    "4.6";
    object      p;
}
// * * * * * * * * * * * * * * * * * * * * * * * * * * * * * * * * * * * * * //

dimensions      [0 2 -2 0 0 0 0];

internalField   nonuniform List<scalar> 
2790
(
147.088
146.995
147.262
147.833
148.613
149.571
150.703
152.009
153.486
155.127
156.926
158.877
160.971
163.196
165.536
167.972
170.476
173.015
175.547
178.021
180.379
182.557
184.488
186.108
187.368
188.242
188.678
188.734
188.785
188.997
146.885
146.902
147.195
147.763
148.539
149.493
150.621
151.922
153.391
155.023
156.813
158.754
160.837
163.051
165.38
167.806
170.302
172.835
175.365
177.843
180.212
182.407
184.361
186.01
187.294
188.169
188.566
188.62
188.753
189.037
146.686
146.774
147.085
147.643
148.406
149.347
150.46
151.743
153.191
154.798
156.561
158.47
160.518
162.693
164.982
167.364
169.816
172.306
174.798
177.246
179.595
181.788
183.761
185.45
186.801
187.777
188.37
188.725
189.041
189.34
146.461
146.58
146.903
147.453
148.201
149.126
150.219
151.478
152.897
154.471
156.195
158.06
160.059
162.179
164.408
166.725
169.11
171.533
173.96
176.351
178.658
180.829
182.811
184.551
186.005
187.157
188.025
188.696
189.249
189.768
146.2
146.333
146.665
147.207
147.939
148.843
149.91
151.137
152.519
154.051
155.725
157.534
159.469
161.52
163.672
165.908
168.206
170.541
172.882
175.195
177.44
179.576
181.558
183.348
184.919
186.261
187.392
188.354
189.165
189.912
145.9
146.038
146.372
146.904
147.616
148.494
149.53
150.719
152.057
153.536
155.151
156.894
158.755
160.722
162.784
164.922
167.117
169.346
171.583
173.798
175.96
178.038
180
181.821
183.484
184.985
186.332
187.537
188.557
189.476
145.557
145.696
146.028
146.546
147.236
148.083
149.083
150.228
151.514
152.934
154.481
156.146
157.921
159.794
161.751
163.777
165.853
167.958
170.071
172.167
174.222
176.213
178.121
179.931
181.637
183.238
184.732
186.111
187.276
188.322
145.172
145.309
145.634
146.136
146.799
147.613
148.571
149.666
150.894
152.247
153.717
155.297
156.975
158.741
160.581
162.48
164.421
166.386
168.353
170.305
172.222
174.09
175.897
177.639
179.318
180.937
182.491
183.964
185.213
186.364
144.746
144.879
145.193
145.676
146.31
147.086
147.998
149.038
150.202
151.48
152.867
154.351
155.923
157.571
159.282
161.041
162.83
164.633
166.433
168.211
169.955
171.653
173.301
174.901
176.463
177.998
179.506
180.977
182.248
183.486
144.28
144.408
144.708
145.169
145.771
146.506
147.367
148.348
149.441
150.64
151.935
153.316
154.773
156.293
157.863
159.466
161.088
162.71
164.316
165.89
167.418
168.892
170.31
171.678
173.011
174.329
175.65
176.988
178.188
179.492
143.774
143.896
144.181
144.617
145.185
145.875
146.682
147.599
148.618
149.731
150.928
152.199
153.532
154.915
156.332
157.768
159.206
160.627
162.014
163.348
164.616
165.806
166.913
167.941
168.905
169.833
170.764
171.762
172.725
174.043
143.232
143.347
143.615
144.023
144.554
145.198
145.948
146.797
147.737
148.759
149.853
151.008
152.211
153.448
154.703
155.959
157.198
158.399
159.541
160.603
161.564
162.406
163.115
163.68
164.106
164.416
164.659
164.967
165.349
166.522
142.655
142.762
143.012
143.391
143.883
144.477
145.167
145.945
146.803
147.731
148.717
149.751
150.817
151.901
152.986
154.053
155.08
156.044
156.919
157.678
158.291
158.725
158.947
158.922
158.619
158.021
157.146
156.154
155.206
155.711
142.046
142.144
142.375
142.724
143.175
143.718
144.346
145.05
145.823
146.653
147.528
148.436
149.362
150.288
151.197
152.066
152.871
153.585
154.176
154.608
154.838
154.815
154.476
153.744
152.521
150.692
148.129
144.828
140.88
138.845
141.407
141.497
141.706
142.024
142.433
142.923
143.487
144.117
144.802
145.532
146.294
147.073
147.855
148.62
149.348
150.015
150.593
151.049
151.345
151.435
151.262
150.752
149.806
148.291
146.012
142.68
137.837
130.821
120.361
108.141
1.31245
1.29411
1.22851
1.13701
1.04072
0.949675
0.866908
0.792593
0.725984
0.665993
0.611387
0.560944
0.513566
0.468335
0.424545
0.381731
0.339704
0.298566
0.258692
0.220637
0.18496
0.152035
0.121969
0.0947524
0.0707702
0.0502457
0.0334509
0.0204127
0.0105422
0.00210208
1.26537
1.24395
1.18206
1.09782
1.0093
0.925072
0.847857
0.777947
0.714784
0.657455
0.604886
0.555988
0.509759
0.46535
0.422099
0.37958
0.337639
0.296434
0.256422
0.218255
0.182564
0.149745
0.11991
0.093077
0.0691917
0.0487429
0.0321433
0.0195089
0.0103136
0.00367756
1.21457
1.18851
1.12878
1.05132
0.971073
0.894487
0.823686
0.758974
0.69995
0.64587
0.595824
0.548863
0.504099
0.460762
0.418249
0.376175
0.334426
0.293225
0.253129
0.214916
0.179326
0.146761
0.117212
0.0905109
0.0666413
0.0460164
0.0294927
0.0176743
0.00981807
0.00410595
1.16719
1.13656
1.07827
1.00658
0.93387
0.864351
0.799581
0.739805
0.684754
0.633834
0.586273
0.54125
0.497978
0.45577
0.414082
0.372568
0.331148
0.290084
0.250004
0.211798
0.176315
0.144
0.114754
0.0882546
0.0644471
0.0438211
0.027304
0.015617
0.00843733
0.00318184
1.13682
1.1018
1.04503
0.977566
0.910307
0.845515
0.784692
0.728064
0.675509
0.62655
0.58051
0.536659
0.494283
0.452759
0.411595
0.370484
0.329364
0.288511
0.248571
0.210466
0.175099
0.142975
0.114067
0.088049
0.0647473
0.0444263
0.0279613
0.0161028
0.00874682
0.00270414
1.13496
1.09458
1.0387
0.972489
0.907079
0.843357
0.783175
0.726912
0.67458
0.625747
0.579769
0.535938
0.493571
0.452071
0.410981
0.370015
0.329126
0.288572
0.248954
0.211119
0.175909
0.143839
0.114943
0.0890044
0.065916
0.0458972
0.0297378
0.0178668
0.00922756
0.00265565
1.17072
1.12292
1.06378
0.993744
0.924251
0.857167
0.793927
0.735127
0.680704
0.630155
0.58278
0.537836
0.494625
0.452542
0.41113
0.370116
0.329454
0.289366
0.250353
0.213098
0.178278
0.146343
0.117405
0.0913994
0.0682785
0.0481327
0.0312911
0.0182744
0.00861542
0.00224332
1.24834
1.18878
1.11767
1.03607
0.956278
0.881
0.811398
0.747613
0.689345
0.635884
0.586311
0.539734
0.495354
0.452493
0.410648
0.369564
0.329206
0.289771
0.251658
0.215325
0.181208
0.149624
0.120701
0.0945154
0.0710694
0.0505684
0.0331746
0.0187739
0.00772912
0.00184166
1.36429
1.28131
1.18803
1.08658
0.991238
0.905131
0.828091
0.75871
0.696011
0.639318
0.587449
0.539296
0.49391
0.450467
0.408356
0.367341
0.327465
0.288989
0.252253
0.217384
0.184383
0.153282
0.124134
0.097308
0.0734613
0.0527671
0.0347951
0.019036
0.0067921
0.00148054
1.4948
1.37639
1.25632
1.13503
1.02162
0.921199
0.834417
0.759913
0.694987
0.637022
0.584266
0.535487
0.48974
0.446135
0.403918
0.362834
0.323395
0.286256
0.251572
0.218892
0.187471
0.156862
0.127445
0.100079
0.0757127
0.0546485
0.0360449
0.0190401
0.0058363
0.00116814
1.59337
1.44866
1.29831
1.15451
1.02853
0.920843
0.829563
0.75233
0.686344
0.628363
0.575826
0.52731
0.482012
0.438978
0.39717
0.35631
0.317348
0.281592
0.249349
0.219496
0.190285
0.160623
0.130842
0.102496
0.0773206
0.0558748
0.0368512
0.018946
0.00506194
0.000932828
1.6612
1.47195
1.29484
1.13309
0.998631
0.889625
0.80042
0.726489
0.664364
0.610011
0.560006
0.513118
0.469341
0.427884
0.387132
0.34659
0.308033
0.274049
0.245319
0.219619
0.193533
0.164956
0.134351
0.104311
0.0778521
0.0560702
0.0370836
0.0188264
0.00456224
0.000805252
1.62658
1.37297
1.18378
1.03145
0.911745
0.818606
0.743069
0.680066
0.627887
0.581974
0.537216
0.493012
0.451623
0.412959
0.374073
0.333591
0.294674
0.262461
0.238645
0.219166
0.197657
0.17038
0.13815
0.105275
0.0768056
0.0548318
0.0366641
0.0188095
0.00443109
0.000813093
1.32464
1.02462
0.90373
0.824375
0.753189
0.701219
0.656212
0.612585
0.576651
0.545125
0.508484
0.466932
0.428284
0.394321
0.358924
0.318045
0.276997
0.245909
0.228832
0.218666
0.203801
0.177887
0.142629
0.105089
0.0734849
0.0516012
0.0355334
0.0191246
0.00478844
0.000983044
0.584815
0.242214
0.364274
0.504588
0.521131
0.546514
0.55317
0.528897
0.509815
0.50155
0.478091
0.437228
0.39995
0.373094
0.343757
0.300987
0.253639
0.221479
0.213778
0.218212
0.213293
0.188678
0.148191
0.103258
0.0668365
0.0455278
0.0336454
0.0201958
0.00579995
0.00133788
140.728
140.808
140.997
141.281
141.646
142.081
142.579
143.131
143.726
144.353
144.998
145.646
146.28
146.879
147.422
147.881
148.225
148.416
148.41
148.15
147.563
146.554
144.99
142.676
139.314
134.407
127.036
115.285
93.1247
33.3332
140
140.072
140.238
140.487
140.806
141.184
141.614
142.084
142.586
143.106
143.631
144.143
144.625
145.055
145.408
145.654
145.761
145.684
145.374
144.764
143.771
142.28
140.135
137.102
132.824
126.717
117.748
104.183
84.6579
56.2027
139.231
139.292
139.435
139.649
139.92
140.239
140.598
140.986
141.392
141.804
142.205
142.58
142.908
143.167
143.329
143.365
143.235
142.896
142.29
141.347
139.977
138.057
135.425
131.849
127.003
120.435
111.552
99.717
85.4809
68.8588
138.42
138.471
138.59
138.767
138.99
139.249
139.536
139.84
140.149
140.451
140.729
140.966
141.141
141.23
141.205
141.033
140.676
140.085
139.203
137.957
136.256
133.983
130.985
127.067
121.98
115.433
107.129
96.7348
84.1892
69.0532
137.571
137.611
137.706
137.845
138.019
138.217
138.431
138.651
138.863
139.055
139.211
139.311
139.335
139.258
139.052
138.682
138.109
137.286
136.155
134.645
132.67
130.125
126.88
122.78
117.643
111.27
103.461
93.9732
82.6394
69.6666
136.684
136.714
136.784
136.886
137.01
137.147
137.289
137.424
137.54
137.624
137.658
137.625
137.503
137.267
136.887
136.332
135.561
134.529
133.18
131.449
129.26
126.522
123.13
118.963
113.893
107.785
100.516
91.9861
82.1873
71.5319
135.763
135.783
135.828
135.892
135.967
136.043
136.113
136.165
136.187
136.164
136.082
135.92
135.658
135.27
134.73
134.004
133.055
131.839
130.307
128.401
126.054
123.193
119.735
115.593
110.681
104.918
98.2522
90.6709
82.2179
73.2292
134.811
134.82
134.841
134.867
134.893
134.91
134.909
134.88
134.81
134.685
134.49
134.205
133.811
133.284
132.595
131.716
130.611
129.24
127.56
125.52
123.067
120.143
116.685
112.636
107.941
102.562
96.4827
89.7252
82.339
74.596
133.831
133.83
133.827
133.817
133.795
133.753
133.684
133.576
133.417
133.195
132.893
132.493
131.977
131.32
130.499
129.485
128.246
126.748
124.953
122.82
120.306
117.367
113.96
110.048
105.601
100.605
95.0657
89.0176
82.5142
75.7829
132.828
132.817
132.79
132.745
132.676
132.578
132.443
132.259
132.017
131.702
131.299
130.793
130.165
129.393
128.455
127.324
125.975
124.377
122.498
120.306
117.768
114.853
111.532
107.784
103.596
98.9684
93.9199
88.4895
82.7302
76.8268
131.806
131.785
131.736
131.656
131.543
131.391
131.193
130.938
130.616
130.215
129.72
129.117
128.387
127.513
126.474
125.246
123.808
122.134
120.199
117.977
115.446
112.583
109.371
105.802
101.872
97.5912
92.9841
88.0895
82.9554
77.73
130.77
130.74
130.669
130.556
130.401
130.198
129.94
129.618
129.223
128.742
128.163
127.472
126.654
125.691
124.566
123.26
121.753
120.025
118.057
115.83
113.328
110.538
107.451
104.064
100.383
96.423
92.2089
87.777
83.1693
78.5048
129.725
129.687
129.595
129.451
129.256
129.005
128.692
128.308
127.845
127.292
126.637
125.869
124.973
123.935
122.739
121.371
119.813
118.052
116.071
113.858
111.403
108.699
105.742
102.536
99.0912
95.4232
91.5569
87.5248
83.3626
79.1666
128.678
128.631
128.52
128.348
128.115
127.82
127.455
127.015
126.49
125.872
125.15
124.314
123.352
122.251
121
119.584
117.992
116.213
114.236
112.052
109.656
107.045
104.221
101.19
97.9643
94.5601
91.0006
87.3141
83.531
79.729
127.634
127.579
127.451
127.251
126.984
126.648
126.237
125.745
125.165
124.49
123.71
122.816
121.798
120.647
119.351
117.902
116.29
114.507
112.546
110.402
108.072
105.559
102.866
100.001
96.9761
93.8088
90.5193
87.132
83.6725
80.2039
126.599
126.538
126.393
126.169
125.87
125.497
125.044
124.506
123.878
123.152
122.322
121.379
120.316
119.125
117.798
116.327
114.706
112.93
110.994
108.897
106.64
104.224
101.656
98.946
96.1053
93.1496
90.0974
86.9695
83.7873
80.6024
125.581
125.513
125.354
125.107
124.78
124.374
123.884
123.306
122.635
121.866
120.993
120.011
118.912
117.69
116.341
114.858
113.238
111.477
109.574
107.529
105.344
103.024
100.576
98.0088
95.3345
92.5673
89.7233
86.8205
83.8767
80.9344
124.587
124.513
124.34
124.073
123.721
123.285
122.762
122.149
121.442
120.637
119.729
118.714
117.588
116.345
114.982
113.496
111.883
110.144
108.279
106.288
104.176
101.947
99.6106
97.1744
94.6499
92.05
89.3887
86.6813
83.943
81.2087
123.622
123.543
123.358
123.074
122.7
122.238
121.687
121.044
120.306
119.471
118.535
117.495
116.348
115.091
113.721
112.238
110.639
108.926
107.101
105.165
103.123
100.982
98.748
96.4308
94.0405
91.5885
89.0872
86.5496
83.9885
81.433
122.696
122.612
122.417
122.117
121.724
121.24
120.664
119.996
119.232
118.373
117.414
116.355
115.194
113.929
112.559
111.083
109.503
107.819
106.034
104.152
102.178
100.117
97.9782
95.7684
93.4976
91.1761
88.8146
86.4243
84.0163
81.6145
121.815
121.727
121.523
121.21
120.8
120.297
119.701
119.011
118.227
117.348
116.373
115.3
114.13
112.861
111.495
110.031
108.471
106.818
105.074
103.244
101.333
99.3467
97.293
95.1794
93.0146
90.8075
88.5679
86.3052
84.0292
81.7596
120.987
120.896
120.684
120.359
119.935
119.416
118.803
118.096
117.296
116.401
115.413
114.332
113.157
111.889
110.53
109.08
107.542
105.919
104.215
102.434
100.581
98.6629
96.6861
94.658
92.5863
90.4793
88.3454
86.193
84.0304
81.8744
120.22
120.126
119.907
119.573
119.136
118.604
117.978
117.257
116.443
115.538
114.541
113.454
112.278
111.013
109.663
108.229
106.713
105.12
103.453
101.717
99.9178
98.0607
96.1522
94.1993
92.209
90.1888
88.1461
86.0883
84.0228
81.9635
119.523
119.426
119.201
118.858
118.412
117.869
117.231
116.5
115.676
114.762
113.76
112.67
111.495
110.236
108.896
107.478
105.984
104.419
102.787
101.092
99.3402
97.537
95.6885
93.8009
91.8809
89.9352
87.9705
85.9934
84.0104
82.0332
118.904
118.805
118.574
118.223
117.768
117.216
116.569
115.83
114.999
114.079
113.073
111.983
110.81
109.558
108.229
106.826
105.353
103.814
102.212
100.554
98.8443
97.088
95.291
93.4594
91.5992
89.7166
87.8176
85.9082
83.9942
82.0854
118.372
118.27
118.034
117.676
117.214
116.654
116.001
115.255
114.419
113.496
112.488
111.399
110.23
108.984
107.666
106.277
104.823
103.306
101.732
100.106
98.4315
96.7149
94.9615
93.1768
91.3665
89.5362
87.6917
85.8383
83.9814
82.1294
117.937
117.832
117.588
117.222
116.753
116.188
115.529
114.778
113.938
113.013
112.005
110.917
109.752
108.513
107.204
105.829
104.39
102.893
101.342
99.7417
98.0968
96.4127
94.6945
92.9476
91.1774
89.389
87.5878
85.7787
83.9667
82.1587
117.611
117.5
117.247
116.875
116.401
115.831
115.168
114.413
113.571
112.645
111.637
110.55
109.389
108.157
106.856
105.491
104.065
102.584
101.051
99.4714
97.8498
96.1911
94.5005
92.7831
91.0439
89.2881
87.5204
85.7459
83.9691
82.1962
117.409
117.274
117.004
116.626
116.15
115.578
114.912
114.156
113.312
112.386
111.379
110.295
109.137
107.909
106.614
105.257
103.841
102.37
100.85
99.2846
97.6787
96.0372
94.365
92.6671
90.9485
89.2139
87.4682
85.7158
83.9613
82.2095
117.391
117.192
116.894
116.509
116.03
115.455
114.786
114.028
113.184
112.257
111.251
110.168
109.013
107.789
106.499
105.147
103.738
102.275
100.763
99.2072
97.6117
95.9813
94.321
92.6355
90.9297
89.2083
87.476
85.7373
83.9964
82.2575
-50.559
-30.3376
-11.0648
35.862
28.485
16.5877
51.388
39.3326
28.1659
52.795
42.3861
34.3603
57.1263
48.8497
42.1048
61.5087
54.6088
48.7259
64.7753
58.9004
53.8571
67.3648
62.3446
58.0396
69.5474
65.2185
61.5126
71.3894
67.6132
64.3881
72.9379
69.6094
66.7739
74.2423
71.2811
68.7636
75.3432
72.6862
70.4306
76.2726
73.87
71.8324
77.0571
74.869
73.0146
77.7186
75.7128
74.0134
78.2753
76.4253
74.8578
78.7423
77.0261
75.5715
79.1325
77.5317
76.1738
79.4571
77.9558
76.681
79.7255
78.31
77.1067
79.9463
78.6048
77.4626
80.1262
78.8481
77.7581
80.2733
79.049
78.0033
80.39
79.211
78.2024
80.4881
79.3465
78.3679
80.559
79.4472
78.4933
80.6311
79.5421
78.6054
80.6647
79.592
78.6693
80.7337
79.675
78.7589
-2.46682
-2.33352
-0.875823
0.245455
0.291749
0.369337
0.430154
0.40934
0.412512
0.46016
0.461129
0.407272
0.36091
0.34366
0.32771
0.282336
0.222478
0.185779
0.192285
0.220913
0.231051
0.206458
0.156525
0.0995957
0.0554228
0.0352458
0.0309948
0.022953
0.0078407
0.00190226
2.84736
-0.166742
1.25353
0.828869
-0.412955
-0.248745
0.324081
0.381286
0.377763
0.47287
0.46102
0.353609
0.287767
0.305212
0.331446
0.281138
0.191349
0.13607
0.157889
0.225178
0.258061
0.231238
0.165479
0.0902061
0.0345228
0.0171635
0.027176
0.0291952
0.0117168
0.00268061
13.9244
5.52535
2.71725
0.378615
-0.0231434
1.13643
1.34374
0.229634
-0.19555
0.122287
0.476889
0.36504
0.259318
0.311566
0.365902
0.27582
0.118033
0.0221181
0.0762479
0.233536
0.316138
0.278654
0.185127
0.081947
0.00809866
-0.00654474
0.0252337
0.0436927
0.0200157
0.00362743
23.6292
13.7672
7.92064
4.16276
2.36568
1.71839
0.629177
-0.0560786
0.156444
1.31469
1.3331
0.270438
-0.147991
-0.0362983
0.296194
0.33538
0.0936155
-0.0594435
0.0676874
0.295293
0.410838
0.332947
0.192496
0.048228
-0.0540624
-0.0663083
0.0053813
0.0656862
0.0357831
0.00432094
32.7761
23.0245
15.7143
10.4196
6.77084
4.28966
2.44721
1.41394
1.08376
1.14502
0.675085
0.111659
-0.0667457
0.49842
1.03721
0.628477
-0.042079
-0.451397
-0.413367
0.193643
0.549876
0.429597
0.222035
0.030284
-0.10197
-0.10291
0.0458789
0.142302
0.077063
0.00429364
40.7354
31.8164
23.9343
17.5056
12.5799
8.93094
6.25487
4.36659
3.09157
2.21309
1.45242
0.847523
0.526617
0.619162
0.623749
0.377819
-0.148693
-0.509007
-0.141345
0.815879
0.978082
0.485548
0.177117
-0.0647388
-0.244296
-0.284458
-0.0963639
0.182151
0.143015
0.000479391
47.2287
39.4277
31.6563
24.7698
19.1455
14.6838
11.1603
8.40811
6.31213
4.74037
3.51377
2.52798
1.82023
1.40668
1.09139
0.726818
0.22902
-0.0882293
0.10448
0.549184
0.697089
0.493385
0.220301
-0.045391
-0.25436
-0.260695
0.137611
0.457562
0.273491
-0.00842306
52.5172
45.7886
38.534
31.7068
25.8253
20.8802
16.7407
13.3184
10.5452
8.32541
6.52632
5.05611
3.90504
3.05386
2.39035
1.77544
1.17775
0.770631
0.703183
0.840275
0.879517
0.673422
0.355107
0.0600144
-0.142363
-0.151426
0.0812096
0.281973
0.315849
-0.056874
56.8313
51.0159
44.4333
37.9614
32.1447
27.0336
22.5641
18.701
15.414
12.6471
10.3217
8.37436
6.77267
5.48016
4.41772
3.49661
2.69773
2.09582
1.75521
1.59943
1.42801
1.11729
0.738318
0.401553
0.171872
0.105739
0.202726
0.308011
0.256364
-0.293479
60.3517
55.2845
49.3826
43.3985
37.8452
32.8002
28.2348
24.1445
20.5304
17.373
14.6338
12.2721
10.2549
8.54653
7.09495
5.84644
4.77965
3.91645
3.27576
2.80407
2.37848
1.91518
1.439
1.01736
0.69985
0.516925
0.452547
0.392067
0.167656
-0.512246
63.2426
58.7831
53.503
48.0348
42.8384
37.9967
33.4971
29.3509
25.5786
22.1852
19.158
16.4757
14.116
12.0532
10.2546
8.68583
7.32578
6.17271
5.22336
4.43907
3.74617
3.08698
2.46035
1.90079
1.44034
1.09225
0.831642
0.568224
0.169063
-0.59308
65.6369
61.6728
56.9343
51.9549
47.1395
42.5666
38.2293
34.1445
30.3416
26.8389
23.6397
20.7381
18.1235
15.7815
13.6927
11.8353
10.1922
8.75346
7.50784
6.4269
5.46447
4.57992
3.76175
3.02329
2.38042
1.83447
1.35799
0.882039
0.311228
-0.52437
67.6338
64.0778
59.802
55.2621
50.8147
46.5302
42.4022
38.4478
34.6987
31.1791
27.9015
24.8701
22.0836
19.5368
17.2199
15.1207
13.2269
11.5282
10.0121
8.65764
7.43456
6.31411
5.28213
4.33939
3.48966
2.72693
2.02548
1.33426
0.588522
-0.332237
69.3086
66.0922
62.2097
58.056
53.9469
49.9442
46.0407
42.2508
38.6048
35.1289
31.8401
28.7482
25.8584
23.1719
20.6862
18.3955
16.2928
14.37
12.6166
11.0175
9.5523
8.20059
6.94864
5.79072
4.72321
3.73636
2.80796
1.90109
0.973624
-0.0542362
70.7191
67.7877
64.24
60.4223
56.6165
52.877
49.1947
45.5809
42.063
38.6667
35.4105
32.3073
29.3659
26.5919
23.9875
21.552
19.2823
17.1735
15.2182
13.4058
11.7226
10.154
8.68779
7.31574
6.03053
4.82111
3.66898
2.54767
1.43027
0.268713
71.9102
69.2196
65.9579
62.4316
58.8944
55.3946
51.9212
48.4822
45.1018
41.8038
38.6068
35.5246
32.5682
29.7457
27.0625
24.5212
22.1219
19.8625
17.7389
15.7441
13.8688
12.1026
10.4355
8.85859
7.36341
5.93892
4.56981
3.23675
1.92187
0.60047
72.9176
70.4315
67.4148
64.1409
60.8402
57.5556
54.2748
51.0026
47.7597
44.5678
41.4445
38.4036
35.457
32.6141
29.8822
27.266
24.7682
22.389
20.1269
17.9777
15.9355
13.9929
12.1418
10.374
8.68112
7.05264
5.47565
3.93521
2.41796
0.91503
73.7699
71.4579
68.6515
65.5966
62.5034
59.4104
56.3044
53.1873
50.0768
46.9921
43.9492
40.9616
38.0409
35.1972
32.4387
29.7716
27.2003
24.7268
22.3515
20.0727
17.8867
15.7884
13.7715
11.829
9.95276
8.13323
6.35907
4.61759
2.89694
1.19777
74.4905
72.327
69.7015
66.8364
63.9246
61.0013
58.0523
55.0773
52.091
49.1104
46.1497
43.2214
40.3367
37.5056
34.7367
32.037
29.4119
26.865
24.3979
22.0106
19.7014
17.4668
15.3021
13.2013
11.1569
9.1602
7.20069
5.2666
3.34578
1.44365
75.0987
73.062
70.5921
67.8913
65.1378
62.3638
59.5547
56.7082
53.8366
50.9543
48.0743
45.2075
42.3644
39.5547
36.7869
34.0685
31.4052
28.8016
26.2605
23.783
21.3688
19.0157
16.7202
14.4772
12.2799
10.1203
7.98815
5.87188
3.75821
1.65406
75.6105
73.6819
71.3457
68.7869
66.171
63.5278
60.8424
58.111
55.3435
52.5525
49.7491
46.9433
44.1444
41.3615
38.6029
35.8758
33.1865
30.5399
27.9396
25.3875
22.8843
20.4287
18.0183
15.6486
13.3135
11.0053
8.71409
6.42783
4.13205
1.83329
76.0398
74.2031
71.9814
69.545
67.0482
64.5188
61.9419
59.3125
56.6384
53.9305
51.1985
48.451
45.6965
42.9432
40.1988
37.4705
34.7645
32.0859
29.4386
26.8253
24.2471
21.7037
19.193
16.7114
14.2533
11.811
9.37479
6.93221
4.4677
1.98642
76.3976
74.6388
72.5148
70.1831
67.7886
65.3576
62.875
60.3348
57.7434
55.1101
52.4431
49.75
47.0382
44.3152
41.5881
38.8637
36.1479
33.4459
30.7619
28.0986
25.4578
22.8395
20.2423
17.6629
15.096
12.5342
9.9676
7.38349
4.76552
2.11697
76.6949
75.0016
72.9602
70.7174
68.4101
66.063
63.6615
61.1986
58.6793
56.1116
53.5026
50.8589
48.1869
45.4934
42.7848
40.0674
37.3469
34.6283
31.9157
29.2122
26.5196
23.8384
21.1673
18.5034
15.8417
13.1748
10.4928
7.78276
5.02775
2.22877
76.9378
75.2989
73.3265
71.1583
68.9241
66.6477
64.3147
61.9175
59.4599
56.9488
54.3904
51.7903
49.1542
46.488
43.7977
41.0889
38.3671
35.6369
32.9025
30.1669
27.4321
24.6985
21.9654
19.2298
16.4868
13.7292
10.9471
8.12713
5.25239
2.32146
77.1382
75.5434
73.6277
71.5208
69.3467
67.1288
64.8524
62.5098
60.1037
57.6403
55.1247
52.562
49.9571
47.3153
44.6418
41.9421
39.221
36.4831
33.7323
30.9716
28.2028
25.4268
22.6425
19.8473
17.0363
14.2024
11.3354
8.42202
5.44513
2.40021
77.2928
75.7329
73.862
71.8036
69.6774
67.5059
65.2747
62.9758
60.6112
58.1862
55.7055
53.1734
50.5942
47.9728
45.3139
42.6225
39.9031
37.1602
34.3972
31.6173
28.8221
26.0125
23.1875
20.3445
17.4786
14.5826
11.6464
8.65657
5.59604
2.458
77.4239
75.8896
74.0528
72.0314
69.9413
67.8048
65.608
63.3423
61.0092
58.6136
56.1596
53.651
51.0919
48.4864
45.8391
43.1546
40.4371
37.6908
34.9192
32.125
29.3101
26.4751
23.6191
20.7394
17.8313
14.8874
11.8975
8.84796
5.72148
2.50745
77.5045
75.9864
74.1719
72.1755
70.1098
67.9968
65.8229
63.5795
61.2676
58.8917
56.4556
53.963
51.4174
48.8228
46.1835
43.5038
40.7879
38.0395
35.2623
32.4587
29.6307
26.7787
23.9019
20.9976
18.0609
15.0843
12.0574
8.96634
5.79371
2.52726
77.5933
76.0763
74.2741
72.2926
70.2407
68.1403
65.9785
63.7468
61.4459
59.0801
56.6531
54.1683
51.6291
49.0395
46.4035
43.7253
41.0091
38.2587
35.4772
32.6676
29.8315
26.9694
24.0805
21.162
18.2091
15.2142
12.1664
9.05103
5.84814
2.53377
)
;

boundaryField
{
    inlet
    {
        type            zeroGradient;
    }
    outlet
    {
        type            fixedValue;
        value           uniform 0;
    }
    flap
    {
        type            zeroGradient;
    }
    upperWall
    {
        type            zeroGradient;
    }
    lowerWall
    {
        type            zeroGradient;
    }
    frontAndBack
    {
        type            empty;
    }
}


// ************************************************************************* //
