/*--------------------------------*- C++ -*----------------------------------*\
  =========                 |
  \\      /  F ield         | OpenFOAM: The Open Source CFD Toolbox
   \\    /   O peration     | Website:  https://openfoam.org
    \\  /    A nd           | Version:  dev
     \\/     M anipulation  |
\*---------------------------------------------------------------------------*/
FoamFile
{
    version     2.0;
    format      ascii;
    class       surfaceScalarField;
    location    "4.6";
    object      phi;
}
// * * * * * * * * * * * * * * * * * * * * * * * * * * * * * * * * * * * * * //

dimensions      [0 3 -1 0 0 0 0];

internalField   nonuniform List<scalar> 
5457
(
0.198418
0.00158237
0.19648
0.00193734
0.194192
0.00228804
0.191509
0.00268352
0.188428
0.00308113
0.184951
0.00347668
0.181072
0.00387848
0.176779
0.0042939
0.17205
0.00472809
0.166865
0.00518508
0.161197
0.00566835
0.155016
0.00618086
0.148291
0.00672478
0.14099
0.00730114
0.133081
0.00790929
0.124535
0.00854623
0.115329
0.00920567
0.105452
0.00987697
0.0949082
0.0105439
0.0837249
0.0111834
0.0719604
0.0117645
0.0597121
0.0122482
0.0471234
0.0125887
0.0343832
0.0127403
0.021688
0.0126952
0.00903774
0.0126503
-0.00291615
0.0119539
-0.00847221
0.00555606
-0.00804307
-0.000429137
-0.00804307
0.199928
0.00165419
0.199176
0.00268975
0.197965
0.00349894
0.196332
0.00431665
0.194272
0.00514111
0.191782
0.00596667
0.188855
0.00680537
0.185478
0.00767066
0.181633
0.00857289
0.177298
0.00952035
0.172446
0.0105203
0.167048
0.011579
0.161071
0.0127014
0.154483
0.0138899
0.147248
0.0151442
0.139335
0.0164591
0.130717
0.0178234
0.121377
0.0192169
0.111313
0.0206085
0.100543
0.021953
0.0891185
0.0231888
0.0771309
0.0242358
0.0647249
0.0249947
0.0521174
0.0253478
0.0396569
0.0251556
0.0281066
0.0242006
0.0185959
0.0214646
0.00879799
0.015354
0.00118389
0.00718496
-0.00685918
0.199781
0.00187362
0.199087
0.00338357
0.197946
0.00463983
0.196409
0.00585322
0.194483
0.00706719
0.192164
0.00828565
0.189447
0.00952272
0.186322
0.010796
0.182774
0.0121207
0.178785
0.0135091
0.174333
0.0149723
0.169392
0.0165199
0.163934
0.0181598
0.157927
0.0198969
0.151339
0.0217322
0.144137
0.0236607
0.136292
0.0256687
0.127778
0.0277306
0.118581
0.0298052
0.108704
0.0318308
0.0981719
0.0337206
0.0870496
0.035358
0.0754529
0.0365914
0.0635757
0.037225
0.0517337
0.0369976
0.0403982
0.0355361
0.0297398
0.032123
0.0191666
0.0259272
0.00959799
0.0167536
0.00273881
0.199703
0.00217054
0.199008
0.00407886
0.197887
0.00576033
0.196376
0.00736409
0.194488
0.00895525
0.192222
0.0105516
0.189575
0.0121703
0.186539
0.0138319
0.183105
0.015555
0.179258
0.0173555
0.174983
0.0192472
0.170261
0.0212424
0.165069
0.0233513
0.159385
0.0255809
0.153184
0.0279338
0.146439
0.0304057
0.139125
0.0329829
0.131217
0.0356377
0.122698
0.0383242
0.113558
0.0409715
0.103801
0.0434774
0.0934583
0.0457006
0.0825971
0.0474526
0.0713342
0.0484879
0.0598421
0.0484897
0.0483179
0.0470603
0.0368117
0.0436292
0.0251884
0.0375505
0.0133358
0.0286062
0.0160746
0.199667
0.00250312
0.198964
0.0047821
0.197863
0.00686161
0.196381
0.00884573
0.194533
0.010804
0.192318
0.0127662
0.189734
0.0147541
0.186776
0.0167904
0.183434
0.0188966
0.179699
0.0210911
0.175556
0.02339
0.170991
0.0258074
0.165987
0.0283549
0.160527
0.031041
0.154592
0.0338691
0.148161
0.0368361
0.141216
0.0399285
0.133734
0.0431191
0.125698
0.046361
0.117088
0.0495808
0.107895
0.0526708
0.098116
0.0554795
0.087766
0.0578026
0.0768799
0.059374
0.0655098
0.0598598
0.0537089
0.0588612
0.0414547
0.0558834
0.0285882
0.050417
0.0148526
0.0423418
0.0309272
0.199653
0.00285031
0.198949
0.00548614
0.197871
0.00793953
0.196427
0.0102899
0.194627
0.0126039
0.192473
0.0149196
0.189964
0.0172636
0.187093
0.0196612
0.183854
0.0221358
0.180237
0.0247082
0.17623
0.0273964
0.171822
0.0302159
0.166997
0.0331796
0.161741
0.0362968
0.156039
0.0395719
0.149872
0.0430025
0.143224
0.0465766
0.136075
0.0502683
0.128403
0.0540331
0.120183
0.0578003
0.111389
0.0614651
0.10199
0.0648783
0.0919559
0.0678368
0.0812551
0.0700748
0.0698551
0.0712598
0.0577176
0.0709987
0.0447612
0.0688398
0.0308495
0.0643287
0.0158733
0.0573179
0.0468005
0.19965
0.00320025
0.198954
0.00618211
0.197904
0.00898913
0.196505
0.0116895
0.194763
0.0143461
0.192681
0.0170016
0.190257
0.0196872
0.187488
0.0224307
0.184366
0.0252578
0.180883
0.0281911
0.177029
0.0312502
0.172792
0.0344524
0.16816
0.0378116
0.163119
0.0413382
0.157653
0.045038
0.151746
0.0489099
0.145378
0.052944
0.138529
0.0571177
0.131171
0.0613912
0.12327
0.065701
0.114783
0.0699517
0.105656
0.0740061
0.0958177
0.0776746
0.0851871
0.0807054
0.0736691
0.0827778
0.0611622
0.0835056
0.0475558
0.0824462
0.032759
0.0791255
0.016783
0.0732939
0.0635836
0.199655
0.00354559
0.198975
0.00686221
0.197959
0.0100049
0.19661
0.0130382
0.194934
0.0160221
0.192934
0.0190021
0.190608
0.0220132
0.187952
0.0250859
0.184963
0.0282477
0.181631
0.0315231
0.177947
0.0349335
0.173902
0.0384976
0.169483
0.042231
0.164675
0.0461455
0.159465
0.0502487
0.153832
0.054542
0.147757
0.059019
0.141213
0.0636622
0.134165
0.0684394
0.126568
0.0732977
0.118363
0.0781568
0.10947
0.0828988
0.0997874
0.0873573
0.0891882
0.0913046
0.0775259
0.0944401
0.0646481
0.0963835
0.050418
0.0966763
0.0347685
0.094775
0.01779
0.0902724
0.0813736
0.199664
0.00388141
0.199006
0.00752
0.19803
0.0109811
0.196739
0.0143296
0.195137
0.0176241
0.193227
0.0209119
0.191009
0.024231
0.188481
0.0276145
0.185637
0.0310916
0.182471
0.0346887
0.178976
0.0384289
0.175141
0.0423324
0.170955
0.0464167
0.166405
0.0506958
0.161474
0.0551796
0.156143
0.0598733
0.150387
0.0647751
0.144174
0.069875
0.137463
0.0751507
0.130196
0.080564
0.122299
0.0860544
0.113668
0.0915299
0.104169
0.0968558
0.0936348
0.101839
0.0818655
0.106209
0.0686502
0.109599
0.0538026
0.111524
0.037237
0.111341
0.0190836
0.108426
0.100457
0.199677
0.00420418
0.199047
0.00815023
0.198116
0.0119124
0.196887
0.0155579
0.195367
0.019145
0.193556
0.0227224
0.191456
0.0263308
0.189065
0.0300052
0.18638
0.0337768
0.183396
0.0376734
0.180104
0.04172
0.176498
0.0459385
0.172567
0.0503482
0.168297
0.0549657
0.163672
0.0598043
0.158672
0.0648733
0.15327
0.0701776
0.147429
0.0757157
0.141102
0.0814782
0.134221
0.0874446
0.126697
0.0935785
0.118406
0.0998207
0.109185
0.106077
0.0988204
0.112203
0.0870535
0.117976
0.0735908
0.123062
0.0581493
0.126965
0.0405525
0.128937
0.0209017
0.128077
0.121359
0.199693
0.00451125
0.199095
0.00874861
0.198213
0.012794
0.197053
0.0167176
0.19562
0.0205783
0.193916
0.0244262
0.191943
0.0283038
0.1897
0.032248
0.187185
0.0362917
0.184395
0.0404643
0.181322
0.0447921
0.177962
0.0492989
0.174304
0.0540061
0.170337
0.0589329
0.166045
0.0640962
0.161408
0.0695105
0.156398
0.0751877
0.150977
0.0811365
0.145093
0.0873619
0.138674
0.0938635
0.13162
0.100633
0.12379
0.10765
0.114997
0.114871
0.104984
0.122216
0.0934201
0.12954
0.0798992
0.136583
0.063969
0.142895
0.0452357
0.147671
0.0236122
0.1497
0.144971
0.199711
0.00480056
0.199148
0.00931161
0.19832
0.0136216
0.197234
0.0178038
0.195894
0.0219185
0.194303
0.0260166
0.192465
0.0301423
0.190379
0.0343341
0.188044
0.0386264
0.185459
0.0430498
0.182619
0.047632
0.179519
0.0523985
0.176152
0.0573726
0.172509
0.0625763
0.168575
0.06803
0.164332
0.0737535
0.159754
0.079766
0.154804
0.0860868
0.14943
0.0927355
0.14356
0.0997332
0.137092
0.107102
0.129879
0.114863
0.121717
0.123033
0.112316
0.131617
0.101274
0.140581
0.0880468
0.14981
0.0719246
0.159018
0.0520876
0.167508
0.0278864
0.173901
0.172857
0.19973
0.00507049
0.199205
0.00983639
0.198435
0.0143916
0.197427
0.0188125
0.196185
0.0231605
0.194713
0.0274878
0.193016
0.0318396
0.191094
0.036256
0.188948
0.0407722
0.186578
0.0454201
0.183981
0.0502285
0.181156
0.0552243
0.178096
0.0604325
0.174795
0.0658774
0.171242
0.0715829
0.167422
0.0775735
0.163313
0.0838751
0.158883
0.0905167
0.154086
0.0975321
0.148857
0.104962
0.143101
0.112858
0.13668
0.121283
0.129394
0.13032
0.120943
0.140067
0.110885
0.15064
0.0985452
0.16215
0.0829034
0.17466
0.0624377
0.187973
0.0351262
0.201213
0.207984
0.199751
0.00531978
0.199266
0.0103206
0.198557
0.015101
0.19763
0.01974
0.19649
0.0243004
0.195142
0.0288351
0.193591
0.0333905
0.19184
0.0380075
0.18989
0.0427222
0.187743
0.0475673
0.185399
0.0525725
0.182858
0.0577656
0.180117
0.063173
0.177174
0.0688208
0.174021
0.0747355
0.170649
0.0809455
0.167042
0.0874821
0.163177
0.0943821
0.159018
0.10169
0.154516
0.109465
0.149595
0.117779
0.144143
0.126735
0.137993
0.13647
0.130887
0.147174
0.122408
0.159118
0.111863
0.172695
0.0980205
0.188502
0.0785403
0.207453
0.0486665
0.231087
0.25665
0.199772
0.00554748
0.19933
0.0107625
0.198684
0.0157475
0.19784
0.0205836
0.196806
0.0253348
0.195586
0.0300547
0.194186
0.0347906
0.19261
0.0395837
0.190861
0.044471
0.188943
0.0494853
0.186859
0.054657
0.18461
0.0600143
0.182198
0.0655845
0.179624
0.0713947
0.176887
0.0774731
0.173982
0.0838504
0.170903
0.0905614
0.167637
0.0976479
0.164165
0.105162
0.160459
0.113171
0.156475
0.121764
0.152146
0.131064
0.147372
0.141243
0.141996
0.152551
0.135753
0.165361
0.128173
0.180275
0.118316
0.19836
0.103928
0.221841
0.0776962
0.257319
0.334346
0.00375508
-0.00375508
0.00736442
-0.00360935
0.0103726
-0.00300819
0.0127785
-0.00240587
0.0146794
-0.00190093
0.0161783
-0.0014989
0.0173638
-0.00118549
0.0183089
-0.000945136
0.019073
-0.000764096
0.0197037
-0.000630667
0.0202388
-0.000535121
0.0207081
-0.00046928
0.0211339
-0.000425832
0.0215316
-0.000397697
0.0219093
-0.000377652
0.0222676
-0.000358358
0.0226006
-0.000332961
0.0228969
-0.000296342
0.0231436
-0.000246672
0.0233298
-0.000186177
0.0234497
-0.000119947
0.0235032
-5.34614e-05
0.0234923
1.09229e-05
0.0234113
8.09981e-05
0.0232541
0.000157156
0.0230186
0.000235477
0.022717
0.000301668
0.0223842
0.000332824
0.0220759
0.000308241
0.000189923
0.00342404
-0.00717911
0.00674391
-0.00692922
0.00956007
-0.00582434
0.0118773
-0.00472309
0.0137863
-0.00380997
0.0153773
-0.00308986
0.0167238
-0.00253198
0.0178835
-0.00210487
0.0189017
-0.00178228
0.0198138
-0.00154279
0.0206478
-0.00136904
0.0214252
-0.00124675
0.0221629
-0.00116354
0.0228731
-0.0011079
0.0235639
-0.00106842
0.0242391
-0.00103355
0.0248983
-0.000992172
0.0255373
-0.000935328
0.0261496
-0.000858956
0.0267292
-0.000765849
0.0272735
-0.000664212
0.0277814
-0.000561347
0.0282484
-0.000456134
0.028669
-0.000339532
0.0290319
-0.000205738
0.029323
-5.5696e-05
0.0295366
8.80752e-05
0.0297035
0.000165928
0.0298637
0.000148084
7.16965e-05
0.0028446
-0.0100237
0.00549981
-0.00958443
0.00770162
-0.00802616
0.00949514
-0.00651661
0.0109701
-0.00528494
0.0122044
-0.00432419
0.0132571
-0.00358467
0.014171
-0.00301875
0.0149785
-0.00258982
0.0157052
-0.00226944
0.0163711
-0.00203495
0.0169922
-0.00186784
0.0175809
-0.00175228
0.0181468
-0.00167379
0.0186967
-0.00161832
0.0192348
-0.00157161
0.019762
-0.00151939
0.020276
-0.00144934
0.0207718
-0.00135476
0.0212443
-0.00123831
0.0216917
-0.00111163
0.0221179
-0.000987531
0.0225303
-0.000868551
0.0229351
-0.000744328
0.0233313
-0.000601905
0.0237129
-0.000437331
0.0240644
-0.000263388
0.0243513
-0.000121007
0.0245615
-6.2151e-05
-6.15074e-05
0.00220963
-0.0122333
0.004087
-0.0114618
0.00555116
-0.00949032
0.0067067
-0.00767215
0.00763723
-0.00621547
0.0084057
-0.00509266
0.00905418
-0.00423315
0.00960838
-0.00357296
0.0100876
-0.00306903
0.0105072
-0.00268909
0.0108798
-0.00240755
0.0112156
-0.00220356
0.0115227
-0.00205939
0.0118081
-0.00195919
0.0120778
-0.001888
0.0123368
-0.00183061
0.0125884
-0.00177107
0.0128332
-0.00169409
0.0130675
-0.00158907
0.0132849
-0.0014557
0.0134803
-0.00130705
0.0136555
-0.00116275
0.013819
-0.00103206
0.0139821
-0.000907336
0.0141498
-0.000769657
0.0143139
-0.000601407
0.0144516
-0.000401128
0.0145235
-0.000192902
0.0144937
-3.23368e-05
-3.74229e-05
0.00147565
-0.013709
0.00249539
-0.0124815
0.00315803
-0.010153
0.0036115
-0.00812562
0.00392957
-0.00653354
0.00415401
-0.00531709
0.00431296
-0.00439211
0.00441648
-0.00367647
0.00447443
-0.00312698
0.00449521
-0.00270987
0.0044856
-0.00239793
0.00445123
-0.0021692
0.00439712
-0.00200528
0.00432809
-0.00189016
0.00424939
-0.0018093
0.00416698
-0.00174821
0.00408691
-0.001691
0.0040134
-0.00162058
0.00394585
-0.00152152
0.00387606
-0.00138592
0.0037879
-0.00121889
0.00366375
-0.0010386
0.00349659
-0.000864898
0.00329252
-0.000703272
0.00307058
-0.000547716
0.00285958
-0.000390407
0.00266043
-0.000201975
0.00246716
3.63112e-07
0.00231041
0.000124416
5.79072e-05
0.000632851
-0.0143418
0.000730533
-0.0125792
0.000550075
-0.0099725
0.000270066
-0.00784562
-8.11021e-05
-0.00618237
-0.000462941
-0.00493525
-0.000868263
-0.00398679
-0.00128602
-0.00325872
-0.0017088
-0.0027042
-0.00213115
-0.00228753
-0.00254941
-0.00197967
-0.00296076
-0.00175785
-0.0033627
-0.00160334
-0.00375277
-0.00150009
-0.00412789
-0.00143417
-0.00448372
-0.00139238
-0.00481489
-0.00135983
-0.00511626
-0.00131921
-0.00538516
-0.00125262
-0.00562339
-0.00114768
-0.00583812
-0.00100416
-0.00604182
-0.000834911
-0.00624816
-0.000658554
-0.00646377
-0.00048766
-0.0066887
-0.000322794
-0.00692555
-0.000153553
-0.00714968
2.2152e-05
-0.00732325
0.000173941
-0.00743599
0.000237147
0.000176915
-0.00033812
-0.0140037
-0.00118165
-0.0117357
-0.00219408
-0.00896006
-0.00325948
-0.00678022
-0.00431284
-0.005129
-0.00533008
-0.00391802
-0.00629219
-0.00302467
-0.00718947
-0.00236144
-0.00801762
-0.00187604
-0.00877615
-0.001529
-0.00946797
-0.00128784
-0.0100982
-0.00112759
-0.010673
-0.00102854
-0.0111984
-0.000974757
-0.0116789
-0.000953671
-0.0121169
-0.000954391
-0.012513
-0.00096366
-0.0128674
-0.000964868
-0.0131818
-0.000938143
-0.0134624
-0.000867073
-0.0137191
-0.000747515
-0.0139637
-0.000590291
-0.0142077
-0.000414534
-0.0144577
-0.000237652
-0.0147139
-6.66707e-05
-0.0149524
8.50319e-05
-0.0151511
0.00022082
-0.0153111
0.000333883
-0.0154433
0.000369368
0.000312953
-0.00137641
-0.0126273
-0.00322109
-0.00989102
-0.00508589
-0.00709526
-0.00690494
-0.00496117
-0.00860971
-0.00342424
-0.0101634
-0.0023643
-0.0115462
-0.00164185
-0.0127631
-0.00114459
-0.0138286
-0.000810531
-0.0147623
-0.000595299
-0.0155843
-0.000465895
-0.0163124
-0.000399428
-0.0169622
-0.000378801
-0.0175465
-0.0003904
-0.0180756
-0.000424604
-0.0185548
-0.000475175
-0.0189874
-0.000531094
-0.0193743
-0.000577959
-0.0197188
-0.000593609
-0.0200294
-0.000556509
-0.0203184
-0.000458441
-0.0205982
-0.000310522
-0.020878
-0.00013476
-0.0211527
3.70854e-05
-0.0214014
0.000181963
-0.0216189
0.000302616
-0.021813
0.000414833
-0.021981
0.000501939
-0.0221321
0.000520497
0.000476298
-0.00257519
-0.0100521
-0.00552719
-0.00693902
-0.00828159
-0.00434086
-0.0107847
-0.00245801
-0.0130039
-0.00120511
-0.0149557
-0.00041246
-0.0166457
4.80955e-05
-0.0180691
0.000278802
-0.0192474
0.000367805
-0.020232
0.000389348
-0.0210705
0.000372603
-0.021799
0.000328994
-0.0224439
0.000266102
-0.0230256
0.000191387
-0.0235598
0.000109533
-0.024054
1.90149e-05
-0.0245074
-7.76213e-05
-0.024913
-0.000172426
-0.0252728
-0.000233808
-0.0255975
-0.000231796
-0.0259032
-0.000152696
-0.0262029
-1.08969e-05
-0.026491
0.0001534
-0.0267558
0.000301821
-0.026998
0.000424205
-0.0272186
0.000523184
-0.027412
0.000608286
-0.0275805
0.000670428
-0.0277402
0.000680214
0.000652845
-0.00412965
-0.00592248
-0.0085992
-0.00246946
-0.0126038
-0.000336279
-0.0158814
0.000819613
-0.0184611
0.00137463
-0.0204641
0.0015905
-0.0220358
0.00161974
-0.023306
0.001549
-0.0243701
0.00143192
-0.0252772
0.00129651
-0.0260633
0.00115865
-0.0267539
0.00101956
-0.0273668
0.000879008
-0.027917
0.000741621
-0.0284175
0.000610017
-0.0288765
0.000478078
-0.0292954
0.000341247
-0.0296756
0.000207759
-0.0300171
0.000107719
-0.0303271
7.81804e-05
-0.0306165
0.000136657
-0.0308939
0.000266571
-0.0311676
0.000427047
-0.031439
0.00057322
-0.0316937
0.000678986
-0.0319193
0.000748743
-0.0321123
0.000801308
-0.0322813
0.000839412
-0.0324466
0.000845552
0.000833768
-0.00635109
0.000428615
-0.0118842
0.00306362
-0.0162075
0.003987
-0.0195235
0.00413563
-0.0221249
0.00397604
-0.0241901
0.00365569
-0.0258468
0.00327644
-0.02719
0.00289226
-0.0282916
0.00253348
-0.0292162
0.00222108
-0.0300142
0.00195667
-0.0307165
0.00172186
-0.0313397
0.00150223
-0.0318984
0.0013003
-0.0324082
0.00111985
-0.0328783
0.000948162
-0.0333026
0.000765598
-0.0336695
0.000574663
-0.0339776
0.000415805
-0.034245
0.000345582
-0.034501
0.000392658
-0.0347692
0.000534708
-0.0350543
0.000712144
-0.0353423
0.000861205
-0.0356104
0.000947142
-0.0358411
0.000979418
-0.0360328
0.000992999
-0.0362006
0.00100721
-0.0363678
0.00101281
0.00101584
-0.00781423
0.00824285
-0.0141371
0.00938646
-0.0189688
0.00881875
-0.0226583
0.00782515
-0.0254533
0.00677096
-0.0275852
0.0057876
-0.0292477
0.00493893
-0.0305719
0.00421651
-0.0316412
0.00360276
-0.0325296
0.00310944
-0.0333008
0.00272794
-0.0339884
0.0024094
-0.0346008
0.00211469
-0.0351482
0.00184771
-0.0356509
0.00162256
-0.0361223
0.00141951
-0.0365517
0.00119501
-0.0369152
0.000938138
-0.0372044
0.000705036
-0.0374446
0.000585795
-0.03768
0.000628011
-0.0379441
0.000798864
-0.0382418
0.00100983
-0.0385506
0.00116999
-0.0388359
0.00123241
-0.0390721
0.00121564
-0.0392597
0.00118059
-0.0394225
0.00116998
-0.0395878
0.00117811
0.00119587
-0.00936651
0.0176094
-0.0170357
0.0170556
-0.0223883
0.0141714
-0.0261431
0.0115799
-0.0288707
0.00949861
-0.0308719
0.00778873
-0.0323972
0.00646423
-0.033608
0.00542735
-0.0345727
0.00456746
-0.035365
0.00390174
-0.0360699
0.00343287
-0.0367236
0.00306307
-0.0373127
0.00270383
-0.0378338
0.00236874
-0.0383159
0.0021047
-0.0387842
0.00188782
-0.0392214
0.00163216
-0.039581
0.00129779
-0.0398399
0.000963897
-0.0400337
0.000779625
-0.0402327
0.000827011
-0.0404873
0.00105345
-0.040801
0.00132355
-0.0411382
0.00150717
-0.0414467
0.00154092
-0.0416887
0.00145763
-0.0418668
0.0013587
-0.0420184
0.00132153
-0.0421779
0.00133762
0.00137118
-0.012372
0.0299814
-0.0216231
0.0263067
-0.0269357
0.019484
-0.0301643
0.0148085
-0.0325099
0.0118443
-0.0341345
0.00941333
-0.0353362
0.00766596
-0.0363365
0.00642764
-0.0371332
0.00536414
-0.0377641
0.00453261
-0.0383599
0.00402867
-0.0389702
0.00367335
-0.0395311
0.0032648
-0.0400071
0.00284469
-0.0404468
0.00254446
-0.0409058
0.00234678
-0.0413593
0.00208563
-0.0417205
0.00165905
-0.0419359
0.00117922
-0.0420563
0.000900028
-0.0421976
0.00096829
-0.0424378
0.00129371
-0.0427755
0.00166121
-0.0431537
0.00188542
-0.043495
0.0018822
-0.0437428
0.00170546
-0.0439021
0.001518
-0.0440327
0.0014521
-0.0441829
0.00148782
0.00154022
-0.017611
0.0475923
-0.0287825
0.0374782
-0.033309
0.0240105
-0.0347626
0.0162621
-0.0363998
0.0134814
-0.0373379
0.0103514
-0.0379614
0.00828951
-0.0387119
0.00717813
-0.0393498
0.00600204
-0.0397394
0.00492226
-0.0401554
0.00444462
-0.0407246
0.00424258
-0.041271
0.00381123
-0.0416841
0.00325778
-0.0420501
0.00291043
-0.0424977
0.0027944
-0.0429938
0.00258173
-0.0433781
0.0020433
-0.0435359
0.0013371
-0.0435389
0.000902972
-0.0435896
0.00101903
-0.043811
0.00151506
-0.0441863
0.0020365
-0.0446245
0.00232369
-0.0450125
0.00227022
-0.045266
0.00195896
-0.0453911
0.00164305
-0.0454848
0.00154584
-0.0456235
0.00162646
0.00170456
0.207447
0.00576025
0.207034
0.0111751
0.206432
0.01635
0.205647
0.0213681
0.204688
0.026294
0.203561
0.0311822
0.202271
0.0360801
0.200825
0.0410295
0.199229
0.0460673
0.197488
0.0512267
0.195607
0.0565379
0.193592
0.0620292
0.191448
0.0677279
0.189182
0.0736616
0.186796
0.0798587
0.184296
0.0863505
0.181684
0.0931729
0.178963
0.100369
0.176133
0.107992
0.173191
0.116112
0.170134
0.124821
0.166957
0.134241
0.163655
0.144545
0.16023
0.155976
0.156705
0.168887
0.153173
0.183807
0.15
0.201532
0.148865
0.222976
0.160564
0.24562
0.258776
0.236134
0.21249
0.00595268
0.212118
0.011548
0.211574
0.0168936
0.210868
0.022074
0.210008
0.0271545
0.209
0.0321897
0.207853
0.0372272
0.206574
0.0423087
0.20517
0.047471
0.20365
0.0527468
0.202022
0.0581659
0.200295
0.0637561
0.198479
0.069544
0.196584
0.0755562
0.194623
0.0818203
0.192607
0.0883663
0.190551
0.0952282
0.188474
0.102446
0.186396
0.110071
0.184345
0.118163
0.182363
0.126803
0.18051
0.136094
0.178884
0.14617
0.177659
0.157201
0.177155
0.169391
0.178027
0.182935
0.181691
0.197868
0.190751
0.213916
0.206215
0.230156
0.245664
0.219327
0.217658
0.00612262
0.217329
0.011877
0.21685
0.0173723
0.21623
0.0226937
0.215478
0.0279069
0.214601
0.0330664
0.213609
0.0382195
0.21251
0.0434074
0.211315
0.0486664
0.210033
0.0540284
0.208677
0.0595222
0.207259
0.0651742
0.205793
0.0710098
0.204296
0.0770534
0.202786
0.0833302
0.201285
0.0898671
0.19982
0.0966937
0.198422
0.103844
0.197134
0.111358
0.196012
0.119285
0.195134
0.127681
0.194613
0.136615
0.194619
0.146164
0.195417
0.156404
0.197415
0.167392
0.201226
0.179125
0.207618
0.191476
0.217252
0.204282
0.229849
0.21756
0.228733
0.24678
0.222951
0.00626809
0.22267
0.0121583
0.222262
0.0177805
0.221735
0.0232201
0.2211
0.0285425
0.220364
0.033802
0.219538
0.0390452
0.218633
0.0443125
0.217661
0.0496392
0.216633
0.0550558
0.215566
0.0605897
0.214474
0.0662655
0.213378
0.0721059
0.212299
0.0781329
0.211261
0.0843677
0.210296
0.0908323
0.20944
0.09755
0.208738
0.104546
0.20825
0.111847
0.208051
0.119483
0.208245
0.127487
0.208972
0.135889
0.210424
0.144711
0.212866
0.153962
0.216643
0.163615
0.222176
0.173592
0.229912
0.183739
0.240424
0.19377
0.254629
0.203355
0.210243
0.273119
0.228374
0.00638722
0.228144
0.0123884
0.227812
0.0181131
0.227385
0.0236464
0.226874
0.0290534
0.226289
0.0343872
0.225641
0.0396938
0.224941
0.0450123
0.224203
0.0503766
0.223444
0.0558155
0.222679
0.0613544
0.221929
0.0670153
0.221217
0.0728181
0.220569
0.0787808
0.220016
0.0849202
0.219597
0.0912523
0.219354
0.0977922
0.219345
0.104555
0.219639
0.111553
0.220323
0.118799
0.221511
0.126299
0.223347
0.134052
0.226017
0.142042
0.229751
0.150228
0.234828
0.158537
0.241579
0.166842
0.25038
0.174938
0.261677
0.182472
0.275945
0.189088
0.193701
0.292487
0.233929
0.00647832
0.233754
0.0125639
0.233502
0.0183653
0.233181
0.0239668
0.232802
0.0294322
0.232376
0.0348139
0.231913
0.0401562
0.231429
0.045497
0.230937
0.0508682
0.230456
0.0562968
0.230005
0.0618054
0.229607
0.0674134
0.229288
0.073137
0.229078
0.0789901
0.229015
0.0849841
0.229138
0.0911284
0.229501
0.09743
0.230163
0.103893
0.231199
0.110517
0.2327
0.117298
0.234778
0.124221
0.23757
0.131261
0.241238
0.138373
0.245976
0.145491
0.252003
0.15251
0.259561
0.159283
0.268893
0.165606
0.280177
0.171188
0.293507
0.175757
0.1788
0.308408
0.23962
0.00653992
0.239502
0.012682
0.239334
0.0185332
0.239125
0.0241759
0.238884
0.029673
0.238623
0.0350751
0.238354
0.040425
0.238092
0.0457587
0.237854
0.0511061
0.237659
0.0564918
0.237529
0.0619357
0.237488
0.0674541
0.237566
0.0730593
0.237796
0.0787606
0.238215
0.0845642
0.238871
0.0904727
0.239816
0.0964852
0.241113
0.102596
0.242836
0.108794
0.245073
0.115061
0.247927
0.121367
0.251517
0.12767
0.25598
0.133911
0.261463
0.140007
0.268125
0.145849
0.276113
0.151295
0.285549
0.15617
0.296477
0.16026
0.308886
0.163348
0.165168
0.322519
0.245448
0.00657074
0.24539
0.0127403
0.24531
0.0186131
0.245216
0.0242696
0.245119
0.0297707
0.245028
0.0351653
0.244959
0.0404943
0.244926
0.0457917
0.244947
0.051085
0.245043
0.0563962
0.245236
0.0617425
0.245554
0.0671366
0.246026
0.0725872
0.246687
0.0780991
0.247578
0.0836732
0.248745
0.0893062
0.25024
0.0949901
0.252125
0.100711
0.254469
0.10645
0.257353
0.112177
0.260865
0.117855
0.265103
0.123431
0.270174
0.128841
0.276182
0.133999
0.283227
0.138803
0.291392
0.143131
0.300721
0.146841
0.311205
0.149776
0.322776
0.151777
0.152713
0.335231
0.251418
0.00656977
0.251422
0.0127369
0.251432
0.0186025
0.251457
0.0242444
0.251507
0.0297215
0.251591
0.0350806
0.251725
0.0403604
0.251924
0.0455926
0.252207
0.0508023
0.252594
0.0560089
0.25311
0.0612266
0.253782
0.0664648
0.25464
0.0717285
0.255721
0.0770185
0.257063
0.0823311
0.258712
0.0876576
0.260717
0.0929847
0.263136
0.0982927
0.26603
0.103555
0.269469
0.108738
0.273525
0.113799
0.278275
0.118682
0.283793
0.123322
0.29015
0.127642
0.297402
0.131552
0.305582
0.134951
0.314692
0.137731
0.324686
0.139781
0.335466
0.140997
0.141319
0.34686
0.257532
0.00653626
0.257599
0.0126702
0.257702
0.0184993
0.257848
0.0240981
0.258047
0.0295231
0.258309
0.0348188
0.258647
0.0400216
0.259079
0.0451607
0.259623
0.0502587
0.2603
0.0553323
0.261133
0.060393
0.262151
0.065447
0.263383
0.0704962
0.264864
0.0755375
0.266632
0.0805635
0.268728
0.0855616
0.271198
0.0905143
0.274093
0.095398
0.277465
0.100183
0.281371
0.104833
0.285867
0.109303
0.291007
0.113541
0.296843
0.117487
0.303413
0.121072
0.310742
0.124223
0.318832
0.126861
0.327655
0.128907
0.337148
0.130288
0.347206
0.130939
0.130839
0.357687
0.263794
0.00646973
0.263925
0.0125396
0.264122
0.0183024
0.26439
0.0238296
0.264739
0.0291745
0.265178
0.0343794
0.265722
0.0394781
0.266385
0.0444973
0.267187
0.0494572
0.268147
0.054372
0.26929
0.0592503
0.270641
0.0640957
0.27223
0.0689073
0.274088
0.073679
0.276251
0.0784006
0.278756
0.0830567
0.281643
0.0876271
0.284955
0.0920864
0.288734
0.0964038
0.293024
0.100543
0.297866
0.104461
0.303296
0.108111
0.309342
0.11144
0.316023
0.114392
0.323339
0.116907
0.331271
0.118928
0.339777
0.120401
0.348787
0.121279
0.358202
0.121524
0.121138
0.367902
0.270207
0.00637002
0.270402
0.0123446
0.270693
0.0180116
0.271084
0.0234386
0.271582
0.0286761
0.272198
0.0337635
0.272944
0.0387322
0.273835
0.0436064
0.274888
0.0484039
0.276124
0.0531364
0.277564
0.0578102
0.279233
0.0624267
0.281158
0.0669825
0.283367
0.0714696
0.285892
0.0758755
0.288765
0.0801835
0.29202
0.0843721
0.295691
0.0884157
0.299811
0.0922843
0.30441
0.0959433
0.309517
0.0993547
0.315151
0.102477
0.321325
0.105266
0.328039
0.107677
0.33528
0.109666
0.343017
0.111192
0.351198
0.112219
0.359757
0.11272
0.368602
0.112679
0.112105
0.377635
0.276774
0.00623722
0.277033
0.0120855
0.277417
0.0176273
0.277929
0.0229262
0.278576
0.0280295
0.279366
0.0329738
0.28031
0.037788
0.281422
0.0424939
0.282719
0.0471069
0.284219
0.0516366
0.285942
0.0560874
0.28791
0.0604586
0.290147
0.0647453
0.292679
0.0689379
0.295531
0.073023
0.298731
0.0769833
0.302306
0.0807975
0.306281
0.0844409
0.31068
0.0878855
0.315523
0.0911004
0.320825
0.0940524
0.326595
0.096707
0.332832
0.099029
0.339525
0.100984
0.34665
0.102541
0.354171
0.103671
0.362036
0.104354
0.370179
0.104577
0.378523
0.104335
0.103645
0.386983
0.283498
0.00607171
0.283821
0.011763
0.284297
0.0171509
0.284929
0.0222945
0.28572
0.0272378
0.28668
0.0320147
0.287816
0.0366515
0.289142
0.0411677
0.290672
0.0455766
0.292423
0.049886
0.294412
0.0540984
0.296659
0.058212
0.299183
0.0622206
0.302007
0.0661139
0.305152
0.0698784
0.308638
0.0734969
0.312487
0.0769493
0.316715
0.0802128
0.321338
0.0832624
0.326367
0.0860714
0.331807
0.088612
0.337658
0.0908565
0.343909
0.0927779
0.350541
0.0943514
0.357527
0.0955552
0.364826
0.0963726
0.372387
0.0967926
0.380153
0.0968115
0.388055
0.0964327
0.0956766
0.396023
0.290384
0.00587413
0.290768
0.0113786
0.291335
0.0165844
0.292083
0.0215463
0.293016
0.0263051
0.294139
0.0308918
0.29546
0.0353301
0.29699
0.0396374
0.298742
0.0438251
0.300729
0.0478994
0.302965
0.0518616
0.305469
0.0557089
0.308255
0.0594344
0.311341
0.063028
0.314743
0.0664762
0.318477
0.0697631
0.322556
0.0728702
0.326991
0.0757774
0.331791
0.078463
0.336957
0.0809048
0.342489
0.0830804
0.348377
0.0849685
0.354606
0.0865491
0.361152
0.0878053
0.367984
0.0887234
0.375062
0.0892946
0.382339
0.0895152
0.389763
0.0893878
0.397275
0.0889205
0.0881346
0.404817
0.297435
0.00564535
0.297879
0.0109338
0.298533
0.0159305
0.299394
0.0206856
0.300462
0.0252366
0.301743
0.0296117
0.30324
0.0338323
0.304964
0.0379136
0.306924
0.0418656
0.30913
0.0456929
0.311596
0.0493961
0.314333
0.0529717
0.317354
0.0564128
0.320673
0.0597095
0.3243
0.0628495
0.328245
0.0658181
0.332516
0.0685991
0.337118
0.0711753
0.342052
0.0735285
0.347316
0.075641
0.352901
0.0774953
0.358794
0.0790757
0.364975
0.0803684
0.371417
0.0813626
0.37809
0.0820509
0.384954
0.0824302
0.391968
0.0825019
0.399083
0.0822724
0.406251
0.0817525
0.080963
0.413423
0.304654
0.00538643
0.305157
0.0104308
0.305895
0.0151924
0.306864
0.0197169
0.308062
0.0240383
0.309492
0.0281822
0.311156
0.0321676
0.313062
0.0360081
0.315215
0.0397121
0.317625
0.0432832
0.3203
0.0467213
0.323249
0.0500228
0.326481
0.053181
0.330003
0.0561868
0.333824
0.059029
0.337947
0.0616948
0.342376
0.0641705
0.347109
0.0664416
0.352144
0.0684937
0.357472
0.0703127
0.363082
0.0718861
0.368955
0.0732026
0.37507
0.0742534
0.3814
0.0750327
0.387913
0.0755375
0.394574
0.075769
0.401344
0.0757317
0.408183
0.0754343
0.415046
0.0748889
0.0741151
0.421894
0.312046
0.00509858
0.312605
0.00987207
0.313424
0.0143738
0.314495
0.018645
0.315817
0.0227166
0.317388
0.0266114
0.319209
0.0303463
0.321284
0.0339331
0.323617
0.0373791
0.326213
0.040687
0.329078
0.0438565
0.332217
0.0468839
0.335635
0.0497631
0.339336
0.0524859
0.343322
0.0550427
0.347594
0.0574227
0.35215
0.0596143
0.356986
0.061606
0.362093
0.0633867
0.36746
0.0649459
0.373071
0.0662748
0.378908
0.0673661
0.384946
0.0682149
0.39116
0.068819
0.397518
0.0691789
0.403989
0.0692982
0.410537
0.0691837
0.417127
0.068845
0.423721
0.0682946
0.0675506
0.430285
0.319615
0.00478313
0.320227
0.0092601
0.321122
0.0134785
0.322292
0.0174755
0.32373
0.0212785
0.325433
0.0249079
0.327401
0.0283786
0.329633
0.0317009
0.332131
0.0348809
0.334898
0.0379208
0.337934
0.0408201
0.341242
0.0435753
0.344824
0.0461812
0.34868
0.0486307
0.352807
0.0509155
0.357203
0.0530269
0.361861
0.0549556
0.366775
0.0566927
0.371931
0.05823
0.377317
0.05956
0.382915
0.0606771
0.388704
0.0615771
0.394661
0.0622582
0.400759
0.0627207
0.40697
0.0629673
0.413265
0.0630035
0.419612
0.062837
0.425979
0.0624778
0.432336
0.0619382
0.0612343
0.438652
0.327365
0.00444143
0.328027
0.0085976
0.328995
0.0125107
0.330257
0.0162138
0.331804
0.019731
0.333632
0.0230805
0.335735
0.0262751
0.338113
0.0293236
0.340762
0.0322314
0.343683
0.0350002
0.346874
0.0376293
0.350333
0.0401159
0.354059
0.0424554
0.358048
0.0446418
0.362295
0.0466686
0.366793
0.0485287
0.371534
0.0502149
0.376506
0.0517208
0.381695