/*--------------------------------*- C++ -*----------------------------------*\
  =========                 |
  \\      /  F ield         | OpenFOAM: The Open Source CFD Toolbox
   \\    /   O peration     | Website:  https://openfoam.org
    \\  /    A nd           | Version:  dev
     \\/     M anipulation  |
\*---------------------------------------------------------------------------*/
FoamFile
{
    version     2.0;
    format      ascii;
    class       surfaceScalarField;
    location    "8.1";
    object      phi;
}
// * * * * * * * * * * * * * * * * * * * * * * * * * * * * * * * * * * * * * //

dimensions      [0 3 -1 0 0 0 0];

internalField   nonuniform List<scalar> 
5457
(
0.198418
0.00158237
0.19648
0.00193736
0.194192
0.00228807
0.191509
0.00268356
0.188427
0.00308118
0.184951
0.00347675
0.181072
0.00387856
0.176778
0.004294
0.17205
0.00472822
0.166865
0.00518523
0.161196
0.00566853
0.155015
0.00618107
0.14829
0.00672502
0.140989
0.0073014
0.133079
0.00790958
0.124533
0.00854653
0.115327
0.00920598
0.105449
0.00987727
0.0949052
0.0105442
0.0837216
0.0111836
0.0719569
0.0117647
0.0597085
0.0122483
0.0471198
0.0125887
0.0343797
0.0127402
0.0216847
0.012695
0.00903462
0.0126501
-0.00291808
0.0119527
-0.00847288
0.0055548
-0.00804328
-0.000429599
-0.00804328
0.199928
0.00165421
0.199176
0.00268979
0.197965
0.00349899
0.196332
0.00431672
0.194272
0.00514121
0.191782
0.0059668
0.188855
0.00680553
0.185478
0.00767086
0.181633
0.00857314
0.177297
0.00952065
0.172445
0.0105207
0.167047
0.0115795
0.16107
0.0127018
0.154481
0.0138904
0.147246
0.0151447
0.139333
0.0164597
0.130715
0.017824
0.121374
0.0192175
0.111309
0.0206091
0.100539
0.0219536
0.0891149
0.0231892
0.0771272
0.024236
0.0647212
0.0249947
0.0521138
0.0253476
0.0396536
0.0251552
0.0281038
0.0241999
0.0185933
0.0214632
0.00879545
0.0153526
0.00118263
0.00718322
-0.00686065
0.199781
0.00187365
0.199087
0.00338362
0.197946
0.00463991
0.196409
0.00585333
0.194483
0.00706733
0.192164
0.00828584
0.189447
0.00952295
0.186321
0.0107963
0.182773
0.012121
0.178784
0.0135095
0.174332
0.0149728
0.169391
0.0165205
0.163932
0.0181605
0.157925
0.0198977
0.151337
0.0217331
0.144135
0.0236616
0.136289
0.0256696
0.127775
0.0277316
0.118578
0.0298061
0.1087
0.0318316
0.0981684
0.0337212
0.087046
0.0353584
0.0754492
0.0365915
0.0635721
0.0372247
0.0517304
0.0369969
0.0403953
0.0355349
0.0297373
0.0321213
0.0191648
0.0259251
0.00959688
0.0167511
0.00273623
0.199703
0.00217057
0.199008
0.00407892
0.197887
0.00576042
0.196376
0.00736422
0.194488
0.00895543
0.192222
0.0105518
0.189575
0.0121706
0.186539
0.0138323
0.183104
0.0155555
0.179258
0.017356
0.174983
0.0192479
0.17026
0.0212432
0.165068
0.0233522
0.159384
0.0255819
0.153182
0.0279349
0.146437
0.0304069
0.139122
0.0329841
0.131215
0.035639
0.122696
0.0383254
0.113554
0.0409726
0.103797
0.0434782
0.0934547
0.0457011
0.0825934
0.0474528
0.0713306
0.0484875
0.0598388
0.0484888
0.0483149
0.0470587
0.0368093
0.0436269
0.0251867
0.0375477
0.013335
0.0286029
0.0160712
0.199667
0.00250316
0.198964
0.00478217
0.197863
0.00686173
0.196381
0.00884589
0.194532
0.0108042
0.192318
0.0127665
0.189734
0.0147544
0.186775
0.0167909
0.183434
0.0188972
0.179698
0.0210918
0.175555
0.0233908
0.17099
0.0258084
0.165986
0.0283561
0.160526
0.0310423
0.15459
0.0338705
0.148159
0.0368376
0.141213
0.0399301
0.133732
0.0431207
0.125695
0.0463625
0.117085
0.0495822
0.107892
0.0526719
0.0981123
0.0554803
0.0877623
0.0578028
0.0768762
0.0593736
0.0655063
0.0598587
0.0537058
0.0588593
0.0414521
0.0558806
0.0285863
0.0504134
0.0148516
0.0423376
0.0309228
0.199653
0.00285035
0.198949
0.00548622
0.197871
0.00793966
0.196427
0.01029
0.194627
0.0126042
0.192473
0.0149199
0.189964
0.0172641
0.187093
0.0196617
0.183853
0.0221365
0.180236
0.0247091
0.17623
0.0273974
0.171821
0.0302171
0.166996
0.0331809
0.16174
0.0362983
0.156037
0.0395735
0.14987
0.0430043
0.143222
0.0465785
0.136072
0.0502703
0.1284
0.054035
0.12018
0.0578021
0.111385
0.0614665
0.101986
0.0648793
0.0919519
0.0678372
0.0812511
0.0700745
0.0698513
0.0712585
0.0577141
0.0709964
0.0447583
0.0688364
0.0308474
0.0643244
0.0158722
0.0573128
0.046795
0.19965
0.00320029
0.198954
0.0061822
0.197904
0.00898927
0.196505
0.0116898
0.194763
0.0143464
0.192681
0.0170019
0.190257
0.0196877
0.187487
0.0224313
0.184365
0.0252586
0.180882
0.028192
0.177028
0.0312513
0.172792
0.0344537
0.16816
0.0378131
0.163118
0.04134
0.157652
0.0450399
0.151744
0.048912
0.145376
0.0529462
0.138526
0.05712
0.131168
0.0613935
0.123267
0.0657032
0.11478
0.0699536
0.105652
0.0740075
0.0958134
0.0776753
0.0851827
0.0807052
0.0736647
0.0827765
0.0611581
0.083503
0.0475523
0.0824422
0.0327564
0.0791202
0.0167817
0.0732875
0.0635767
0.199655
0.00354564
0.198975
0.0068623
0.197959
0.010005
0.19661
0.0130384
0.194934
0.0160224
0.192934
0.0190025
0.190607
0.0220137
0.187952
0.0250866
0.184962
0.0282485
0.18163
0.0315241
0.177947
0.0349348
0.173901
0.0384991
0.169482
0.0422327
0.164674
0.0461475
0.159463
0.0502509
0.153831
0.0545445
0.147755
0.0590217
0.14121
0.063665
0.134162
0.0684421
0.126565
0.0733004
0.118359
0.0781591
0.109466
0.0829007
0.0997826
0.0873585
0.0891831
0.0913047
0.0775208
0.0944388
0.0646431
0.0963806
0.0504137
0.0966717
0.0347653
0.0947686
0.0177883
0.0902645
0.081365
0.199664
0.00388146
0.199006
0.0075201
0.19803
0.0109812
0.196739
0.0143299
0.195137
0.0176244
0.193227
0.0209123
0.191009
0.0242315
0.188481
0.0276151
0.185637
0.0310925
0.182471
0.0346898
0.178975
0.0384302
0.175141
0.042334
0.170955
0.0464186
0.166404
0.050698
0.161473
0.0551821
0.156141
0.059876
0.150385
0.0647782
0.144172
0.0698782
0.13746
0.075154
0.130193
0.0805673
0.122295
0.0860574
0.113663
0.0915324
0.104164
0.0968575
0.0936289
0.10184
0.0818593
0.106208
0.068644
0.109596
0.0537971
0.111519
0.0372328
0.111333
0.0190813
0.108416
0.100446
0.199677
0.00420423
0.199047
0.00815032
0.198116
0.0119125
0.196887
0.0155581
0.195367
0.0191453
0.193556
0.0227228
0.191456
0.0263313
0.189065
0.0300059
0.18638
0.0337777
0.183395
0.0376746
0.180104
0.0417214
0.176498
0.0459402
0.172566
0.0503503
0.168296
0.0549681
0.163671
0.0598071
0.158671
0.0648765
0.153268
0.070181
0.147427
0.0757194
0.141099
0.0814821
0.134217
0.0874486
0.126692
0.0935824
0.118401
0.0998241
0.109178
0.10608
0.0988134
0.112205
0.0870459
0.117976
0.073583
0.123059
0.058142
0.12696
0.0405467
0.128928
0.0208984
0.128064
0.121345
0.199693
0.00451129
0.199095
0.00874869
0.198213
0.0127941
0.197053
0.0167178
0.19562
0.0205786
0.193916
0.0244266
0.191943
0.0283043
0.1897
0.0322487
0.187185
0.0362927
0.184395
0.0404655
0.181322
0.0447936
0.177962
0.0493007
0.174304
0.0540083
0.170336
0.0589355
0.166044
0.0640992
0.161407
0.069514
0.156396
0.0751916
0.150975
0.0811409
0.14509
0.0873666
0.138671
0.0938684
0.131615
0.100638
0.123785
0.107654
0.11499
0.114875
0.104975
0.122219
0.0934108
0.129541
0.0798892
0.13658
0.0639592
0.14289
0.0452274
0.14766
0.0236072
0.149685
0.144952
0.199711
0.0048006
0.199148
0.00931169
0.19832
0.0136217
0.197234
0.017804
0.195894
0.0219187
0.194303
0.0260169
0.192465
0.0301428
0.190379
0.0343348
0.188044
0.0386273
0.185459
0.043051
0.182619
0.0476335
0.179519
0.0524004
0.176152
0.057375
0.172509
0.0625791
0.168575
0.0680333
0.164331
0.0737574
0.159753
0.0797704
0.154802
0.0860917
0.149427
0.0927409
0.143557
0.099739
0.137087
0.107108
0.129873
0.114869
0.121709
0.123039
0.112306
0.131622
0.101263
0.140584
0.0880339
0.14981
0.071911
0.159012
0.0520754
0.167496
0.0278786
0.173881
0.17283
0.19973
0.00507052
0.199205
0.00983644
0.198435
0.0143917
0.197427
0.0188126
0.196185
0.0231607
0.194714
0.0274881
0.193016
0.0318401
0.191094
0.0362567
0.188949
0.0407731
0.186578
0.0454213
0.183982
0.0502301
0.181156
0.0552262
0.178096
0.0604349
0.174795
0.0658803
0.171242
0.0715864
0.167421
0.0775776
0.163312
0.0838799
0.158881
0.0905222
0.154084
0.0975383
0.148854
0.104969
0.143097
0.112865
0.136674
0.121291
0.129385
0.130328
0.120932
0.140074
0.110871
0.150645
0.0985284
0.162152
0.0828845
0.174656
0.0624191
0.187961
0.0351128
0.201188
0.207943
0.199751
0.0053198
0.199266
0.0103207
0.198557
0.0151011
0.19763
0.0197401
0.19649
0.0243005
0.195143
0.0288353
0.193592
0.0333909
0.19184
0.0380081
0.18989
0.0427231
0.187743
0.0475685
0.185399
0.052574
0.182858
0.0577675
0.180118
0.0631754
0.177174
0.0688238
0.174021
0.0747392
0.170649
0.0809499
0.167042
0.0874873
0.163176
0.0943881
0.159017
0.101697
0.154513
0.109472
0.14959
0.117788
0.144136
0.126745
0.137984
0.13648
0.130875
0.147184
0.122392
0.159128
0.111842
0.172702
0.097994
0.188504
0.0785107
0.207444
0.0486412
0.231057
0.256585
0.199772
0.00554748
0.19933
0.0107625
0.198684
0.0157475
0.19784
0.0205836
0.196806
0.0253349
0.195587
0.0300549
0.194187
0.0347909
0.19261
0.0395843
0.190862
0.0444718
0.188944
0.0494864
0.186859
0.0546585
0.184611
0.0600162
0.182199
0.0655869
0.179625
0.0713978
0.176887
0.0774769
0.173982
0.083855
0.170903
0.090567
0.167636
0.0976545
0.164164
0.10517
0.160457
0.11318
0.156471
0.121774
0.15214
0.131076
0.147364
0.141256
0.141983
0.152565
0.135735
0.165376
0.128147
0.18029
0.11828
0.198371
0.10388
0.221844
0.0776418
0.257296
0.334226
0.00382733
-0.00382733
0.00748098
-0.00365364
0.0104921
-0.00301116
0.0128331
-0.00234095
0.0145731
-0.00174002
0.0157908
-0.00121765
0.0165575
-0.00076672
0.0169391
-0.000381616
0.0170057
-6.66176e-05
0.0168059
0.000199794
0.0164132
0.000392702
0.0158825
0.00053075
0.0152621
0.000620391
0.0145972
0.000664851
0.0139288
0.000668396
0.013292
0.000636803
0.0127138
0.0005782
0.0122118
0.000501986
0.0117935
0.00041835
0.0114563
0.000337174
0.0111901
0.000266232
0.0109802
0.000209889
0.0108108
0.0001694
0.0106676
0.000143232
0.0105395
0.000128056
0.0104189
0.000120661
0.0103001
0.000118741
0.0101796
0.000120546
0.0100566
0.000122981
0.000102643
0.00354518
-0.00737252
0.0069556
-0.00706405
0.00983235
-0.00588792
0.0121598
-0.00466839
0.0140064
-0.00358664
0.0154438
-0.00265504
0.0165347
-0.00185757
0.0173322
-0.00117914
0.0178721
-0.000606564
0.0181974
-0.000125454
0.0183205
0.000269565
0.018284
0.000567306
0.0181376
0.000766716
0.0179257
0.000876745
0.0176892
0.000904906
0.0174634
0.000862646
0.0172748
0.000766743
0.0171408
0.000635988
0.0170684
0.000490789
0.0170547
0.000350888
0.0170893
0.000231567
0.017158
0.000141263
0.0172448
8.26184e-05
0.0173362
5.18004e-05
0.0174234
4.08175e-05
0.0175014
4.27212e-05
0.0175674
5.26631e-05
0.0176206
6.73718e-05
0.0176598
8.38048e-05
9.17867e-05
0.00300564
-0.0103782
0.00580673
-0.00986515
0.00813588
-0.00821707
0.01002
-0.00655251
0.0115292
-0.00509583
0.0127221
-0.00384796
0.0136478
-0.00278325
0.0143487
-0.00188006
0.0148675
-0.00112539
0.015252
-0.000509899
0.0155349
-1.33561e-05
0.0157
0.000402233
0.0157816
0.000685037
0.0158084
0.00085001
0.0158091
0.000904184
0.015808
0.000863711
0.0158234
0.000751397
0.0158664
0.000593024
0.0159403
0.000416845
0.0160404
0.00025081
0.016155
0.000116934
0.0162669
2.94023e-05
0.0163635
-1.39955e-05
0.0164425
-2.71966e-05
0.0165099
-2.66373e-05
0.0165732
-2.05848e-05
0.0166383
-1.23784e-05
0.0167067
-1.0365e-06
0.0167686
2.18554e-05
5.8914e-05
0.00241071
-0.0127889
0.00449163
-0.0119461
0.00615114
-0.00987658
0.00748238
-0.00788375
0.00855448
-0.00616792
0.0094103
-0.00470379
0.0100831
-0.00345608
0.0105991
-0.002396
0.0109851
-0.00151136
0.0112756
-0.000800458
0.0115067
-0.000244484
0.0116983
0.000210653
0.0118282
0.00055516
0.0119137
0.000764481
0.0119763
0.000841617
0.0120292
0.000810786
0.0120812
0.000699468
0.0121367
0.000537517
0.012195
0.000358487
0.0122499
0.000195921
0.0122933
7.3529e-05
0.0123196
3.16611e-06
0.0123191
-1.34955e-05
0.0122955
-3.60862e-06
0.0122492
1.96493e-05
0.0121869
4.16963e-05
0.0121175
5.70501e-05
0.0120453
7.11681e-05
0.0119723
9.48659e-05
0.000126277
0.00171986
-0.0145087
0.00299718
-0.0132234
0.00391328
-0.0107927
0.00462567
-0.00859614
0.00519439
-0.00673664
0.00564915
-0.00515856
0.00601175
-0.00381868
0.00629415
-0.0026784
0.00650851
-0.00172573
0.00667655
-0.0009685
0.00683152
-0.00039945
0.00698933
5.28409e-05
0.0070788
0.000465696
0.00712889
0.000714388
0.00714604
0.000824464
0.00713357
0.000823258
0.00709408
0.000738958
0.00702992
0.00060168
0.00694294
0.000445466
0.006832
0.000306859
0.00670052
0.000205011
0.00654505
0.000158634
0.00635926
0.000172292
0.00612226
0.000233397
0.00583673
0.000305175
0.0055183
0.000360128
0.00518585
0.0003895
0.00485605
0.000400973
0.00454931
0.000401606
0.000354755
0.000932086
-0.0154408
0.00131805
-0.0136093
0.0014394
-0.010914
0.0014815
-0.00863824
0.00147641
-0.00673154
0.00145331
-0.00513546
0.00142662
-0.00379199
0.00140592
-0.0026577
0.00139882
-0.00171862
0.00142481
-0.000994493
0.00146329
-0.000437927
0.00142943
8.67052e-05
0.00135889
0.000536236
0.00122625
0.000847018
0.00103739
0.00101333
0.000781101
0.00107955
0.000449442
0.00107062
4.62261e-05
0.0010049
-0.000408459
0.000900151
-0.000886276
0.000784676
-0.00136642
0.000685152
-0.00182519
0.00061741
-0.0022393
0.000586401
-0.00259595
0.000590044
-0.00290332
0.00061255
-0.00318017
0.00063697
-0.00344256
0.000651894
-0.00369521
0.000653618
-0.0039218
0.0006282
0.000550443
-3.94417e-05
-0.0154014
-0.000550497
-0.0130983
-0.00124662
-0.0102179
-0.00194544
-0.00793942
-0.00261116
-0.00606581
-0.00321275
-0.00453388
-0.00373351
-0.00327123
-0.00417331
-0.00221789
-0.00456649
-0.00132545
-0.00499007
-0.000570907
-0.0054741
4.61013e-05
-0.00588912
0.000501726
-0.00618201
0.000829127
-0.00644487
0.00110988
-0.00673757
0.00130603
-0.00707184
0.00141382
-0.00744484
0.00144362
-0.00784881
0.00140886
-0.0082763
0.00132765
-0.00871712
0.00122549
-0.00915785
0.00112588
-0.00958275
0.00104231
-0.00997426
0.000977913
-0.0103144
0.00093022
-0.0105961
0.000894183
-0.0108255
0.000866367
-0.0110174
0.000843817
-0.0111834
0.000819634
-0.0113297
0.000774515
0.000711181
-0.00101271
-0.0143887
-0.00255177
-0.0115592
-0.00413157
-0.00863811
-0.0056588
-0.00641219
-0.00706192
-0.0046627
-0.00832223
-0.00327357
-0.00943186
-0.0021616
-0.0103934
-0.00125635
-0.0112247
-0.000494113
-0.0119187
0.000123071
-0.012438
0.000565341
-0.0128343
0.000898044
-0.0131924
0.00118724
-0.0135142
0.00143169
-0.013824
0.00161581
-0.0141397
0.00172959
-0.0144678
0.00177167
-0.0148087
0.00174976
-0.0151627
0.00168164
-0.0155287
0.00159155
-0.0159024
0.00149951
-0.0162731
0.00141307
-0.0166238
0.00132856
-0.0169337
0.00124016
-0.0171881
0.00114862
-0.0173852
0.00106347
-0.0175361
0.000994637
-0.0176566
0.000940194
-0.0177675
0.000885384
0.000841139
-0.00214346
-0.0122452
-0.00471816
-0.00898452
-0.00726614
-0.00609012
-0.00961538
-0.00406295
-0.0116829
-0.00259518
-0.0134584
-0.00149802
-0.0149552
-0.000664863
-0.016197
-1.45695e-05
-0.0171553
0.000464228
-0.0178542
0.000821975
-0.0184021
0.00111326
-0.0188684
0.0013643
-0.019265
0.00158381
-0.0196076
0.00177432
-0.0199187
0.00192693
-0.020217
0.00202792
-0.0205124
0.00206702
-0.0208088
0.00204611
-0.0211097
0.00198254
-0.0214195
0.00190138
-0.0217402
0.00182025
-0.0220664
0.00173927
-0.0223824
0.00164447
-0.0226653
0.00152311
-0.0228959
0.00137926
-0.0230686
0.00123614
-0.0231934
0.00111939
-0.0232892
0.00103599
-0.0233803
0.000976505
0.000948534
-0.00348723
-0.00875797
-0.00722107
-0.00525068
-0.0107751
-0.00253612
-0.0138961
-0.000941884
-0.0165234
3.20727e-05
-0.0186096
0.00058822
-0.0202018
0.000927292
-0.0213853
0.0011689
-0.0222866
0.00136561
-0.0230126
0.00154796
-0.0236119
0.0017125
-0.0241083
0.00186069
-0.02452
0.00199551
-0.0248672
0.0021216
-0.0251745
0.00223418
-0.0254616
0.00231501
-0.0257379
0.00234338
-0.026006
0.00231422
-0.0262696
0.0022461
-0.0265372
0.00216902
-0.0268178
0.0021008
-0.0271114
0.00203286
-0.0274036
0.00193668
-0.0276684
0.00178789
-0.0278809
0.00159174
-0.0280323
0.00138754
-0.0281345
0.0012216
-0.0282108
0.00111236
-0.0282856
0.00105131
0.00103573
-0.00537764
-0.00338033
-0.0109065
0.000278151
-0.0153106
0.00186805
-0.0186994
0.0024469
-0.0212347
0.0025673
-0.0231614
0.00251494
-0.0246719
0.00243783
-0.0258665
0.00236352
-0.026815
0.00231405
-0.0275721
0.00230504
-0.0281875
0.00232795
-0.0286902
0.00236339
-0.0290988
0.0024041
-0.0294365
0.00245927
-0.0297326
0.00253028
-0.0300097
0.0025922
-0.0302746
0.00260828
-0.0305237
0.00256329
-0.0307578
0.00248017
-0.0309897
0.00240099
-0.0312373
0.00234837
-0.0315077
0.00230324
-0.0317871
0.00221612
-0.0320435
0.00204426
-0.0322433
0.00179155
-0.0323738
0.00151806
-0.0324517
0.0012995
-0.032508
0.00116859
-0.0325665
0.00110984
0.00110383
-0.00791706
0.00453674
-0.0143747
0.00673577
-0.0190651
0.0065585
-0.0225764
0.00595817
-0.0252265
0.00521743
-0.0272344
0.00452281
-0.0287708
0.00397419
-0.0299627
0.00355546
-0.0308907
0.00324202
-0.0316237
0.00303804
-0.0322196
0.00292384
-0.0327063
0.00285012
-0.0330945
0.00279224
-0.0334064
0.00277127
-0.0336806
0.00280439
-0.033946
0.00285766
-0.0342046
0.00286682
-0.0344405
0.00279923
-0.0346475
0.00268715
-0.0348438
0.00259729
-0.0350603
0.00256487
-0.0353142
0.00255712
-0.0355916
0.00249354
-0.0358503
0.00230302
-0.0360431
0.00198429
-0.0361508
0.00162574
-0.0361984
0.00134713
-0.0362304
0.00120064
-0.0362722
0.00115158
0.00115406
-0.00989825
0.014435
-0.0176203
0.0144578
-0.0229852
0.0119234
-0.0266823
0.00965523
-0.029317
0.00785214
-0.0312119
0.00641771
-0.0326293
0.00539161
-0.0337267
0.00465284
-0.0345652
0.00408055
-0.0352165
0.00368934
-0.0357565
0.00346383
-0.0362096
0.00330327
-0.0365625
0.00314512
-0.0368293
0.00303805
-0.0370655
0.00304061
-0.0373157
0.0031078
-0.0375741
0.00312525
-0.0378029
0.003028
-0.0379811
0.00286534
-0.0381347
0.00275092
-0.0383162
0.00274636
-0.038558
0.00279895
-0.0388451
0.00278067
-0.0391194
0.0025773
-0.0393117
0.00217659
-0.039392
0.001706
-0.0393983
0.00135341
-0.039399
0.0012014
-0.0394246
0.0011772
0.00118913
-0.0131365
0.0275715
-0.0226588
0.0239801
-0.0280446
0.0173092
-0.0313028
0.0129134
-0.0336169
0.0101663
-0.0351488
0.00794957
-0.0362553
0.00649817
-0.0371642
0.0055617
-0.0378519
0.00476826
-0.0383607
0.0041981
-0.038809
0.00391216
-0.0392227
0.00371703
-0.0395317
0.00345406
-0.0397262
0.0032326
-0.0398983
0.00321273
-0.0401278
0.00333724
-0.0403979
0.00339533
-0.0406297
0.00325986
-0.0407742
0.00300978
-0.040869
0.00284577
-0.041004
0.00288138
-0.0412364
0.00303132
-0.0415474
0.00309164
-0.0418544
0.00288432
-0.0420551
0.00237733
-0.0421001
0.00175096
-0.0420463
0.00129965
-0.0420042
0.00115928
-0.0420175
0.00119054
0.00121671
-0.018703
0.0462745
-0.0302516
0.0355287
-0.034952
0.0220096
-0.0365301
0.0144915
-0.0381926
0.0118288
-0.0389877
0.00874475
-0.0395068
0.00701722
-0.0402155
0.00627046
-0.0407679
0.00532061
-0.0410549
0.00448506
-0.0413518
0.00420908
-0.0417299
0.00409519
-0.0419969
0.00372101
-0.0420828
0.00331854
-0.0421478
0.00327766
-0.0423526
0.00354211
-0.0426602
0.00370289
-0.0429161
0.00351576
-0.0430173
0.00311095
-0.0430213
0.00284976
-0.0430856
0.0029457
-0.0433083
0.00325409
-0.0436608
0.00344406
-0.0440234
0.00324698
-0.044245
0.00259887
-0.0442422
0.0017482
-0.0440972
0.00115467
-0.0439926
0.00105464
-0.0440035
0.00120146
0.0012567
0.207447
0.00576024
0.207034
0.0111751
0.206432
0.01635
0.205647
0.021368
0.204688
0.0262941
0.203561
0.0311823
0.202271
0.0360803
0.200826
0.0410299
0.19923
0.046068
0.197488
0.0512276
0.195608
0.0565392
0.193593
0.062031
0.19145
0.0677303
0.189183
0.0736646
0.186797
0.0798625
0.184297
0.0863552
0.181685
0.0931787
0.178964
0.100376
0.176133
0.108001
0.17319
0.116122
0.170131
0.124832
0.166952
0.134255
0.163647
0.144561
0.160217
0.155995
0.156685
0.168909
0.153142
0.183832
0.149953
0.201561
0.148786
0.22301
0.160414
0.245668
0.258886
0.235754
0.21249
0.00595264
0.212118
0.0115479
0.211574
0.0168935
0.210868
0.0220739
0.210008
0.0271544
0.209
0.0321897
0.207853
0.0372273
0.206574
0.042309
0.205171
0.0474715
0.203651
0.0527476
0.202023
0.0581671
0.200296
0.0637577
0.19848
0.0695462
0.196586
0.0755592
0.194624
0.0818241
0.192608
0.088371
0.190553
0.0952341
0.188475
0.102454
0.186397
0.110079
0.184345
0.118174
0.182362
0.126816
0.180507
0.13611
0.178878
0.146189
0.177649
0.157225
0.177138
0.169419
0.177999
0.182972
0.181644
0.197916
0.190671
0.213983
0.206085
0.230255
0.245815
0.219155
0.217658
0.00612256
0.217329
0.0118769
0.21685
0.0173721
0.21623
0.0226935
0.215478
0.0279067
0.214602
0.0330663
0.213609
0.0382194
0.212511
0.0434075
0.211316
0.0486667
0.210034
0.054029
0.208678
0.0595231
0.20726
0.0651756
0.205795
0.0710117
0.204298
0.077056
0.202788
0.0833337
0.201288
0.0898717
0.199822
0.0966995
0.198425
0.103851
0.197136
0.111368
0.196014
0.119296
0.195135
0.127695
0.194613
0.136632
0.194617
0.146185
0.195412
0.15643
0.197405
0.167426
0.201209
0.179168
0.207592
0.191533
0.217217
0.204358
0.22981
0.217661
0.228868
0.246758
0.222951
0.006268
0.22267
0.0121582
0.222262
0.0177803
0.221736
0.0232198
0.2211
0.0285422
0.220365
0.0338017
0.219539
0.0390449
0.218634
0.0443124
0.217662
0.0496392
0.216635
0.0550561
0.215567
0.0605904
0.214477
0.0662666
0.213381
0.0721076
0.212302
0.0781352
0.211264
0.0843708
0.2103
0.0908365
0.209444
0.0975554
0.208742
0.104553
0.208254
0.111856
0.208056
0.119495
0.20825
0.127501
0.208976
0.135906
0.210427
0.144733
0.212868
0.15399
0.216644
0.163649
0.222176
0.173636
0.229913
0.183796
0.240429
0.193842
0.254643
0.203447
0.210361
0.27315
0.228374
0.0063871
0.228144
0.0123881
0.227812
0.0181127
0.227386
0.023646
0.226875
0.0290529
0.22629
0.0343868
0.225641
0.0396933
0.224942
0.0450119
0.224205
0.0503763
0.223445
0.0558155
0.222681
0.0613546
0.221932
0.067016
0.22122
0.0728193
0.220572
0.0787826
0.22002
0.0849229
0.219601
0.0912559
0.219359
0.0977971
0.219351
0.104561
0.219645
0.111561
0.22033
0.11881
0.221519
0.126313
0.223356
0.134069
0.226027
0.142063
0.229762
0.150255
0.234841
0.15857
0.241595
0.166883
0.250401
0.174989
0.261708
0.182535
0.27599
0.189166
0.193795
0.292556
0.233929
0.00647817
0.233754
0.0125636
0.233502
0.0183649
0.233182
0.0239662
0.232803
0.0294316
0.232376
0.0348132
0.231914
0.0401555
0.23143
0.0454963
0.230939
0.0508676
0.230458
0.0562963
0.230007
0.0618052
0.22961
0.0674135
0.229291
0.0731376
0.229083
0.0789913
0.229019
0.0849861
0.229144
0.0911313
0.229507
0.0974339
0.23017
0.103898
0.231207
0.110524
0.23271
0.117307
0.23479
0.124233
0.237583
0.131275
0.241254
0.138392
0.245995
0.145514
0.252026
0.152539
0.259591
0.159318
0.268931
0.165648
0.280227
0.171239
0.293576
0.175817
0.178868
0.308504
0.23962
0.00653973
0.239502
0.0126816
0.239334
0.0185326
0.239125
0.0241752
0.238884
0.0296722
0.238623
0.0350741
0.238355
0.040424
0.238094
0.0457577
0.237856
0.0511051
0.237662
0.0564909
0.237532
0.0619351
0.237492
0.0674536
0.23757
0.0730592
0.2378
0.078761
0.238221
0.0845652
0.238878
0.0904745
0.239824
0.0964879
0.241122
0.1026
0.242847
0.1088
0.245086
0.115068
0.247942
0.121376
0.251535
0.127682
0.256001
0.133926
0.26149
0.140026
0.268157
0.145872
0.276153
0.151322
0.2856
0.156202
0.296542
0.160296
0.30897
0.163389
0.165212
0.322626
0.245448
0.00657051
0.24539
0.0127399
0.24531
0.0186125
0.245217
0.0242687
0.245119
0.0297696
0.245029
0.0351641
0.24496
0.040493
0.244928
0.0457903
0.244949
0.0510836
0.245045
0.0563948
0.245239
0.0617412
0.245557
0.0671354
0.24603
0.0725863
0.246693
0.0780986
0.247585
0.0836731
0.248753
0.0893067
0.250249
0.0949914
0.252136
0.100714
0.254482
0.106453
0.257368
0.112182
0.260883
0.117861
0.265125
0.12344
0.2702
0.128851
0.276214
0.134012
0.283266
0.138819
0.29144
0.143149
0.30078
0.146861
0.311279
0.149798
0.322867
0.151801
0.152736
0.335343
0.251418
0.0065695
0.251422
0.0127363
0.251432
0.0186017
0.251458
0.0242434
0.251507
0.0297202
0.251592
0.0350791
0.251726
0.0403588
0.251926
0.0455908
0.252209
0.0508005
0.252597
0.056007
0.253113
0.0612246
0.253786
0.0664629
0.254645
0.0717268
0.255727
0.077017
0.25707
0.0823298
0.25872
0.0876568
0.260727
0.0929843
0.263148
0.098293
0.266045
0.103556
0.269486
0.10874
0.273546
0.113802
0.2783
0.118686
0.283824
0.123328
0.290186
0.127649
0.297445
0.13156
0.305634
0.13496
0.314756
0.13774
0.324763
0.139791
0.335559
0.141005
0.141325
0.34697
0.257532
0.00653594
0.257599
0.0126696
0.257702
0.0184984
0.257849
0.0240969
0.258047
0.0295216
0.25831
0.0348171
0.258649
0.0400196
0.259081
0.0451585
0.259625
0.0502563
0.260302
0.0553298
0.261137
0.0603903
0.262155
0.0654443
0.263389
0.0704934
0.264871
0.0755348
0.26664
0.0805609
0.268737
0.0855592
0.27121
0.0905121
0.274106
0.0953961
0.277481
0.100182
0.28139
0.104832
0.285889
0.109302
0.291034
0.113541
0.296875
0.117487
0.303452
0.121073
0.310788
0.124223
0.318887
0.126861
0.327721
0.128906
0.337225
0.130286
0.347297
0.130934
0.13083
0.357792
0.263794
0.00646937
0.263925
0.0125389
0.264122
0.0183014
0.264391
0.0238281
0.26474
0.0291728
0.265179
0.0343773
0.265723
0.0394757
0.266387
0.0444947
0.267189
0.0494543
0.26815
0.0543688
0.269293
0.0592469
0.270646
0.0640921
0.272235
0.0689035
0.274095
0.0736751
0.276259
0.0783966
0.278766
0.0830526
0.281655
0.0876229
0.284969
0.0920822
0.288751
0.0963996
0.293044
0.100538
0.29789
0.104457
0.303324
0.108106
0.309376
0.111435
0.316062
0.114386
0.323385
0.1169
0.331326
0.11892
0.339841
0.120391
0.348861
0.121266
0.358287
0.121508
0.121117
0.367999
0.270207
0.0063696
0.270402
0.0123438
0.270693
0.0180104
0.271084
0.023437
0.271583
0.0286741
0.272199
0.0337611
0.272945
0.0387294
0.273837
0.0436033
0.274891
0.0484004
0.276127
0.0531326
0.277568
0.0578061
0.279237
0.0624223
0.281163
0.0669777
0.283374
0.0714644
0.285901
0.07587
0.288775
0.0801776
0.292032
0.0843659
0.295705
0.0884092
0.299828
0.0922772
0.304431
0.0959358
0.309541
0.0993465
0.315179
0.102468
0.321358
0.105256
0.328079
0.107666
0.335326
0.109653
0.343069
0.111177
0.351259
0.112201
0.359826
0.112699
0.368681
0.112653
0.112075
0.377723
0.276774
0.00623676
0.277033
0.0120846
0.277417
0.017626
0.27793
0.0229244
0.278577
0.0280273
0.279367
0.0329712
0.280311
0.0377849
0.281424
0.0424904
0.282722
0.0471029
0.284222
0.0516322
0.285946
0.0560825
0.287915
0.0604532
0.290153
0.0647394
0.292686
0.0689315
0.29554
0.0730161
0.298742
0.0769758
0.302318
0.0807894
0.306295
0.0844321
0.310697
0.0878758
0.315543
0.0910898
0.320848
0.0940407
0.326622
0.096694
0.332864
0.0990144
0.339562
0.100968
0.346693
0.102522
0.35422
0.10365
0.362091
0.10433
0.370242
0.104549
0.378593
0.104302
0.103607
0.387061
0.283498
0.00607121
0.283821
0.011762
0.284297
0.0171494
0.284929
0.0222925
0.285721
0.0272353
0.28668
0.0320118
0.287817
0.0366481
0.289144
0.0411637
0.290675
0.0455721
0.292426
0.0498809
0.294416
0.0540928
0.296663
0.0582058
0.299189
0.0622137
0.302014
0.0661064
0.30516
0.0698701
0.308648
0.0734878
0.312498
0.0769393
0.316728
0.0802018
0.321354
0.0832502
0.326386
0.0860579
0.331829
0.0885971
0.337683
0.0908399
0.343938
0.0927594
0.350576
0.0943306
0.357566
0.0955318
0.364869
0.0963462
0.372437
0.0967627
0.380208
0.0967777
0.388115
0.0963944
0.0956335
0.396089
0.290384
0.00587359
0.290768
0.0113775
0.291335
0.0165828
0.292083
0.0215442
0.293016
0.0263025
0.294139
0.0308886
0.295461
0.0353263
0.296992
0.039633
0.298744
0.0438201
0.300731
0.0478938
0.302969
0.0518553
0.305473
0.0557018
0.30826
0.0594266
0.311347
0.0630193
0.31475
0.0664666
0.318486
0.0697525
0.322566
0.0728585
0.327004
0.0757644
0.331805
0.0784486
0.336975
0.0808889
0.342509
0.0830628
0.3484
0.0849488
0.354632
0.0865273
0.361182
0.0877809
0.368017
0.0886962
0.3751
0.0892641
0.382381
0.0894812
0.389809
0.0893498
0.397325
0.0888782
0.0880877
0.404871
0.297435
0.00564478
0.297879
0.0109327
0.298533
0.0159288
0.299394
0.0206834
0.300463
0.0252338
0.301743
0.0296083
0.303241
0.0338282
0.304965
0.0379089
0.306925
0.0418601
0.309132
0.0456867
0.311599
0.0493892
0.314337
0.0529639
0.317359
0.0564041
0.320678
0.0596998
0.324306
0.0628387
0.328253
0.0658062
0.332525
0.0685859
0.337129
0.0711606
0.342065
0.0735123
0.347331
0.075623
0.352919
0.0774754
0.358814
0.0790536
0.364997
0.0803439
0.371443
0.0813354
0.378118
0.0820207
0.384985
0.0823968
0.392002
0.0824649
0.39912
0.0822316
0.406291
0.0817076
0.0809138
0.413465
0.304654
0.00538582
0.305157
0.0104296
0.305895
0.0151906
0.306864
0.0197145
0.308063
0.0240353
0.309492
0.0281785
0.311157
0.0321633
0.313063
0.0360031
0.315217
0.0397063
0.317627
0.0432766
0.320302
0.0467139
0.323252
0.0500144
0.326484
0.0531716
0.330008
0.0561763
0.333829
0.0590173
0.337954
0.0616819
0.342383
0.0641561
0.347118
0.0664256
0.352155
0.0684759
0.357485
0.0702931
0.363096
0.0718644
0.368971
0.0731786
0.375088
0.0742269
0.38142
0.0750034
0.387935
0.0755054
0.394598
0.0757336
0.40137
0.0756929
0.40821
0.0753919
0.415075
0.0748426
0.0740648
0.421924
0.312046
0.00509796
0.312605
0.00987083
0.313424
0.0143719
0.314496
0.0186426
0.315817
0.0227135
0.317388
0.0266076
0.31921
0.0303418
0.321285
0.0339279
0.323618
0.037373
0.326215
0.0406801
0.32908
0.0438486
0.332219
0.046875
0.335638
0.0497531
0.339339
0.0524748
0.343326
0.0550303
0.347599
0.0574089
0.352156
0.059599
0.356993
0.0615891
0.362101
0.0633679
0.367469
0.0649252
0.373081
0.0662519
0.378919
0.0673408
0.384959
0.0681872
0.391174
0.0687886
0.397534
0.0691456
0.404005
0.0692618
0.410554
0.069144
0.417144
0.068802
0.423739
0.068248
0.0675004
0.430303
0.319615
0.00478249
0.320227
0.00925883
0.321122
0.0134766
0.322292
0.017473
0.32373
0.0212753
0.325434
0.024904
0.327401
0.028374
0.329634
0.0316956
0.332132
0.0348746
0.334898
0.0379137
0.337935
0.040812
0.341244
0.0435662
0.344826
0.0461709
0.348682
0.0486192
0.352809
0.0509027
0.357206
0.0530126
0.361865
0.0549397
0.366779
0.0566752
0.371936
0.0582106
0.377323
0.0595386
0.382921
0.0606536
0.388711
0.0615513
0.394668
0.0622299
0.400767
0.0626897
0.406979
0.0629336
0.413274
0.0629669
0.41962
0.0627973
0.425987
0.0624351
0.432343
0.0618922
0.0611851
0.438658
0.327365
0.00444079
0.328027
0.00859634
0.328995
0.0125088
0.330257
0.0162112
0.331804
0.0197278
0.333632
0.0230766
0.335736
0.0262704
0.338113
0.0293182
0.340762
0.0322251
0.343683
0.034993
0.346874
0.0376211
0.350334
0.0401067
0.35406
0.042445
0.358049
0.0446302
0.362296
0.0466556
0.366794
0.0485142
0.371535
0.0501989
0.376507
0.051703
0.381697
0.0530208
0.387088
0.0541474
0.392662
0.0550795
0.398398
0.0558155
0.404272
0.0563557
0.41026
0.0567021
0.416334
0.0568592
0.422468
0.056833
0.428634
0.0566319