/*--------------------------------*- C++ -*----------------------------------*\
  =========                 |
  \\      /  F ield         | OpenFOAM: The Open Source CFD Toolbox
   \\    /   O peration     | Website:  https://openfoam.org
    \\  /    A nd           | Version:  dev
     \\/     M anipulation  |
\*---------------------------------------------------------------------------*/
FoamFile
{
    version     2.0;
    format      ascii;
    class       volVectorField;
    location    "8.1";
    object      U;
}
// * * * * * * * * * * * * * * * * * * * * * * * * * * * * * * * * * * * * * //

dimensions      [0 1 -1 0 0 0 0];

internalField   nonuniform List<vector> 
2790
(
(9.94399 0 0.0205233)
(9.87572 0 0.0295879)
(9.77521 0 0.0359898)
(9.64943 0 0.0425566)
(9.50409 0 0.0493861)
(9.34006 0 0.0564292)
(9.15654 0 0.063817)
(8.95261 0 0.0717131)
(8.72745 0 0.0802571)
(8.48006 0 0.089576)
(8.20924 0 0.0997966)
(7.91361 0 0.111049)
(7.59164 0 0.123465)
(7.24172 0 0.137171)
(6.86226 0 0.152279)
(6.45171 0 0.168878)
(6.00878 0 0.187006)
(5.53257 0 0.206628)
(5.02285 0 0.2276)
(4.48031 0 0.249621)
(3.90701 0 0.272185)
(3.30668 0 0.294533)
(2.68514 0 0.315626)
(2.05048 0 0.334292)
(1.41166 0 0.350607)
(0.797918 0 0.372886)
(0.110545 0 0.324997)
(-0.469572 0 -0.11489)
(-0.453796 0 -0.29713)
(-0.231165 0 -0.42385)
(9.9985 0 0.0407033)
(9.98145 0 0.0623833)
(9.93574 0 0.079141)
(9.86416 0 0.096626)
(9.77097 0 0.115126)
(9.65715 0 0.13449)
(9.52205 0 0.154978)
(9.36484 0 0.176947)
(9.1847 0 0.200713)
(8.98065 0 0.226556)
(8.7515 0 0.254752)
(8.49585 0 0.28557)
(8.21216 0 0.319261)
(7.89877 0 0.356037)
(7.55397 0 0.396036)
(7.17612 0 0.439281)
(6.76369 0 0.485612)
(6.31556 0 0.534607)
(5.83114 0 0.585482)
(5.31075 0 0.636973)
(4.75602 0 0.68722)
(4.17027 0 0.733658)
(3.55915 0 0.772959)
(2.93141 0 0.801093)
(2.29982 0 0.813742)
(1.69284 0 0.807241)
(1.10705 0 0.747219)
(0.658827 0 0.547889)
(0.186338 0 0.22455)
(-0.00819844 0 -0.453759)
(9.99559 0 0.0432074)
(9.97556 0 0.0752726)
(9.9318 0 0.103347)
(9.86489 0 0.132373)
(9.77778 0 0.163062)
(9.67154 0 0.195402)
(9.54587 0 0.229747)
(9.40012 0 0.266609)
(9.23364 0 0.306478)
(9.04562 0 0.349817)
(8.83506 0 0.397084)
(8.60078 0 0.448737)
(8.34141 0 0.50521)
(8.05545 0 0.566884)
(7.74132 0 0.634034)
(7.39737 0 0.706756)
(7.02202 0 0.784864)
(6.61386 0 0.867752)
(6.17183 0 0.954221)
(5.69552 0 1.04228)
(5.1855 0 1.1289)
(4.64382 0 1.2098)
(4.07466 0 1.27916)
(3.48524 0 1.32933)
(2.88672 0 1.35007)
(2.29935 0 1.3264)
(1.73175 0 1.22073)
(1.21618 0 0.972951)
(0.701093 0 0.570085)
(0.358009 0 -0.156646)
(9.99403 0 0.0494998)
(9.97181 0 0.0932075)
(9.92788 0 0.133574)
(9.86224 0 0.174212)
(9.77693 0 0.216437)
(9.67298 0 0.260666)
(9.55031 0 0.307436)
(9.40848 0 0.357423)
(9.24701 0 0.411301)
(9.06531 0 0.469718)
(8.86266 0 0.533318)
(8.63816 0 0.602743)
(8.39081 0 0.678615)
(8.11947 0 0.7615)
(7.82294 0 0.85185)
(7.49994 0 0.949907)
(7.14916 0 1.05558)
(6.76935 0 1.16827)
(6.35939 0 1.28664)
(5.91848 0 1.4083)
(5.4464 0 1.52949)
(4.94387 0 1.6447)
(4.41303 0 1.74615)
(3.85813 0 1.82321)
(3.28569 0 1.86134)
(2.70629 0 1.84028)
(2.12555 0 1.72594)
(1.55418 0 1.47779)
(0.957902 0 1.08361)
(0.509409 0 0.502232)
(9.99331 0 0.0572144)
(9.96994 0 0.11096)
(9.92593 0 0.162106)
(9.86146 0 0.213351)
(9.77798 0 0.266361)
(9.67634 0 0.32192)
(9.55653 0 0.38071)
(9.41821 0 0.443499)
(9.26096 0 0.511069)
(9.08431 0 0.584186)
(8.88768 0 0.663607)
(8.67035 0 0.750087)
(8.43155 0 0.844362)
(8.17041 0 0.947115)
(7.88602 0 1.05891)
(7.57741 0 1.18011)
(7.24358 0 1.31073)
(6.88351 0 1.45022)
(6.49618 0 1.59726)
(6.08061 0 1.74936)
(5.63603 0 1.90244)
(5.16198 0 2.05034)
(4.65863 0 2.18418)
(4.12707 0 2.29173)
(3.56927 0 2.35653)
(2.98876 0 2.35727)
(2.38673 0 2.26488)
(1.76631 0 2.04754)
(1.08994 0 1.69128)
(0.536629 0 1.15402)
(9.99302 0 0.0655395)
(9.96923 0 0.128703)
(9.92556 0 0.190116)
(9.86253 0 0.251847)
(9.78128 0 0.315584)
(9.68244 0 0.382326)
(9.566 0 0.452884)
(9.4317 0 0.528114)
(9.27919 0 0.608895)
(9.10804 0 0.696103)
(8.91775 0 0.790602)
(8.70771 0 0.893252)
(8.47725 0 1.00489)
(8.22563 0 1.12629)
(7.95209 0 1.25813)
(7.65582 0 1.40086)
(7.33595 0 1.55459)
(6.99155 0 1.71891)
(6.62158 0 1.8926)
(6.22489 0 2.07327)
(5.80015 0 2.25688)
(5.3459 0 2.43723)
(4.86056 0 2.6052)
(4.34255 0 2.74821)
(3.79024 0 2.84951)
(3.20243 0 2.88813)
(2.57645 0 2.83813)
(1.91337 0 2.67148)
(1.17269 0 2.37385)
(0.549939 0 1.89424)
(9.99297 0 0.0740758)
(9.96926 0 0.146316)
(9.92637 0 0.217486)
(9.86508 0 0.289296)
(9.78642 0 0.363362)
(9.69084 0 0.440836)
(9.57834 0 0.522671)
(9.44871 0 0.609825)
(9.30164 0 0.703273)
(9.13676 0 0.803987)
(8.95362 0 0.912926)
(8.75168 0 1.03104)
(8.5303 0 1.15926)
(8.28883 0 1.29844)
(8.02654 0 1.44935)
(7.74262 0 1.61253)
(7.43622 0 1.78824)
(7.10631 0 1.97622)
(6.7517 0 2.17546)
(6.37088 0 2.38387)
(5.96196 0 2.59778)
(5.52249 0 2.81141)
(5.04936 0 3.01616)
(4.53883 0 3.19995)
(3.98649 0 3.34663)
(3.38774 0 3.43588)
(2.7371 0 3.44319)
(2.03612 0 3.34133)
(1.24167 0 3.11338)
(0.563478 0 2.69294)
(9.99306 0 0.0825891)
(9.96981 0 0.163608)
(9.92807 0 0.244053)
(9.86885 0 0.325485)
(9.79312 0 0.409453)
(9.70126 0 0.497215)
(9.59323 0 0.589851)
(9.46887 0 0.688411)
(9.32795 0 0.793959)
(9.17013 0 0.907554)
(8.99501 0 1.03024)
(8.80208 0 1.16307)
(8.59078 0 1.30705)
(8.36047 0 1.46314)
(8.1104 0 1.6322)
(7.83974 0 1.81493)
(7.54753 0 2.01173)
(7.23258 0 2.22258)
(6.89339 0 2.4468)
(6.52804 0 2.68276)
(6.13394 0 2.92741)
(5.70769 0 3.17581)
(5.24479 0 3.42039)
(4.73959 0 3.65019)
(4.18528 0 3.85019)
(3.57455 0 4.0008)
(2.89933 0 4.07776)
(2.16195 0 4.05218)
(1.31602 0 3.90145)
(0.583171 0 3.53988)
(9.99326 0 0.0909294)
(9.97072 0 0.180411)
(9.93046 0 0.269671)
(9.87362 0 0.360247)
(9.80118 0 0.453654)
(9.71344 0 0.551219)
(9.61038 0 0.654124)
(9.49188 0 0.763512)
(9.35775 0 0.880526)
(9.20772 0 1.00631)
(9.04144 0 1.14199)
(8.85846 0 1.28871)
(8.65825 0 1.44757)
(8.44018 0 1.61964)
(8.20353 0 1.80593)
(7.9474 0 2.00728)
(7.67071 0 2.22432)
(7.37207 0 2.45736)
(7.04968 0 2.70614)
(6.70114 0 2.96965)
(6.32319 0 3.24574)
(5.91147 0 3.53059)
(5.46016 0 3.8181)
(4.96178 0 4.09899)
(4.40716 0 4.35982)
(3.78615 0 4.582)
(3.08732 0 4.7409)
(2.3125 0 4.80421)
(1.4105 0 4.74077)
(0.614241 0 4.44157)
(9.99352 0 0.0989932)
(9.97191 0 0.196581)
(9.9334 0 0.294199)
(9.87924 0 0.393422)
(9.8104 0 0.495763)
(9.72717 0 0.602598)
(9.62953 0 0.715195)
(9.51741 0 0.834779)
(9.39068 0 0.962566)
(9.24912 0 1.09978)
(9.09244 0 1.24763)
(8.92026 0 1.40733)
(8.73211 0 1.58012)
(8.52739 0 1.76716)
(8.30539 0 1.96963)
(8.06521 0 2.18856)
(7.80566 0 2.42488)
(7.52521 0 2.67926)
(7.2218 0 2.95202)
(6.89263 0 3.24292)
(6.53386 0 3.55089)
(6.14028 0 3.87358)
(5.70482 0 4.20676)
(5.21821 0 4.54341)
(4.66869 0 4.8724)
(4.04254 0 5.17686)
(3.32336 0 5.43211)
(2.50947 0 5.60167)
(1.54166 0 5.64309)
(0.663958 0 5.41757)
(9.99384 0 0.106705)
(9.9733 0 0.212002)
(9.9368 0 0.317506)
(9.88558 0 0.424861)
(9.82064 0 0.535596)
(9.74225 0 0.65113)
(9.65045 0 0.7728)
(9.54518 0 0.901902)
(9.42638 0 1.03972)
(9.2939 0 1.18755)
(9.14752 0 1.34667)
(8.98693 0 1.5184)
(8.81173 0 1.70404)
(8.62141 0 1.90493)
(8.41528 0 2.12239)
(8.19248 0 2.35768)
(7.95182 0 2.61206)
(7.6917 0 2.88665)
(7.40994 0 3.1824)
(7.1035 0 3.49999)
(6.76817 0 3.8396)
(6.39811 0 4.20066)
(5.98529 0 4.58128)
(5.51876 0 4.97739)
(4.984 0 5.38132)
(4.36284 0 5.77946)
(3.63146 0 6.14892)
(2.77971 0 6.4503)
(1.73314 0 6.62799)
(0.74468 0 6.50245)
(9.9942 0 0.114007)
(9.97487 0 0.226577)
(9.94056 0 0.339476)
(9.89252 0 0.454428)
(9.83174 0 0.57299)
(9.75851 0 0.696618)
(9.67289 0 0.826706)
(9.57488 0 0.96461)
(9.46449 0 1.11167)
(9.34162 0 1.26925)
(9.20616 0 1.43869)
(9.05786 0 1.62138)
(8.89644 0 1.81875)
(8.72146 0 2.03223)
(8.53235 0 2.26332)
(8.32833 0 2.51354)
(8.1083 0 2.78446)
(7.87074 0 3.07769)
(7.6135 0 3.39487)
(7.33359 0 3.73764)
(7.02673 0 4.10761)
(6.68691 0 4.50619)
(6.30558 0 4.93426)
(5.8707 0 5.39156)
(5.36531 0 5.8754)
(4.76634 0 6.37819)
(4.04011 0 6.88301)
(3.16085 0 7.35308)
(2.02426 0 7.72252)
(0.880481 0 7.75618)
(9.99459 0 0.120854)
(9.97657 0 0.240226)
(9.94461 0 0.36001)
(9.89996 0 0.482005)
(9.84356 0 0.607802)
(9.77576 0 0.738891)
(9.69663 0 0.876709)
(9.60624 0 1.02266)
(9.50464 0 1.17814)
(9.39185 0 1.34454)
(9.26782 0 1.52329)
(9.13243 0 1.71583)
(8.98548 0 1.92367)
(8.82668 0 2.14837)
(8.65561 0 2.39157)
(8.47165 0 2.65504)
(8.27388 0 2.94065)
(8.06101 0 3.25049)
(7.83116 0 3.58685)
(7.58165 0 3.95236)
(7.30859 0 4.35004)
(7.00638 0 4.78337)
(6.66686 0 5.25632)
(6.27802 0 5.77314)
(5.82187 0 6.33783)
(5.27176 0 6.95244)
(4.58368 0 7.61348)
(3.70905 0 8.30046)
(2.48738 0 8.95733)
(1.12402 0 9.29186)
(9.99501 0 0.127211)
(9.97838 0 0.252886)
(9.94891 0 0.379023)
(9.9078 0 0.50749)
(9.85599 0 0.639913)
(9.79382 0 0.777809)
(9.72143 0 0.922649)
(9.63894 0 1.07587)
(9.54648 0 1.23891)
(9.44414 0 1.4132)
(9.33196 0 1.6002)
(9.20996 0 1.80141)
(9.07806 0 2.0184)
(8.93615 0 2.25283)
(8.78398 0 2.50648)
(8.62115 0 2.78129)
(8.44705 0 3.07943)
(8.26076 0 3.40336)
(8.06086 0 3.75597)
(7.84532 0 4.14073)
(7.61111 0 4.56193)
(7.3538 0 5.02499)
(7.06676 0 5.53684)
(6.73988 0 6.10645)
(6.35722 0 6.74553)
(5.89316 0 7.4691)
(5.29963 0 8.2963)
(4.50749 0 9.24757)
(3.26744 0 10.3407)
(1.60412 0 11.3569)
(9.99545 0 0.133051)
(9.98026 0 0.264504)
(9.95339 0 0.396443)
(9.91596 0 0.530791)
(9.86889 0 0.669203)
(9.81253 0 0.813219)
(9.74709 0 0.964332)
(9.67272 0 1.12401)
(9.58965 0 1.2937)
(9.49803 0 1.47487)
(9.39804 0 1.66899)
(9.28979 0 1.87762)
(9.17339 0 2.10235)
(9.04888 0 2.34492)
(8.91625 0 2.60719)
(8.77539 0 2.89124)
(8.62605 0 3.19942)
(8.46779 0 3.5345)
(8.29988 0 3.89977)
(8.12117 0 4.29933)
(7.92996 0 4.7384)
(7.72368 0 5.22382)
(7.49849 0 5.76482)
(7.24848 0 6.3742)
(6.96415 0 7.07039)
(6.62994 0 7.88119)
(6.21303 0 8.85197)
(5.66397 0 10.0656)
(4.68781 0 11.7299)
(2.6856 0 14.5881)
(0.120486 0 -0.119567)
(0.282898 0 -0.108785)
(0.448596 0 -0.0853571)
(0.586464 0 -0.0625847)
(0.690795 0 -0.0431504)
(0.765164 0 -0.0270767)
(0.814397 0 -0.0139042)
(0.842521 0 -0.00322325)
(0.852921 0 0.00514072)
(0.848822 0 0.0107505)
(0.833258 0 0.0142877)
(0.809336 0 0.0163518)
(0.779808 0 0.0172256)
(0.747036 0 0.0171051)
(0.713146 0 0.0161694)
(0.680044 0 0.0146169)
(0.649312 0 0.0126802)
(0.622086 0 0.0105998)
(0.598991 0 0.00859665)
(0.580136 0 0.006845)
(0.565174 0 0.00544555)
(0.553449 0 0.00442006)
(0.544168 0 0.00373565)
(0.536553 0 0.00331075)
(0.529951 0 0.00304262)
(0.523877 0 0.00286406)
(0.51799 0 0.00274075)
(0.512057 0 0.00264684)
(0.505948 0 0.00252548)
(0.498816 0 0.00199988)
(0.104327 0 -0.281542)
(0.263752 0 -0.263887)
(0.419659 0 -0.214064)
(0.552612 0 -0.164362)
(0.658579 0 -0.121539)
(0.740961 0 -0.0858041)
(0.803887 0 -0.0562017)
(0.850672 0 -0.0318337)
(0.883813 0 -0.0120482)
(0.90542 0 0.00362083)
(0.915959 0 0.015233)
(0.917323 0 0.0233351)
(0.912047 0 0.0283278)
(0.902459 0 0.0306242)
(0.890692 0 0.030624)
(0.878665 0 0.0287759)
(0.867956 0 0.0255916)
(0.859682 0 0.021622)
(0.854447 0 0.0174157)
(0.852337 0 0.0134594)
(0.852992 0 0.0101004)
(0.855759 0 0.00749743)
(0.859843 0 0.00564536)
(0.864482 0 0.00446175)
(0.869086 0 0.00378925)
(0.873301 0 0.00347515)
(0.876939 0 0.00340289)
(0.879915 0 0.00347341)
(0.882122 0 0.00358034)
(0.883864 0 0.00326144)
(0.0838357 0 -0.446678)
(0.222614 0 -0.417972)
(0.348635 0 -0.341812)
(0.45611 0 -0.266607)
(0.541985 0 -0.202179)
(0.609761 0 -0.14852)
(0.662643 0 -0.104193)
(0.703106 0 -0.0678915)
(0.733286 0 -0.0385492)
(0.75497 0 -0.0149307)
(0.77222 0 0.00390431)
(0.782835 0 0.0177493)
(0.788447 0 0.0268219)
(0.790682 0 0.0315744)
(0.790958 0 0.0325676)
(0.79059 0 0.0305408)
(0.79067 0 0.0263317)
(0.791955 0 0.0208233)
(0.79481 0 0.0149061)
(0.799191 0 0.00938204)
(0.804682 0 0.00481933)
(0.810579 0 0.00152304)
(0.815865 0 -0.000381661)
(0.820255 0 -0.00118557)
(0.82391 0 -0.00125545)
(0.827149 0 -0.000922041)
(0.830314 0 -0.000394786)
(0.833654 0 0.000242246)
(0.836976 0 0.000892898)
(0.84019 0 0.00154328)
(0.0638822 0 -0.579287)
(0.176051 0 -0.534339)
(0.26524 0 -0.434496)
(0.342272 0 -0.339358)
(0.402841 0 -0.259083)
(0.451265 0 -0.192475)
(0.489644 0 -0.137456)
(0.519461 0 -0.0922934)
(0.541996 0 -0.0558623)
(0.558648 0 -0.0274198)
(0.570568 0 -0.00549952)
(0.581964 0 0.0108247)
(0.58954 0 0.0221562)
(0.594544 0 0.0285751)
(0.597935 0 0.0304221)
(0.60055 0 0.0285882)
(0.602967 0 0.0241661)
(0.605514 0 0.0182876)
(0.608281 0 0.012094)
(0.611087 0 0.00662498)
(0.613589 0 0.00261663)
(0.615341 0 0.000420105)
(0.616012 0 -0.000410444)
(0.615519 0 -0.000537359)
(0.613818 0 -0.000471146)
(0.611098 0 -0.000437541)
(0.60777 0 -0.000460874)
(0.604111 0 -0.000369292)
(0.600377 0 -3.41253e-05)
(0.596241 0 0.000940591)
(0.0431854 0 -0.680995)
(0.12333 0 -0.614943)
(0.170043 0 -0.494775)
(0.214079 0 -0.386196)
(0.245837 0 -0.296163)
(0.271762 0 -0.221822)
(0.292607 0 -0.160503)
(0.309176 0 -0.110063)
(0.322006 0 -0.0693666)
(0.331705 0 -0.0377651)
(0.338622 0 -0.013387)
(0.34705 0 0.00565341)
(0.353128 0 0.0184399)
(0.356642 0 0.0256798)
(0.358005 0 0.0280276)
(0.35784 0 0.0265411)
(0.356338 0 0.022317)
(0.353551 0 0.016501)
(0.34957 0 0.0104011)
(0.344417 0 0.00516424)
(0.338064 0 0.0014662)
(0.330891 0 -0.00031909)
(0.32279 0 -0.000575833)
(0.312359 0 0.000301407)
(0.299303 0 0.0017064)
(0.284182 0 0.00300047)
(0.267804 0 0.00386784)
(0.251014 0 0.00449037)
(0.234733 0 0.00530204)
(0.21818 0 0.00561009)
(0.0212079 0 -0.746385)
(0.0639922 0 -0.655385)
(0.0640879 0 -0.518394)
(0.0730247 0 -0.402499)
(0.0726142 0 -0.307706)
(0.0724373 0 -0.230176)
(0.0717429 0 -0.166677)
(0.0713542 0 -0.114615)
(0.0714797 0 -0.0727427)
(0.0722472 0 -0.0413768)
(0.0727301 0 -0.0204161)
(0.0749579 0 -0.0026545)
(0.0715624 0 0.0142794)
(0.0665299 0 0.0247847)
(0.0583016 0 0.0294617)
(0.0469878 0 0.0300797)
(0.0321837 0 0.0279665)
(0.0133855 0 0.0241094)
(-0.00893584 0 0.0194287)
(-0.0325364 0 0.0151745)
(-0.0571469 0 0.0120107)
(-0.0810537 0 0.0105699)
(-0.10306 0 0.0110718)
(-0.122218 0 0.0125649)
(-0.138379 0 0.0142043)
(-0.152304 0 0.0153224)
(-0.165247 0 0.0156305)
(-0.17838 0 0.0153503)
(-0.191553 0 0.0142884)
(-0.202572 0 0.0116609)
(-0.00358467 0 -0.768595)
(-0.00350461 0 -0.650279)
(-0.0511847 0 -0.501231)
(-0.081198 0 -0.384002)
(-0.116601 0 -0.289639)
(-0.147608 0 -0.214234)
(-0.175116 0 -0.153939)
(-0.198224 0 -0.10557)
(-0.217402 0 -0.0664789)
(-0.235648 0 -0.0349394)
(-0.258604 0 -0.00984083)
(-0.288586 0 0.0104557)
(-0.301216 0 0.0254398)
(-0.314143 0 0.0350919)
(-0.328369 0 0.0406165)
(-0.344317 0 0.0428253)
(-0.362199 0 0.0424286)
(-0.381883 0 0.0400528)
(-0.403016 0 0.0363846)
(-0.425068 0 0.0322527)
(-0.447442 0 0.0284564)
(-0.469359 0 0.0253871)
(-0.489984 0 0.0232193)
(-0.508297 0 0.0218134)
(-0.523591 0 0.0209105)
(-0.535955 0 0.0202982)
(-0.546211 0 0.0197643)
(-0.555388 0 0.0190278)
(-0.563848 0 0.0175869)
(-0.569751 0 0.0154841)
(-0.0344406 0 -0.74027)
(-0.0812019 0 -0.597169)
(-0.174358 0 -0.445665)
(-0.248599 0 -0.331178)
(-0.321664 0 -0.241889)
(-0.387389 0 -0.171941)
(-0.446003 0 -0.116665)
(-0.497104 0 -0.0723609)
(-0.540983 0 -0.0362016)
(-0.57939 0 -0.00739179)
(-0.611562 0 0.013239)
(-0.631771 0 0.0266387)
(-0.650782 0 0.0371355)
(-0.667377 0 0.0457137)
(-0.683031 0 0.0513547)
(-0.698694 0 0.0539928)
(-0.714858 0 0.0539759)
(-0.731678 0 0.051817)
(-0.749186 0 0.0482395)
(-0.76736 0 0.0441263)
(-0.786066 0 0.0402033)
(-0.804925 0 0.036782)
(-0.823202 0 0.0338256)
(-0.839836 0 0.0311646)
(-0.853849 0 0.0286843)
(-0.86486 0 0.0264394)
(-0.873342 0 0.0245195)
(-0.880321 0 0.0227966)
(-0.886344 0 0.0208986)
(-0.889967 0 0.0190891)
(-0.0716133 0 -0.659413)
(-0.166192 0 -0.495713)
(-0.308601 0 -0.347364)
(-0.428267 0 -0.241171)
(-0.537952 0 -0.163553)
(-0.63294 0 -0.105436)
(-0.713645 0 -0.0607354)
(-0.781215 0 -0.0264233)
(-0.837433 0 -0.000217797)
(-0.877613 0 0.0185933)
(-0.907128 0 0.0322645)
(-0.932423 0 0.0427439)
(-0.953783 0 0.0511691)
(-0.971977 0 0.0577682)
(-0.988138 0 0.0623111)
(-1.0033 0 0.064539)
(-1.01813 0 0.0644098)
(-1.03293 0 0.0622226)
(-1.04788 0 0.0586589)
(-1.06321 0 0.0545804)
(-1.07912 0 0.0506196)
(-1.09552 0 0.0469172)
(-1.11184 0 0.0432254)
(-1.12699 0 0.0392776)
(-1.13979 0 0.0351337)
(-1.14965 0 0.0312254)
(-1.15691 0 0.027999)
(-1.1626 0 0.0254962)
(-1.16728 0 0.0234366)
(-1.16981 0 0.0220119)
(-0.119109 0 -0.520882)
(-0.267338 0 -0.344962)
(-0.462209 0 -0.209987)
(-0.625044 0 -0.120027)
(-0.76757 0 -0.0587271)
(-0.885887 0 -0.0177388)
(-0.976005 0 0.00806033)
(-1.04396 0 0.02555)
(-1.0937 0 0.0376967)
(-1.13398 0 0.0470943)
(-1.1668 0 0.0547186)
(-1.19395 0 0.0609599)
(-1.21636 0 0.0660428)
(-1.23505 0 0.0701318)
(-1.25122 0 0.0730825)
(-1.266 0 0.0744639)
(-1.28006 0 0.0738752)
(-1.29362 0 0.0713705)
(-1.30684 0 0.0676119)
(-1.32008 0 0.0635271)
(-1.33387 0 0.0597043)
(-1.34847 0 0.0560464)
(-1.36342 0 0.0519656)
(-1.37756 0 0.0469689)
(-1.38947 0 0.0412141)
(-1.39835 0 0.0355599)
(-1.40453 0 0.0309473)
(-1.40914 0 0.0276851)
(-1.41281 0 0.0255172)
(-1.41467 0 0.0243822)
(-0.187646 0 -0.324614)
(-0.413148 0 -0.146006)
(-0.677251 0 -0.0136518)
(-0.864688 0 0.0409894)
(-1.00796 0 0.0626897)
(-1.1153 0 0.0696219)
(-1.20002 0 0.0722942)
(-1.26667 0 0.0736541)
(-1.3194 0 0.0749101)
(-1.36145 0 0.0764893)
(-1.39541 0 0.0782298)
(-1.42306 0 0.0798343)
(-1.44549 0 0.0811723)
(-1.46381 0 0.0824474)
(-1.47946 0 0.0836275)
(-1.49376 0 0.0840545)
(-1.50732 0 0.0828548)
(-1.5201 0 0.0797684)
(-1.53201 0 0.0755133)
(-1.54352 0 0.0712573)
(-1.55554 0 0.0676521)
(-1.56876 0 0.0643111)
(-1.5829 0 0.060145)
(-1.59657 0 0.0542723)
(-1.60795 0 0.0468864)
(-1.61594 0 0.0393662)
(-1.62096 0 0.0333204)
(-1.62443 0 0.0293895)
(-1.62716 0 0.0271956)
(-1.6285 0 0.0262825)
(-0.297955 0 0.0219428)
(-0.582968 0 0.182501)
(-0.856284 0 0.201575)
(-1.05408 0 0.193422)
(-1.20415 0 0.174688)
(-1.31788 0 0.154573)
(-1.40474 0 0.137393)
(-1.47173 0 0.123686)
(-1.52378 0 0.113224)
(-1.56469 0 0.10611)
(-1.59759 0 0.101686)
(-1.62437 0 0.0985717)
(-1.64581 0 0.0959678)
(-1.66289 0 0.0942356)
(-1.67736 0 0.0936681)
(-1.69092 0 0.0933215)
(-1.70413 0 0.0915785)
(-1.71641 0 0.0876976)
(-1.72719 0 0.0825785)
(-1.73699 0 0.0779317)
(-1.74728 0 0.0746577)
(-1.75938 0 0.0719966)
(-1.7732 0 0.0681098)
(-1.78699 0 0.0614948)
(-1.79822 0 0.0523064)
(-1.80536 0 0.0426145)
(-1.80897 0 0.0349962)
(-1.81103 0 0.0305228)
(-1.81277 0 0.0284508)
(-1.81368 0 0.0277291)
(-0.378077 0 0.477086)
(-0.716707 0 0.510919)
(-1.04123 0 0.437115)
(-1.25688 0 0.360161)
(-1.40986 0 0.294805)
(-1.51976 0 0.240632)
(-1.60067 0 0.200293)
(-1.66228 0 0.171119)
(-1.70957 0 0.14916)
(-1.74616 0 0.133666)
(-1.77578 0 0.123695)
(-1.80046 0 0.116345)
(-1.82009 0 0.109687)
(-1.83498 0 0.104657)
(-1.84736 0 0.102497)
(-1.85978 0 0.101934)
(-1.8728 0 0.100042)
(-1.88491 0 0.0952241)
(-1.89461 0 0.08875)
(-1.9024 0 0.0834041)
(-1.91067 0 0.0806649)
(-1.92171 0 0.0792493)
(-1.93572 0 0.07617)
(-1.95031 0 0.0689646)
(-1.96187 0 0.0576433)
(-1.9681 0 0.045227)
(-1.96984 0 0.0357559)
(-1.97007 0 0.0309355)
(-1.97072 0 0.0292729)
(-1.97126 0 0.0287541)
(-0.503279 0 1.00061)
(-0.935562 0 0.919188)
(-1.29854 0 0.701054)
(-1.49996 0 0.524804)
(-1.63325 0 0.406621)
(-1.72502 0 0.314816)
(-1.78906 0 0.253526)
(-1.83859 0 0.213718)
(-1.87726 0 0.181999)
(-1.90637 0 0.157842)
(-1.93052 0 0.142957)
(-1.95229 0 0.132397)
(-1.96969 0 0.121793)
(-1.98128 0 0.113171)
(-1.99017 0 0.109877)
(-2.00082 0 0.110315)
(-2.01401 0 0.109101)
(-2.02653 0 0.10309)
(-2.03514 0 0.0942914)
(-2.04026 0 0.0875616)
(-2.04579 0 0.0855676)
(-2.05563 0 0.0862163)
(-2.07037 0 0.0846975)
(-2.08667 0 0.0770944)
(-2.09919 0 0.0631048)
(-2.10437 0 0.0470509)
(-2.10346 0 0.0352243)
(-2.10117 0 0.0303851)
(-2.10061 0 0.0296929)
(-2.1009 0 0.029461)
(-0.741996 0 2.03886)
(-1.28034 0 1.60199)
(-1.66924 0 0.998755)
(-1.80186 0 0.610133)
(-1.8773 0 0.476506)
(-1.93285 0 0.368673)
(-1.96438 0 0.297545)
(-1.9961 0 0.252183)
(-2.02616 0 0.206443)
(-2.04556 0 0.169489)
(-2.06099 0 0.153576)
(-2.07897 0 0.145693)
(-2.09421 0 0.133228)
(-2.10121 0 0.119937)
(-2.10451 0 0.114747)
(-2.1125 0 0.117415)
(-2.12674 0 0.117873)
(-2.14089 0 0.110183)
(-2.14845 0 0.097605)
(-2.1496 0 0.0886353)
(-2.15094 0 0.0880988)
(-2.1591 0 0.0924924)
(-2.17522 0 0.0939333)
(-2.19442 0 0.0863657)
(-2.20875 0 0.0689755)
(-2.21262 0 0.0478529)
(-2.20777 0 0.0327864)
(-2.20182 0 0.0284733)
(-2.19993 0 0.0298189)
(-2.20023 0 0.0301384)
(9.9959 0 0.138446)
(9.98225 0 0.275238)
(9.95811 0 0.412525)
(9.92454 0 0.552274)
(9.88243 0 0.696163)
(9.83217 0 0.845744)
(9.774 0 1.00252)
(9.70816 0 1.16798)
(9.63494 0 1.34357)
(9.5546 0 1.53077)
(9.46742 0 1.73106)
(9.37366 0 1.946)
(9.27358 0 2.17721)
(9.16745 0 2.42643)
(9.05551 0 2.69559)
(8.93798 0 2.9868)
(8.81505 0 3.30254)
(8.68685 0 3.64569)
(8.55346 0 4.01976)
(8.41487 0 4.42914)
(8.271 0 4.87946)
(8.12174 0 5.37819)
(7.96702 0 5.93549)
(7.80709 0 6.56573)
(7.64313 0 7.28997)
(7.48008 0 8.14078)
(7.33111 0 9.17211)
(7.28606 0 10.4774)
(7.74196 0 12.2014)
(7.91934 0 14.9188)
(9.99638 0 0.143405)
(9.98434 0 0.285093)
(9.96306 0 0.427252)
(9.93352 0 0.571883)
(9.89657 0 0.720676)
(9.85263 0 0.875191)
(9.80198 0 1.03693)
(9.74494 0 1.20738)
(9.68186 0 1.38799)
(9.61311 0 1.58022)
(9.53909 0 1.78554)
(9.46021 0 2.0055)
(9.37691 0 2.24169)
(9.28967 0 2.49585)
(9.199 0 2.76987)
(9.10548 0 3.06585)
(9.00977 0 3.38622)
(8.91262 0 3.73385)
(8.81493 0 4.11217)
(8.71789 0 4.52545)
(8.62309 0 4.97912)
(8.53289 0 5.4802)
(8.45101 0 6.03802)
(8.38368 0 6.66517)
(8.34205 0 7.37889)
(8.34816 0 8.2026)
(8.44075 0 9.16648)
(8.67563 0 10.3039)
(9.32138 0 11.5598)
(9.80951 0 12.6509)
(9.99688 0 0.147842)
(9.98651 0 0.293904)
(9.96819 0 0.440402)
(9.94283 0 0.589352)
(9.91121 0 0.742448)
(9.87378 0 0.901243)
(9.83087 0 1.06723)
(9.78285 0 1.24188)
(9.73015 0 1.42661)
(9.67325 0 1.62285)
(9.61265 0 1.83206)
(9.54891 0 2.0557)
(9.48265 0 2.29535)
(9.41456 0 2.55265)
(9.34544 0 2.8294)
(9.27622 0 3.12762)
(9.20798 0 3.44957)
(9.14207 0 3.79789)
(9.08017 0 4.1757)
(9.02449 0 4.58677)
(8.97806 0 5.03569)
(8.94513 0 5.52815)
(8.93201 0 6.07114)
(8.94819 0 6.67307)
(9.00816 0 7.3434)
(9.13404 0 8.0908)
(9.35682 0 8.91722)
(9.68604 0 9.81168)
(10.2517 0 10.723)
(10.9393 0 11.4418)
(9.9974 0 0.151703)
(9.98874 0 0.301564)
(9.97347 0 0.451807)
(9.95239 0 0.604449)
(9.92623 0 0.761177)
(9.89545 0 0.923525)
(9.86043 0 1.09297)
(9.82159 0 1.27093)
(9.77944 0 1.45881)
(9.73454 0 1.65798)
(9.6875 0 1.86982)
(9.63902 0 2.09575)
(9.58987 0 2.33722)
(9.54096 0 2.59578)
(9.49334 0 2.87308)
(9.44823 0 3.17092)
(9.40713 0 3.49132)
(9.37185 0 3.83653)
(9.34471 0 4.20913)
(9.32866 0 4.61211)
(9.32764 0 5.04886)
(9.34694 0 5.52325)
(9.39382 0 6.03939)
(9.47817 0 6.60128)
(9.6132 0 7.21171)
(9.81575 0 7.87037)
(10.1086 0 8.57023)
(10.5005 0 9.29668)
(11.0584 0 10.0396)
(11.8522 0 10.6859)
(9.99792 0 0.154942)
(9.99101 0 0.307983)
(9.97884 0 0.461333)
(9.96212 0 0.616998)
(9.94151 0 0.776644)
(9.91746 0 0.941777)
(9.89041 0 1.11383)
(9.86083 0 1.29419)
(9.82929 0 1.48419)
(9.79643 0 1.68515)
(9.76295 0 1.89835)
(9.72967 0 2.1251)
(9.6975 0 2.36674)
(9.66753 0 2.62465)
(9.64101 0 2.90028)
(9.61942 0 3.19516)
(9.60454 0 3.51095)
(9.59855 0 3.84943)
(9.60414 0 4.21251)
(9.6247 0 4.60225)
(9.66455 0 5.02076)
(9.72921 0 5.47005)
(9.82578 0 5.95176)
(9.96319 0 6.46657)
(10.1525 0 7.01343)
(10.4069 0 7.58849)
(10.7436 0 8.18363)
(11.1743 0 8.78419)
(11.7221 0 9.37859)
(12.4761 0 9.8919)
(9.99845 0 0.157516)
(9.9933 0 0.313072)
(9.98427 0 0.468854)
(9.97194 0 0.626834)
(9.9569 0 0.788647)
(9.93962 0 0.955759)
(9.92055 0 1.12956)
(9.90023 0 1.31136)
(9.87926 0 1.50243)
(9.85835 0 1.704)
(9.83828 0 1.91726)
(9.81996 0 2.14338)
(9.80442 0 2.38355)
(9.79288 0 2.63893)
(9.78673 0 2.91075)
(9.78764 0 3.20022)
(9.79756 0 3.50859)
(9.81887 0 3.83711)
(9.85442 0 4.18699)
(9.90772 0 4.55938)
(9.98305 0 4.95516)
(10.0856 0 5.37482)
(10.2218 0 5.81811)
(10.3991 0 6.28356)
(10.6264 0 6.76794)
(10.9134 0 7.26548)
(11.2713 0 7.76695)
(11.7082 0 8.25681)
(12.2249 0 8.71835)
(12.9017 0 9.11001)
(9.99898 0 0.159384)
(9.9956 0 0.316757)
(9.98971 0 0.474255)
(9.98177 0 0.633807)
(9.97229 0 0.797005)
(9.96174 0 0.96526)
(9.9506 0 1.1399)
(9.93943 0 1.32217)
(9.92888 0 1.51325)
(9.9197 0 1.71427)
(9.91274 0 1.92628)
(9.90896 0 2.15034)
(9.90949 0 2.38742)
(9.9156 0 2.6385)
(9.9288 0 2.90452)
(9.95083 0 3.18635)
(9.98371 0 3.48482)
(10.0299 0 3.80066)
(10.0921 0 4.13442)
(10.1738 0 4.48641)
(10.279 0 4.85652)
(10.4121 0 5.24406)
(10.5786 0 5.64746)
(10.7843 0 6.06391)
(11.0357 0 6.48893)
(11.3392 0 6.91582)
(11.701 0 7.33523)
(12.1252 0 7.73374)
(12.6057 0 8.09675)
(13.212 0 8.40369)
(9.99951 0 0.160515)
(9.99789 0 0.31897)
(9.9951 0 0.477439)
(9.99151 0 0.637794)
(9.98753 0 0.801567)
(9.98362 0 0.970109)
(9.98028 0 1.14467)
(9.97808 0 1.32643)
(9.97769 0 1.51645)
(9.9799 0 1.71575)
(9.98559 0 1.92526)
(9.99577 0 2.14586)
(10.0116 0 2.37835)
(10.0344 0 2.62347)
(10.0656 0 2.88188)
(10.1071 0 3.15413)
(10.1608 0 3.44064)
(10.229 0 3.74164)
(10.3145 0 4.05712)
(10.4201 0 4.3867)
(10.5495 0 4.72953)
(10.7063 0 5.08408)
(10.8947 0 5.44796)
(11.1191 0 5.81766)
(11.3837 0 6.18826)
(11.6924 0 6.55322)
(12.048 0 6.90423)
(12.452 0 7.23097)
(12.8969 0 7.52226)
(13.4407 0 7.76677)
(10 0 0.160879)
(10.0001 0 0.319657)
(10.0004 0 0.478327)
(10.0011 0 0.638692)
(10.0025 0 0.802215)
(10.0051 0 0.970176)
(10.0093 0 1.14375)
(10.0158 0 1.324)
(10.0252 0 1.51191)
(10.0384 0 1.70836)
(10.0561 0 1.91415)
(10.0795 0 2.12999)
(10.1097 0 2.3565)
(10.1479 0 2.59417)
(10.1957 0 2.84341)
(10.2548 0 3.10445)
(10.327 0 3.37735)
(10.4144 0 3.66193)
(10.5194 0 3.95771)
(10.6447 0 4.2638)
(10.793 0 4.57882)
(10.9673 0 4.90076)
(11.1706 0 5.22681)
(11.406 0 5.55326)
(11.6759 0 5.87536)
(11.9824 0 6.18725)
(12.3261 0 6.48206)
(12.7069 0 6.75193)
(13.1171 0 6.98849)
(13.6055 0 7.18488)
(10.0005 0 0.160456)
(10.0023 0 0.318775)
(10.0056 0 0.47686)
(10.0104 0 0.636428)
(10.0171 0 0.798867)
(10.0259 0 0.965376)
(10.0375 0 1.13704)
(10.0523 0 1.31482)
(10.0711 0 1.4996)
(10.0946 0 1.69213)
(10.1237 0 1.89307)
(10.1594 0 2.10295)
(10.2028 0 2.32221)
(10.2552 0 2.55114)
(10.3179 0 2.78989)
(10.3925 0 3.03843)
(10.4808 0 3.29651)
(10.5845 0 3.56362)
(10.7056 0 3.83893)
(10.8464 0 4.12121)
(11.0089 0 4.40877)
(11.1954 0 4.69935)
(11.408 0 4.99006)
(11.6484 0 5.27733)
(11.918 0 5.55686)
(12.2174 0 5.82367)
(12.5461 0 6.0722)
(12.9028 0 6.29656)
(13.2804 0 6.49068)
(13.7208 0 6.65039)
(10.001 0 0.15923)
(10.0044 0 0.316296)
(10.0106 0 0.472997)
(10.0194 0 0.630956)
(10.0311 0 0.791477)
(10.0459 0 0.955671)
(10.0645 0 1.12453)
(10.0872 0 1.29891)
(10.1148 0 1.47959)
(10.148 0 1.66718)
(10.1877 0 1.86221)
(10.2347 0 2.06505)
(10.2902 0 2.27597)
(10.3553 0 2.49507)
(10.4312 0 2.72229)
(10.5193 0 2.95737)
(10.6212 0 3.19982)
(10.7383 0 3.44889)
(10.8723 0 3.70352)
(11.0248 0 3.96227)
(11.1975 0 4.22331)
(11.3919 0 4.48436)
(11.6092 0 4.74264)
(11.8503 0 4.99489)
(12.1156 0 5.23739)
(12.4049 0 5.46604)
(12.717 0 5.67649)
(13.0501 0 5.86439)
(13.398 0 6.02548)
(13.7972 0 6.15724)
(10.0015 0 0.157193)
(10.0065 0 0.312205)
(10.0154 0 0.46672)
(10.028 0 0.62226)
(10.0445 0 0.780037)
(10.065 0 0.94107)
(10.0901 0 1.10625)
(10.1203 0 1.27635)
(10.1561 0 1.452)
(10.1983 0 1.63372)
(10.2476 0 1.82189)
(10.305 0 2.01676)
(10.3712 0 2.21842)
(10.4475 0 2.42682)
(10.5348 0 2.64172)
(10.6345 0 2.86268)
(10.7476 0 3.08905)
(10.8754 0 3.31991)
(11.0193 0 3.55407)
(11.1804 0 3.79001)
(11.3598 0 4.02591)
(11.5584 0 4.25956)
(11.7769 0 4.48843)
(12.0154 0 4.70967)
(12.2739 0 4.92016)
(12.5515 0 5.11661)
(12.8467 0 5.2957)
(13.1575 0 5.45426)
(13.4787 0 5.58937)
(13.8424 0 5.69951)
(10.0019 0 0.154345)
(10.0084 0 0.306501)
(10.0199 0 0.458033)
(10.0362 0 0.610352)
(10.0571 0 0.764575)
(10.083 0 0.921628)
(10.1142 0 1.0823)
(10.1513 0 1.24727)
(10.1947 0 1.41705)
(10.245 0 1.59206)
(10.3031 0 1.77254)
(10.3696 0 1.95863)
(10.4454 0 2.15028)
(10.5313 0 2.3473)
(10.6284 0 2.54934)
(10.7375 0 2.75581)
(10.8597 0 2.96595)
(10.9959 0 3.17877)
(11.147 0 3.39301)
(11.3138 0 3.60719)
(11.497 0 3.81954)
(11.6971 0 4.02805)
(11.9141 0 4.23049)
(12.1479 0 4.42443)
(12.3979 0 4.60732)
(12.663 0 4.77659)
(12.9416 0 4.92975)
(13.2318 0 5.0645)
(13.529 0 5.17888)
(13.8622 0 5.27201)
(10.0024 0 0.150691)
(10.0102 0 0.299199)
(10.0241 0 0.446959)
(10.0438 0 0.595272)
(10.0689 0 0.745156)
(10.0997 0 0.897442)
(10.1366 0 1.05283)
(10.18 0 1.21188)
(10.2302 0 1.37503)
(10.288 0 1.54256)
(10.3538 0 1.71465)
(10.4284 0 1.89129)
(10.5124 0 2.07234)
(10.6066 0 2.25752)
(10.7117 0 2.44635)
(10.8285 0 2.6382)
(10.9577 0 2.83224)
(11.1001 0 3.02743)
(11.2561 0 3.22255)
(11.4263 0 3.41618)
(11.611 0 3.6067)
(11.8102 0 3.79233)
(12.0239 0 3.97114)
(12.2514 0 4.14112)
(12.492 0 4.30024)
(12.7445 0 4.44651)
(13.0073 0 4.57807)
(13.2785 0 4.69333)
(13.5543 0 4.79094)
(13.8611 0 4.87049)
(10.0027 0 0.146244)
(10.0119 0 0.290323)
(10.0281 0 0.433543)
(10.0508 0 0.577088)
(10.0798 0 0.721878)
(10.1152 0 0.868651)
(10.1572 0 1.01801)
(10.2063 0 1.17043)
(10.2627 0 1.32625)
(10.327 0 1.48567)
(10.3996 0 1.64875)
(10.4811 0 1.81542)
(10.5721 0 1.98545)
(10.6731 0 2.15848)
(10.7847 0 2.33398)
(10.9075 0 2.51127)
(11.042 0 2.6895)
(11.1885 0 2.86767)
(11.3476 0 3.04462)
(11.5192 0 3.21902)
(11.7036 0 3.38945)
(11.9004 0 3.55435)
(12.1093 0 3.71211)
(12.3296 0 3.8611)
(12.5604 0 3.9997)
(12.8005 0 4.12641)
(13.0483 0 4.23989)
(13.3022 0 4.339)
(13.559 0 4.42288)
(13.8428 0 4.49136)
(10.0031 0 0.141023)
(10.0134 0 0.279912)
(10.0317 0 0.417844)
(10.0573 0 0.555889)
(10.0898 0 0.694867)
(10.1293 0 0.835427)
(10.1759 0 0.978086)
(10.23 0 1.12323)
(10.2919 0 1.27111)
(10.3619 0 1.42185)
(10.4403 0 1.57544)
(10.5277 0 1.73174)
(10.6245 0 1.89046)
(10.731 0 2.05119)
(10.8477 0 2.21338)
(10.975 0 2.37633)
(11.1131 0 2.53923)
(11.2623 0 2.70111)
(11.4227 0 2.8609)
(11.5943 0 3.01744)
(11.7768 0 3.16946)
(11.97 0 3.31565)
(12.1733 0 3.45468)
(12.3859 0 3.58524)
(12.6068 0 3.70609)
(12.8349 0 3.81609)
(13.0688 0 3.91428)
(13.307 0 3.99988)
(13.5468 0 4.07235)
(13.8105 0 4.13169)
(10.0034 0 0.135051)
(10.0148 0 0.268014)
(10.035 0 0.39994)
(10.0632 0 0.531785)