/*--------------------------------*- C++ -*----------------------------------*\
  =========                 |
  \\      /  F ield         | OpenFOAM: The Open Source CFD Toolbox
   \\    /   O peration     | Website:  https://openfoam.org
    \\  /    A nd           | Version:  dev
     \\/     M anipulation  |
\*---------------------------------------------------------------------------*/
FoamFile
{
    version     2.0;
    format      ascii;
    class       volScalarField;
    location    "6.7";
    object      p;
}
// * * * * * * * * * * * * * * * * * * * * * * * * * * * * * * * * * * * * * //

dimensions      [0 2 -2 0 0 0 0];

internalField   nonuniform List<scalar> 
2790
(
146.815
146.722
146.989
147.56
148.34
149.298
150.43
151.737
153.213
154.854
156.654
158.605
160.698
162.923
165.264
167.699
170.204
172.743
175.275
177.749
180.107
182.285
184.215
185.836
187.095
187.969
188.406
188.461
188.512
188.725
146.612
146.63
146.922
147.49
148.266
149.22
150.348
151.649
153.118
154.751
156.541
158.481
160.564
162.778
165.108
167.533
170.029
172.562
175.093
177.571
179.939
182.134
184.089
185.737
187.022
187.896
188.293
188.348
188.48
188.765
146.413
146.501
146.812
147.37
148.133
149.075
150.188
151.47
152.918
154.526
156.288
158.197
160.245
162.421
164.709
167.091
169.543
172.034
174.526
176.973
179.323
181.516
183.488
185.178
186.529
187.505
188.098
188.453
188.768
189.067
146.188
146.307
146.631
147.18
147.928
148.853
149.947
151.205
152.624
154.198
155.922
157.787
159.786
161.907
164.135
166.453
168.837
171.26
173.688
176.078
178.385
180.557
182.539
184.278
185.733
186.885
187.753
188.424
188.977
189.496
145.928
146.06
146.392
146.934
147.666
148.57
149.638
150.865
152.246
153.778
155.452
157.261
159.197
161.247
163.399
165.635
167.933
170.268
172.61
174.923
177.168
179.303
181.285
183.076
184.646
185.989
187.119
188.082
188.893
189.639
145.627
145.765
146.1
146.631
147.343
148.221
149.257
150.446
151.784
153.263
154.878
156.621
158.482
160.45
162.511
164.649
166.844
169.073
171.31
173.526
175.688
177.766
179.728
181.548
183.211
184.713
186.059
187.265
188.285
189.203
145.284
145.423
145.755
146.274
146.963
147.811
148.81
149.955
151.241
152.661
154.208
155.873
157.648
159.521
161.478
163.504
165.58
167.686
169.799
171.895
173.95
175.941
177.849
179.659
181.365
182.966
184.46
185.839
187.003
188.05
144.9
145.037
145.361
145.863
146.527
147.34
148.298
149.393
150.621
151.974
153.444
155.024
156.702
158.468
160.309
162.208
164.149
166.113
168.081
170.033
171.95
173.818
175.625
177.367
179.045
180.664
182.219
183.692
184.941
186.092
144.473
144.607
144.92
145.403
146.038
146.814
147.725
148.765
149.929
151.208
152.594
154.078
155.65
157.299
159.009
160.768
162.557
164.361
166.16
167.939
169.683
171.381
173.029
174.629
176.191
177.726
179.234
180.705
181.976
183.214
144.007
144.135
144.435
144.896
145.498
146.233
147.094
148.075
149.168
150.367
151.662
153.043
154.5
156.02
157.59
159.194
160.815
162.437
164.043
165.617
167.145
168.62
170.038
171.406
172.739
174.058
175.378
176.716
177.917
179.221
143.502
143.623
143.908
144.344
144.912
145.602
146.409
147.326
148.345
149.458
150.655
151.926
153.259
154.642
156.06
157.496
158.933
160.354
161.741
163.075
164.343
165.533
166.641
167.669
168.633
169.562
170.493
171.492
172.454
173.773
142.959
143.074
143.342
143.751
144.281
144.925
145.675
146.524
147.464
148.486
149.58
150.735
151.938
153.175
154.43
155.686
156.925
158.126
159.268
160.33
161.291
162.134
162.842
163.408
163.835
164.145
164.389
164.697
165.08
166.253
142.383
142.489
142.739
143.119
143.61
144.205
144.894
145.673
146.53
147.458
148.444
149.477
150.544
151.628
152.713
153.78
154.807
155.771
156.646
157.405
158.018
158.452
158.674
158.65
158.347
157.75
156.876
155.886
154.939
155.445
141.773
141.872
142.102
142.451
142.902
143.445
144.073
144.778
145.55
146.38
147.255
148.163
149.089
150.015
150.924
151.793
152.598
153.312
153.903
154.335
154.565
154.542
154.203
153.471
152.249
150.421
147.86
144.561
140.617
138.585
141.134
141.224
141.434
141.751
142.16
142.65
143.214
143.844
144.529
145.259
146.021
146.8
147.582
148.347
149.075
149.742
150.319
150.775
151.071
151.162
150.988
150.478
149.533
148.018
145.74
142.409
137.568
130.556
120.104
107.897
0.797545
0.777517
0.710198
0.618507
0.525113
0.441212
0.370364
0.312576
0.266381
0.229757
0.200219
0.176793
0.1577
0.14153
0.12728
0.114279
0.102027
0.0902154
0.0786976
0.0674944
0.0567647
0.0467071
0.037449
0.0289972
0.0213081
0.0144481
0.00867197
0.00428615
0.00140706
-0.000391373
0.751182
0.728931
0.665867
0.581575
0.495829
0.418514
0.352977
0.299371
0.256403
0.222246
0.19542
0.173653
0.155654
0.140265
0.126533
0.113882
0.101828
0.090094
0.0785543
0.0672668
0.0564502
0.0463496
0.0371015
0.0286755
0.0209735
0.0140627
0.00827619
0.00394108
0.0012674
0.000234808
0.699666
0.673338
0.612941
0.535598
0.458159
0.388582
0.329693
0.281627
0.243152
0.212554
0.188222
0.1685
0.152117
0.137965
0.125199
0.11314
0.101446
0.0898747
0.0783088
0.0668654
0.0558789
0.0456875
0.0364438
0.0280357
0.0202349
0.0130432
0.0069697
0.00275001
0.000620223
0.000409391
0.649671
0.619041
0.560382
0.488933
0.419254
0.357177
0.304929
0.262492
0.228574
0.201509
0.17985
0.162317
0.147668
0.134796
0.122908
0.111476
0.100194
0.0888596
0.0773372
0.0657987
0.0547303
0.0445701
0.0354951
0.0273005
0.0195779
0.0123006
0.00615347
0.00191656
-0.00026849
-0.000477306
0.614284
0.579373
0.522107
0.454756
0.390701
0.333997
0.286544
0.248184
0.21751
0.192875
0.173073
0.15711
0.14373
0.131801
0.120593
0.109673
0.0987597
0.0877066
0.0762796
0.064689
0.0536015
0.0435109
0.0345435
0.0264971
0.0188274
0.0113744
0.00525914
0.00144763
-0.000134909
-0.000615678
0.605604
0.565291
0.508643
0.442383
0.380293
0.325384
0.279545
0.242553
0.212862
0.188811
0.169488
0.154145
0.14123
0.12958
0.11868
0.107982
0.0971623
0.0862832
0.0749279
0.0634068
0.0525766
0.0430033
0.0345794
0.0267689
0.0191633
0.0116592
0.00487214
0.000466805
-0.0011471
-0.000985774
0.634634
0.586347
0.527483
0.457526
0.391769
0.333709
0.285379
0.246445
0.215221
0.18991
0.169658
0.154112
0.14158
0.129847
0.118685
0.107876
0.0971176
0.0857441
0.0739117
0.062032
0.0508383
0.0411156
0.0328492
0.0253913
0.01818
0.0111754
0.00495146
0.000614705
-0.00152072
-0.00114089
0.706788
0.648543
0.579608
0.499573
0.423852
0.357626
0.303056
0.25961
0.225404
0.197837
0.174777
0.155668
0.14039
0.127963
0.116646
0.105753
0.0949645
0.0839369
0.0726467
0.0612617
0.0503109
0.0404213
0.0317629
0.0240631
0.0169582
0.0103452
0.00451716
4.63721e-05
-0.00242143
-0.00139112
0.82131
0.74348
0.655614
0.559032
0.468649
0.390794
0.327284
0.276408
0.235357
0.202948
0.177691
0.157552
0.141196
0.127573
0.115433
0.103989
0.0928748
0.0818745
0.0708816
0.0598703
0.049052
0.0388408
0.0295928
0.0214872
0.0145345
0.00860182
0.00348975
-0.000806623
-0.00328727
-0.00161622
0.957898
0.847912
0.731517
0.614729
0.509486
0.418845
0.344963
0.287021
0.242234
0.207098
0.179421
0.15761
0.140251
0.12591
0.113178
0.101182
0.0896966
0.0787764
0.0683225
0.0579659
0.0473924
0.0366994
0.0264777
0.017588
0.0106627
0.00560022
0.00157169
-0.00207315
-0.00413895
-0.00181591
1.08018
0.934272
0.788877
0.647526
0.526444
0.42821
0.349925
0.288748
0.241805
0.2055
0.176975
0.154567
0.137039
0.122755
0.109883
0.0973701
0.08535
0.0744623
0.0647809
0.0554303
0.0452572
0.0338581
0.0221348
0.0119609
0.00495266
0.00111404
-0.00125132
-0.00366387
-0.00492813
-0.00198794
1.17668
0.978854
0.801351
0.643445
0.513868
0.412734
0.334812
0.275328
0.230502
0.196072
0.168625
0.14691
0.130451
0.117487
0.105286
0.0923411
0.0794793
0.0685461
0.0600853
0.0524139
0.0429722
0.0305294
0.0164399
0.00413907
-0.00315616
-0.00518194
-0.00496501
-0.00544063
-0.00561123
-0.00212612
1.1869
0.921239
0.720712
0.564033
0.445804
0.358726
0.292722
0.242358
0.205587
0.177589
0.153691
0.133784
0.119712
0.109892
0.0996229
0.086215
0.0717316
0.0604163
0.0538972
0.0491409
0.0411217
0.0271942
0.00938788
-0.00643046
-0.0144087
-0.0136935
-0.0094636
-0.00715374
-0.00613733
-0.00222516
0.943789
0.61214
0.470917
0.37963
0.305817
0.258754
0.221929
0.189036
0.166564
0.150613
0.132673
0.114544
0.103936
0.10016
0.0940571
0.07993
0.0620232
0.049314
0.0457795
0.0460786
0.0407454
0.0247158
0.00109955
-0.0204845
-0.0298906
-0.0249979
-0.0144867
-0.00831795
-0.00641313
-0.0022809
0.254833
-0.138319
-0.0478651
0.0732968
0.0853764
0.120276
0.135044
0.118068
0.110484
0.115404
0.107774
0.0896633
0.0825877
0.0891143
0.0908573
0.0748603
0.0495283
0.0330497
0.0342124
0.0435158
0.043277
0.0243661
-0.00817913
-0.0390425
-0.0512324
-0.0399936
-0.0195295
-0.00800768
-0.00624382
-0.00229122
140.455
140.536
140.724
141.009
141.373
141.809
142.306
142.858
143.453
144.08
144.725
145.373
146.006
146.606
147.148
147.607
147.951
148.142
148.136
147.876
147.289
146.28
144.716
142.402
139.04
134.134
126.765
115.019
92.8749
33.1502
139.728
139.799
139.965
140.215
140.534
140.912
141.341
141.812
142.313
142.833
143.358
143.87
144.351
144.781
145.134
145.381
145.487
145.41
145.099
144.489
143.496
142.005
139.859
136.826
132.548
126.44
117.472
103.908
84.3835
55.917
138.958
139.02
139.162
139.376
139.648
139.967
140.325
140.713
141.119
141.531
141.932
142.306
142.634
142.893
143.056
143.091
142.961
142.621
142.015
141.072
139.701
137.781
135.148
131.571
126.724
120.154
111.268
99.4261
85.1761
68.5209
138.148
138.199
138.318
138.495
138.718
138.977
139.263
139.567
139.876
140.178
140.456
140.692
140.867
140.956
140.931
140.759
140.401
139.81
138.928
137.682
135.98
133.706
130.707
126.787
121.698
115.147
106.838
96.4345
83.8741
68.7153
137.298
137.339
137.433
137.573
137.746
137.945
138.158
138.378
138.59
138.782
138.937
139.038
139.061
138.984
138.778
138.408
137.835
137.011
135.879
134.368
132.393
129.847
126.601
122.498
117.358
110.981
103.166
93.6698
82.3237
69.3343
136.411
136.442
136.511
136.613
136.737
136.874
137.016
137.151
137.267
137.351
137.385
137.352
137.229
136.993
136.613
136.058
135.286
134.253
132.904
131.172
128.983
126.243
122.849
118.68
113.607
107.494
100.219
91.682
81.8725
71.2032
135.49
135.51
135.555
135.619
135.694
135.771
135.84
135.892
135.914
135.891
135.808
135.646
135.384
134.996
134.456
133.729
132.78
131.564
130.031
128.124
125.776
122.913
119.453
115.309
110.394
104.627
97.9557
90.3674
81.9054
72.9057
134.538
134.548
134.568
134.595
134.621
134.638
134.637
134.607
134.537
134.412
134.217
133.932
133.538
133.01
132.321
131.441
130.335
128.964
127.283
125.243
122.789
119.863
116.404
112.352
107.654
102.271
96.187
89.4236
82.0301
74.2789
133.559
133.558
133.554
133.544
133.522
133.481
133.411
133.303
133.144
132.922
132.619
132.22
131.703
131.046
130.225
129.21
127.971
126.472
124.677
122.543
120.027
117.087
113.678
109.764
105.314
100.315
94.7717
88.7187
82.2096
75.4721
132.556
132.545
132.518
132.472
132.404
132.306
132.17
131.987
131.744
131.429
131.026
130.52
129.891
129.119
128.18
127.05
125.7
124.101
122.221
120.028
117.489
114.573
111.25
107.5
103.31
98.6798
93.628
88.1938
82.4301
76.5221
131.534
131.513
131.464
131.384
131.271
131.119
130.92
130.665
130.343
129.942
129.447
128.844
128.114
127.24
126.2
124.972
123.533
121.859
119.923
117.7
115.168
112.303
109.091
105.519
101.587
97.3045
92.6947
87.7971
82.6598
77.4311
130.498
130.468
130.397
130.284
130.129
129.926
129.668
129.346
128.95
128.469
127.89
127.199
126.38
125.417
124.292
122.985
121.478
119.75
117.781
115.554
113.051
110.259
107.171
103.782
100.1
96.1383
91.9221
87.4881
82.878
78.2113
129.453
129.415
129.323
129.179
128.984
128.733
128.42
128.036
127.572
127.019
126.364
125.596
124.7
123.661
122.466
121.097
119.539
117.777
115.795
113.582
111.126
108.421
105.463
102.257
98.8101
95.1407
91.2729
87.2392
83.0756
78.8781
128.406
128.359
128.248
128.076
127.843
127.548
127.183
126.743
126.218
125.599
124.878
124.042
123.079
121.978
120.726
119.31
117.718
115.939
113.961
111.776
109.38
106.768
103.944
100.912
97.6851
94.2799
90.7194
87.0319
83.2478
79.445
127.362
127.308
127.179
126.979
126.712
126.376
125.965
125.473
124.893
124.218
123.437
122.543
121.525
120.374
119.078
117.629
116.017
114.233
112.271
110.127
107.797
105.284
102.59
99.7239
96.6988
93.5309
90.2408
86.853
83.393
79.9241
126.328
126.266
126.121
125.897
125.599
125.225
124.772
124.235
123.606
122.88
122.05
121.107
120.044
118.853
117.525
116.054
114.433
112.657
110.721
108.624
106.365
103.949
101.382
98.6709
95.8299
92.8739
89.8215
86.6934
83.5112
80.3264
125.31
125.242
125.082
124.835
124.509
124.102
123.612
123.034
122.363
121.594
120.721
119.739
118.64
117.418
116.069
114.586
112.966
111.205
109.302
107.256
105.071
102.751
100.303
97.7354
95.061
92.2938
89.4499
86.5472
83.6037
80.6619
124.315
124.241
124.068
123.802
123.45
123.014
122.491
121.878
121.171
120.365
119.458
118.443
117.316
116.073
114.71
113.224
111.612
109.873
108.007
106.016
103.904
101.676
99.3388
96.9026
94.3783
91.7786
89.1176
86.4106
83.6728
80.9392
123.351
123.272
123.087
122.803
122.429
121.967
121.416
120.773
120.035
119.199
118.263
117.223
116.076
114.819
113.45
111.966
110.368
108.655
106.83
104.894
102.852
100.711
98.4775
96.1606
93.7707
91.3191
88.8183
86.2813
83.721
81.1663
122.424
122.341
122.146
121.846
121.453
120.969
120.393
119.725
118.961
118.102
117.143
116.085
114.923
113.658
112.288
110.813
109.232
107.549
105.764
103.882
101.908
99.848
97.7091
95.4997
93.2295
90.9085
88.5477
86.1582
83.7511
81.3504
121.544
121.456
121.252
120.939
120.529
120.026
119.43
118.74
117.956
117.077
116.102
115.029
113.859
112.591
111.225
109.761
108.201
106.548
104.804
102.975
101.064
99.0783
97.0251
94.9121
92.7479
90.5416
88.3028
86.0411
83.7661
81.4977
120.716
120.625
120.413
120.088
119.664
119.145
118.532
117.826
117.025
116.131
115.143
114.062
112.887
111.619
110.26
108.81
107.273
105.65
103.946
102.165
100.313
98.3956
96.4194
94.392
92.3211
90.215
88.082
85.9307
83.7692
81.6144
119.949
119.856
119.636
119.302
118.866
118.334
117.707
116.987
116.173
115.268
114.271
113.184
112.008
110.744
109.394
107.96
106.444
104.852
103.185
101.45
99.6509
97.7944
95.8867
93.9345
91.9451
89.9258
87.8841
85.8275
83.7633
81.7053
119.252
119.156
118.931
118.588
118.141
117.598
116.961
116.229
115.406
114.492
113.49
112.401
111.226
109.967
108.627
107.209
105.716
104.151
102.519
100.825
99.0742
97.2717
95.4239
93.5372
91.6181
89.6735
87.7098
85.734
83.7523
81.7765
118.633
118.534
118.304
117.953
117.498
116.946
116.299
115.56
114.729
113.81
112.804
111.714
110.541
109.289
107.96
106.558
105.085
103.546
101.946
100.288
98.579
96.8234
95.0273
93.1966
91.3374
89.4559
87.5581
85.6499
83.7373
81.83
118.101
118
117.763
117.405
116.943
116.384
115.731
114.985
114.149
113.226
112.219
111.129
109.961
108.716
107.398
106.009
104.555
103.04
101.466
99.8403
98.1668
96.451
94.6985
92.9147
91.1055
89.2764
87.4331
85.5811
83.7256
81.8751
117.667
117.562
117.318
116.952
116.483
115.918
115.259
114.508
113.669
112.743
111.736
110.648
109.483
108.245
106.937
105.561
104.123
102.627
101.076
99.4767
97.8327
96.1494
94.4322
92.6863
90.9171
89.1299
87.33
85.5223
83.7117
81.9052
117.341
117.23
116.977
116.605
116.131
115.561
114.898
114.144
113.302
112.375
111.368
110.282
109.121
107.889
106.588
105.223
103.799
102.318
100.786
99.2068
97.586
95.9282
94.2386
92.5222
90.7842
89.0295
87.2632
85.49
83.7148
81.9434
117.139
117.004
116.734
116.356
115.88
115.308
114.642
113.886
113.043
112.117
111.11
110.026
108.868
107.641
106.347
104.99
103.574
102.104
100.585
99.0203
97.4152
95.7746
94.1034
92.4066
90.6891
88.9558
87.2114
85.4604
83.7073
81.9571
117.121
116.922
116.624
116.239
115.76
115.185
114.516
113.758
112.914
111.988
110.982
109.9
108.745
107.521
106.231
104.88
103.471
102.009
100.498
98.9431
97.3483
95.7189
94.0595
92.3751
90.6705
88.9503
87.2194
85.482
83.7426
82.0053
-50.5694
-30.3185
-11.1664
35.5412
28.0895
16.0416
51.0029
38.9066
27.6854
52.4321
42.0044
33.9557
56.7742
48.482
41.7206
61.1636
54.2515
48.3572
64.4397
58.556
53.505
67.0388
62.0122
57.7018
69.2301
64.8966
61.1868
71.08
67.3004
64.0727
72.6357
69.3048
66.4675
73.9465
70.9838
68.4651
75.0532
72.3952
70.139
75.9878
73.5847
71.5469
76.7771
74.5888
72.7344
77.4427
75.437
73.7378
78.0031
76.1535
74.5864
78.4735
76.7579
75.3037
78.8667
77.2666
75.9093
79.194
77.6934
76.4193
79.4647
78.0501
76.8475
79.6876
78.347
77.2056
79.8694
78.5921
77.503
80.018
78.7947
77.7498
80.136
78.958
77.9503
80.2352
79.0946
78.1169
80.307
79.1962
78.2433
80.3798
79.2918
78.3561
80.4139
79.3421
78.4205
80.483
79.4253
78.5101
-2.87288
-2.77047
-1.30347
-0.163159
-0.129225
-0.0333088
0.0306002
0.0085316
0.0250152
0.0855719
0.0968239
0.0642366
0.0510897
0.0727257
0.0915554
0.0729621
0.033688
0.00938388
0.0183527
0.0437624
0.0527252
0.0291716
-0.0176596
-0.0637309
-0.0813845
-0.0605372
-0.0237903
-0.00441798
-0.00512137
-0.00225768
2.26971
-0.649651
0.940053
0.411509
-0.926153
-0.686764
-0.0546247
-0.0122945
0.00468791
0.105745
0.0898927
-0.00169055
-0.0280705
0.0450592
0.116988
0.091343
0.0199553
-0.0259543
-0.0088049
0.0445736
0.0706555
0.039701
-0.0292323
-0.0990165
-0.126123
-0.0901966
-0.0256838
0.00620315
-0.00162942
-0.00220357
13.4185
5.05026
2.25198
-0.193011
-0.519641
0.906629
1.08901
-0.215123
-0.591813
-0.237891
0.109046
0.00809399
-0.0396635
0.0985158
0.190233
0.112796
-0.0261566
-0.111745
-0.0711653
0.0500744
0.117124
0.0715674
-0.0323734
-0.139693
-0.185698
-0.131144
-0.0221596
0.0307334
0.00766078
-0.0022226
23.1941
13.3103
7.43448
3.66431
1.93478
1.38533
0.191283
-0.482994
-0.124707
1.04353
0.946789
-0.136146
-0.520038
-0.312154
0.163946
0.210806
-0.0235415
-0.171026
-0.0941057
0.12014
0.202443
0.110511
-0.0508248
-0.216714
-0.296512
-0.216045
-0.0127409
0.0797011
0.0289848
-0.00260581
32.3693
22.5978
15.2763
9.98687
6.35594
3.88753
2.02568
1.02825
0.75733
0.756217
0.246149
-0.345313
-0.422336
0.491101
1.02521
0.435782
-0.160305
-0.49671
-0.453158
-0.0110909
0.288504
0.188987
-0.0429143
-0.276271
-0.390954
-0.240208
0.0265226
0.168617
0.0701475
-0.00410207
40.3521
31.4203
23.5304
17.0988
12.1758
8.53617
5.8695
3.99218
2.72297
1.81793
1.04999
0.457725
0.235755
0.505002
0.510833
0.259285
-0.204795
-0.513604
-0.269391
0.539321
0.727271
0.257253
-0.0902292
-0.415326
-0.648901
-0.58119
-0.0080856
0.296892
0.134986
-0.00913491
46.867
39.0565
31.2768
24.385
18.7617
14.3069
10.7892
8.03949
5.94668
4.37502
3.15546
2.19793
1.55986
1.23806
0.969755
0.629653
0.158407
-0.152263
-0.0479447
0.316527
0.447748
0.264098
-0.0627749
-0.441535
-0.69787
-0.418543
0.366501
0.566334
0.212695
-0.0221055
52.173
45.4376
38.1762
31.3446
25.4627
20.5204
16.384
12.9653
10.1985
7.98629
6.19998
4.75795
3.65814
2.87285
2.25845
1.6636
1.07482
0.660071
0.542494
0.621134
0.633638
0.425003
0.0589687
-0.313569
-0.511716
-0.302233
0.168911
0.404601
0.308972
-0.0629428
56.5013
50.6813
44.094
37.6189
31.8013
26.6917
22.2253
18.367
15.0873
12.3301
10.0198
8.09807
6.53575
5.29075
4.26575
3.36259
2.56959
1.95951
1.58645
1.38729
1.18813
0.861487
0.448366
0.0742278
-0.124083
-0.0343437
0.244182
0.398536
0.265757
-0.301792
60.0335
54.9635
49.0586
43.0724
37.5187
32.4754
27.9134
23.8284
20.2218
17.075
14.351
12.0115
10.024
8.34928
6.92567
5.69351
4.63208
3.76209
3.09912
2.59695
2.14698
1.66616
1.16973
0.73673
0.457362
0.387575
0.454379
0.439793
0.177389
-0.516852
62.9345
58.4734
53.1916
47.7225
42.5264
37.6867
33.1908
29.0501
25.2855
21.9025
18.8893
16.2254
13.8882
11.8499
10.0726
8.5178
7.16285
6.00534
5.04157
4.23703
3.52572
2.85309
2.21707
1.66058
1.23714
0.970724
0.802371
0.58316
0.175717
-0.592206
65.3374
61.3726
56.6335
51.654
46.8396
42.2692
37.9357
33.8564
30.0609
26.5679
23.381
20.4945
17.8974
15.5739
13.5016
11.6559
10.018
8.57769
7.32388
6.23067
5.25644
4.36406
3.54414
2.81589
2.20607
1.71964
1.30957
0.874473
0.311651
-0.521712
67.3418
63.7857
59.51
54.9708
50.525
46.2431
42.1191
38.1701
34.4278
30.917
27.65
24.6311
21.8586
19.3262
17.0225
14.9333
13.0453
11.3475
9.82808
8.46758
7.23867
6.11566
5.08704
4.15757
3.33638
2.6182
1.96615
1.311
0.581188
-0.330865
69.0231
65.807
61.9252
57.7727
53.6655
49.6658
45.7661
41.9813
38.3417
34.8736
31.594
28.5127
25.6344
22.9596
20.4848
18.2032
16.1067
14.1869
12.4338
10.8334
9.3672
8.01718
6.7719
5.62828
4.58531
3.633
2.74267
1.86713
0.959067
-0.0555853
70.4391
67.5085
63.9619
60.1458
56.3421
52.6056
48.9272
45.3182
41.8062
38.4169
35.1688
32.0745
29.1428
26.3788
23.7839
21.3568
19.0937
16.9895
15.0372
13.2271
11.5465
9.98272
8.52528
7.16767
5.90384
4.72226
3.60066
2.5067
1.40981
0.264158
71.6352
68.9456
65.6853
62.1607
58.6259
55.1291
51.6596
48.2252
44.8501
41.5585
38.3686
35.2943
32.3464
29.5326
26.858
24.3245
21.9322
19.6787
17.5601
15.5699
13.6999
11.9407
10.2836
8.72099
7.24484
5.84374
4.50013
3.19128
1.89689
0.592809
72.6469
70.1619
67.1468
63.875
60.5768
57.2952
54.0181
50.7502
47.5123
44.3262
41.2094
38.1756
35.2366
32.4016
29.6775
27.069
24.5784
22.2059
19.9501
17.8073
15.7722
13.8381
11.9978
10.244
8.56842
6.96034
5.40551
3.88693
2.38968
0.904718
73.503
71.1923
68.3877
65.3349
62.2442
59.1543
56.0518
52.9389
49.8331
46.7538
43.7169
40.7358
37.822
34.9856
32.2346
29.575
27.011
24.5448
22.1768
19.9055
17.7277
15.6389
13.6333
11.7044
9.84431
8.04321
6.28893
4.56762
2.86637
1.18541
74.2269
72.0648
69.4412
66.5783
63.6691
60.7488
57.8032
54.8322
51.8505
48.8749
45.9198
42.9976
40.1194
37.2952
34.5334
31.8412
29.2236
26.6842
24.225
21.846
19.5458
17.3213
15.1682
13.0807
11.0516
9.07195
7.1308
5.21566
3.31372
1.42985
74.838
72.8027
70.3347
67.6363
64.8854
62.1144
59.3087
56.4661
53.5988
50.7214
47.8466
44.9856
42.1487
39.3456
36.5848
33.8736
31.2179
28.6222
26.0893
23.6206
21.2158
18.8732
16.5894
14.3595
12.1769
10.0334
7.91864
5.82046
3.72524
1.63935
75.3523
73.4253
71.091
68.5346
65.9213
63.2811
60.5991
57.8714
55.1081
52.3218
49.5235
46.7232
43.9303
41.1538
38.4019
35.6821
33.0004
30.3618
27.7699
25.2268
22.7333
20.2885
17.8898
15.533
13.2123
10.9196
8.64501
6.37624
4.09858
1.81808
75.7838
73.9488
71.7291
69.295
66.8008
64.2745
61.7008
59.0751
56.4051
53.7017
50.9746
48.2325
45.4838
42.7367
39.9991
37.278
34.5795
31.909
29.2703
26.6661
24.0978
21.5652
19.0663
16.5975
14.1534
11.7262
9.30613
6.88064
4.434
1.97097
76.1436
74.3864
72.2644
69.9351
67.5433
65.1152
62.6359
60.0994
57.512
54.883
52.2208
49.533
46.8269
44.11
41.3895
38.6722
35.964
33.2701
30.5946
27.9407
25.3099
22.7024
20.117
17.5503
14.9971
12.4501
9.89935
7.33203
4.73176
2.10146
76.4426
74.7508
72.7115
70.4712
68.1665
65.8224
63.424
60.9647
58.4494
55.886
53.2818
50.6432
47.9768
45.2893
42.5872
39.8769
37.1639
34.4534
31.7494
29.0553
26.3727
23.7023
21.043
18.3917
15.7436
13.0913
10.4249
7.73147
4.99402
2.2133
76.6869
75.0496
73.0792
70.9134
68.6819
66.4085
64.0787
61.685
59.2313
56.7245
54.1708
51.5758
48.9452
46.285
43.6011
40.8993
38.1849
35.4628
32.7371
30.0108
27.286
24.5633
21.8418
19.1188
16.3893
13.6462
10.8795
8.07602
5.21874
2.30608
76.8885
75.2953
73.3817
71.2771
69.1058
66.8907
64.6175
62.2784
59.8763
57.417
54.9061
52.3484
49.749
47.113
44.446
41.7531
39.0395
36.3097
33.5676
30.8162
28.0575
25.2922
22.5196
19.7368
16.9393
14.1197
11.268
8.37105
5.41156
2.38493
77.044
75.4857
73.6169
71.5609
69.4374
67.2687
65.0408
62.7454
60.3846
57.9638
55.4877
52.9605
50.3868
47.7712
45.1187
42.4342
39.7223
36.9873
34.233
31.4624
28.6773
25.8784
23.065
20.2344
17.3818
14.5001
11.5792
8.60572
5.56256
2.44284
77.1758
75.6431
73.8084
71.7894
69.7019
67.5684
65.3747
63.1125
60.7833
58.3918
55.9423
53.4387
50.8849
48.2853
45.6444
42.9667
40.2566
37.5183
34.7553
31.9704
29.1655
26.3412
23.4968
20.6296
17.7348
14.8051
11.8304
8.79714
5.68801
2.49235
77.2568
75.7404
73.9279
71.9339
69.8709
67.7608
65.5901
63.3501
61.042
58.6703
56.2388
53.751
51.2108
48.622
45.9891
43.3162
40.6076
37.8673
35.0986
32.3044
29.4863
26.6451
23.7798
20.8879
17.9645
15.0021
11.9904
8.91559
5.7603
2.51226
77.3458
75.8304
74.0302
72.0513
70.0019
67.9044
65.7458
63.5175
61.2205
58.8588
56.4363
53.9564
51.4225
48.8387
46.209
43.5377
40.8289
38.0864
35.3136
32.5132
29.687
26.8357
23.9583
21.0522
18.1126
15.1318
12.0992
9.0001
5.81456
2.5187
)
;

boundaryField
{
    inlet
    {
        type            zeroGradient;
    }
    outlet
    {
        type            fixedValue;
        value           uniform 0;
    }
    flap
    {
        type            zeroGradient;
    }
    upperWall
    {
        type            zeroGradient;
    }
    lowerWall
    {
        type            zeroGradient;
    }
    frontAndBack
    {
        type            empty;
    }
}


// ************************************************************************* //
