/*--------------------------------*- C++ -*----------------------------------*\
  =========                 |
  \\      /  F ield         | OpenFOAM: The Open Source CFD Toolbox
   \\    /   O peration     | Website:  https://openfoam.org
    \\  /    A nd           | Version:  dev
     \\/     M anipulation  |
\*---------------------------------------------------------------------------*/
FoamFile
{
    version     2.0;
    format      ascii;
    class       surfaceVectorField;
    location    "6.7";
    object      Uf;
}
// * * * * * * * * * * * * * * * * * * * * * * * * * * * * * * * * * * * * * //

dimensions      [0 1 -1 0 0 0 0];

internalField   nonuniform List<vector> 
5457
(
(9.92088 0 0.0251095)
(9.97125 0 0.0387456)
(9.82402 0 0.0328266)
(9.92859 0 0.0485848)
(9.70961 0 0.0393118)
(9.85548 0 0.0587677)
(9.57544 0 0.0460113)
(9.7568 0 0.0705929)
(9.42138 0 0.0529487)
(9.63754 0 0.0830129)
(9.24755 0 0.060166)
(9.49862 0 0.095936)
(9.05363 0 0.0678108)
(9.33931 0 0.109612)
(8.83893 0 0.0760345)
(9.15875 0 0.124289)
(8.60253 0 0.0849703)
(8.9561 0 0.140167)
(8.34327 0 0.0947451)
(8.73039 0 0.157434)
(8.05985 0 0.105488)
(8.48041 0 0.176271)
(7.75081 0 0.117329)
(8.20478 0 0.196858)
(7.41456 0 0.130397)
(7.90195 0 0.219364)
(7.0495 0 0.144812)
(7.57031 0 0.243926)
(6.65403 0 0.160675)
(7.20819 0 0.270636)
(6.22671 0 0.178047)
(6.81399 0 0.299505)
(5.76642 0 0.196931)
(6.38633 0 0.330419)
(5.27256 0 0.217237)
(5.92416 0 0.36309)
(4.74536 0 0.238739)
(5.42709 0 0.396982)
(4.18619 0 0.261036)
(4.89564 0 0.431243)
(3.59795 0 0.283491)
(4.33163 0 0.464625)
(2.98554 0 0.305205)
(3.73859 0 0.495429)
(2.3561 0 0.325071)
(3.12226 0 0.521516)
(1.71909 0 0.342549)
(2.49105 0 0.54056)
(1.08433 0 0.361882)
(1.85584 0 0.551674)
(0.451817 0 0.348679)
(1.24546 0 0.563021)
(-0.145851 0 0.102457)
(0.608895 0 0.544874)
(-0.423625 0 -0.207097)
(0.094657 0 0.259363)
(-0.402158 0 -0.361257)
(-0.133682 0 -0.0205291)
(-0.119681 0 -0.393889)
(9.99641 0 0.051672)
(9.99705 0 0.0405043)
(9.95879 0 0.070861)
(9.97851 0 0.0674538)
(9.89824 0 0.0879861)
(9.93377 0 0.0898691)
(9.81659 0 0.105984)
(9.86453 0 0.113554)
(9.71359 0 0.124921)
(9.77438 0 0.138514)
(9.58909 0 0.144853)
(9.66436 0 0.164645)
(9.44275 0 0.16609)
(9.53398 0 0.192331)
(9.27391 0 0.188967)
(9.3825 0 0.22203)
(9.08167 0 0.213783)
(9.2092 0 0.254149)
(8.86491 0 0.240816)
(9.01317 0 0.289065)
(8.62231 0 0.270339)
(8.79332 0 0.327154)
(8.35239 0 0.30261)
(8.54836 0 0.368789)
(8.05356 0 0.337861)
(8.27684 0 0.414321)
(7.72412 0 0.376267)
(7.97717 0 0.464052)
(7.36237 0 0.417908)
(7.64772 0 0.518196)
(6.96672 0 0.462715)
(7.28682 0 0.576815)
(6.53582 0 0.510394)
(6.89295 0 0.639736)
(6.06882 0 0.560341)
(6.4648 0 0.706438)
(5.56558 0 0.611529)
(6.00158 0 0.775921)
(5.02708 0 0.662393)
(5.50324 0 0.846535)
(4.45586 0 0.710715)
(4.97087 0 0.915817)
(3.85647 0 0.753545)
(4.40716 0 0.980315)
(3.23617 0 0.7872)
(3.81702 0 1.03546)
(2.60579 0 0.807503)
(3.20843 0 1.07549)
(1.98277 0 0.810466)
(2.59337 0 1.09315)
(1.40527 0 0.776893)
(1.99618 0 1.07708)
(0.929734 0 0.646394)
(1.41948 0 0.978401)
(0.439839 0 0.384329)
(0.937559 0 0.716788)
(0.059164 0 -0.118623)
(0.443777 0 0.343513)
(0.174917 0 -0.335942)
(9.98903 0 0.0594302)
(9.99481 0 0.0458769)
(9.95434 0 0.0894755)
(9.97368 0 0.0848532)
(9.8973 0 0.118031)
(9.92984 0 0.119172)
(9.82047 0 0.147897)
(9.86357 0 0.153975)
(9.72416 0 0.17942)
(9.77736 0 0.190406)
(9.60822 0 0.212774)
(9.67227 0 0.228635)
(9.47235 0 0.248391)
(9.5481 0 0.269128)
(9.31608 0 0.286774)
(9.40432 0 0.312496)
(9.13869 0 0.328397)
(9.24035 0 0.359325)
(8.93925 0 0.373723)
(9.0555 0 0.410175)
(8.71665 0 0.423208)
(8.8489 0 0.4656)
(8.4696 0 0.477298)
(8.61952 0 0.526155)
(8.19668 0 0.536402)
(8.36616 0 0.592376)
(7.89632 0 0.600846)
(8.08752 0 0.664742)
(7.56692 0 0.670816)
(7.7822 0 0.743624)
(7.20683 0 0.746263)
(7.44873 0 0.829197)
(6.81456 0 0.82679)
(7.08568 0 0.921327)
(6.38886 0 0.911491)
(6.6917 0 1.01941)
(5.92902 0 0.998766)
(6.26571 0 1.12218)
(5.43512 0 1.0861)
(5.8071 0 1.22743)
(4.90853 0 1.16983)
(5.31606 0 1.33176)
(4.35241 0 1.2449)
(4.79396 0 1.4302)
(3.77257 0 1.30455)
(4.24395 0 1.51588)
(3.17871 0 1.33984)
(3.67179 0 1.57943)
(2.58661 0 1.33812)
(3.0863 0 1.60775)
(2.01985 0 1.27297)
(2.50291 0 1.58158)
(1.48693 0 1.0954)
(1.92872 0 1.46424)
(0.958289 0 0.76916)
(1.38524 0 1.21039)
(0.479873 0 0.202438)
(0.829536 0 0.801025)
(0.433727 0 0.134065)
(9.98515 0 0.071613)
(9.99367 0 0.0531472)
(9.95039 0 0.113629)
(9.97088 0 0.102289)
(9.89437 0 0.154131)
(9.92691 0 0.147952)
(9.81882 0 0.195571)
(9.86185 0 0.193719)
(9.72442 0 0.238809)
(9.77746 0 0.241275)
(9.61113 0 0.284322)
(9.67467 0 0.291161)
(9.47875 0 0.332719)
(9.55343 0 0.343953)
(9.32695 0 0.384673)
(9.41336 0 0.40037)
(9.15524 0 0.440846)
(9.25401 0 0.461138)
(8.96292 0 0.501884)
(9.07484 0 0.526961)
(8.74917 0 0.56843)
(8.87521 0 0.598537)
(8.51304 0 0.641115)
(8.6543 0 0.676565)
(8.25346 0 0.720535)
(8.41123 0 0.761725)
(7.96926 0 0.807196)
(8.145 0 0.854642)
(7.65918 0 0.901444)
(7.85455 0 0.955826)
(7.32192 0 1.00336)
(7.53875 0 1.06558)
(6.9562 0 1.11258)
(7.19646 0 1.18386)
(6.56084 0 1.22815)
(6.82652 0 1.31009)
(6.13488 0 1.34818)
(6.42788 0 1.44293)
(5.67783 0 1.46961)
(5.99965 0 1.57991)
(5.18998 0 1.58778)
(5.54132 0 1.71709)
(4.67285 0 1.69603)
(5.05304 0 1.84855)
(4.12978 0 1.78515)
(4.53594 0 1.96584)
(3.56664 0 1.84253)
(3.99271 0 2.05731)
(2.99203 0 1.85072)
(3.42758 0 2.10714)
(2.41583 0 1.78248)
(2.84762 0 2.09448)
(1.84053 0 1.60044)
(2.25621 0 1.98872)
(1.25938 0 1.27841)
(1.6603 0 1.75303)
(0.666771 0 0.78952)
(1.02396 0 1.36774)
(0.523033 0 0.787125)
(9.98337 0 0.0844061)
(9.99316 0 0.0612904)
(9.94821 0 0.136835)
(9.96959 0 0.119925)
(9.89315 0 0.188029)
(9.92575 0 0.176238)
(9.81907 0 0.240166)
(9.862 0 0.232695)
(9.72663 0 0.294464)
(9.77964 0 0.291084)
(9.6159 0 0.351656)
(9.6794 0 0.35227)
(9.48672 0 0.412467)
(9.56128 0 0.416974)
(9.33879 0 0.477674)
(9.42497 0 0.486005)
(9.17171 0 0.548049)
(9.2701 0 0.560202)
(8.98493 0 0.624353)
(9.09621 0 0.640385)
(8.77779 0 0.707344)
(8.90275 0 0.727367)
(8.54954 0 0.797766)
(8.68908 0 0.821957)
(8.29936 0 0.896329)
(8.45445 0 0.924944)
(8.02635 0 1.00366)
(8.19808 0 1.03706)
(7.72957 0 1.12021)
(7.91912 0 1.15892)
(7.40805 0 1.24617)
(7.61669 0 1.29093)
(7.06076 0 1.38128)
(7.28985 0 1.43316)
(6.68668 0 1.5246)
(6.93762 0 1.58512)
(6.28484 0 1.6742)
(6.55898 0 1.74552)
(5.85436 0 1.8268)
(6.15285 0 1.9119)
(5.39469 0 1.97726)
(5.7182 0 2.08018)
(4.90573 0 2.11806)
(5.25405 0 2.2441)
(4.38823 0 2.23861)
(4.75971 0 2.39461)
(3.84392 0 2.32454)
(4.23492 0 2.5192)
(3.27541 0 2.35694)
(3.67986 0 2.60123)
(2.68537 0 2.31058)
(3.0957 0 2.61969)
(2.07267 0 2.15499)
(2.48167 0 2.5473)
(1.42937 0 1.86737)
(1.8399 0 2.35369)
(0.742606 0 1.41954)
(1.13135 0 2.02449)
(0.543302 0 1.51446)
(9.98264 0 0.097496)
(9.99299 0 0.0697916)
(9.94744 0 0.159772)
(9.96925 0 0.137581)
(9.89354 0 0.221344)
(9.92597 0 0.203923)
(9.82134 0 0.284088)
(9.86381 0 0.270684)
(9.73134 0 0.349343)
(9.78386 0 0.339578)
(9.62367 0 0.418014)
(9.68665 0 0.411692)
(9.4982 0 0.490934)
(9.57219 0 0.487898)
(9.35466 0 0.56897)
(9.44022 0 0.5691)
(9.1927 0 0.653001)
(9.29044 0 0.65623)
(9.01184 0 0.743896)
(9.12243 0 0.750211)
(8.81152 0 0.842516)
(8.93572 0 0.851956)
(8.59109 0 0.949711)
(8.72973 0 0.962367)
(8.34986 0 1.06629)
(8.50382 0 1.08233)
(8.08706 0 1.19297)
(8.25729 0 1.21265)
(7.80192 0 1.33032)
(7.98938 0 1.35405)
(7.49359 0 1.47861)
(7.6993 0 1.50704)
(7.16118 0 1.6377)
(7.38617 0 1.67178)
(6.80371 0 1.80677)
(7.04902 0 1.84793)
(6.42009 0 1.98399)
(6.68674 0 2.03438)
(6.00911 0 2.16615)
(6.29799 0 2.22886)
(5.56938 0 2.34812)
(5.88117 0 2.4275)
(5.09943 0 2.52222)
(5.43431 0 2.62428)
(4.59771 0 2.67757)
(4.95508 0 2.81031)
(4.06267 0 2.79949)
(4.44081 0 2.97323)
(3.49267 0 2.8691)
(3.88848 0 3.09662)
(2.8858 0 2.8629)
(3.2952 0 3.15989)
(2.23799 0 2.7539)
(2.65687 0 3.13789)
(1.54242 0 2.521)
(1.97482 0 3.00316)
(0.793639 0 2.1313)
(1.20722 0 2.74056)
(0.556729 0 2.29178)
(9.9825 0 0.110624)
(9.99302 0 0.0783599)
(9.94771 0 0.182321)
(9.96954 0 0.155034)
(9.89523 0 0.253813)
(9.92722 0 0.230881)
(9.82524 0 0.326762)
(9.86697 0 0.307504)
(9.73814 0 0.402549)
(9.78978 0 0.386516)
(9.63404 0 0.482228)
(9.69606 0 0.469141)
(9.51286 0 0.566751)
(9.5858 0 0.556391)
(9.37439 0 0.657087)
(9.45881 0 0.649264)
(9.21829 0 0.754209)
(9.31482 0 0.748782)
(9.04415 0 0.859082)
(9.15347 0 0.855958)
(8.85146 0 0.972662)
(8.97435 0 0.971799)
(8.63963 0 1.09589)
(8.77692 0 1.0973)
(8.40803 0 1.22965)
(8.56059 0 1.23342)
(8.15596 0 1.37476)
(8.3247 0 1.38108)
(7.88265 0 1.53188)
(8.06853 0 1.54109)
(7.58727 0 1.7014)
(7.79126 0 1.71407)
(7.26889 0 1.88332)
(7.49196 0 1.90033)
(6.92641 0 2.077)
(7.16954 0 2.09973)
(6.5585 0 2.28088)
(6.82265 0 2.31142)
(6.16345 0 2.49208)
(6.44957 0 2.53352)
(5.7391 0 2.70586)
(6.04807 0 2.76268)
(5.2827 0 2.91501)
(5.61521 0 2.99349)
(4.7908 0 3.10917)
(5.14721 0 3.21787)
(4.25926 0 3.27421)
(4.63934 0 3.42429)
(3.68335 0 3.39185)
(4.08601 0 3.59715)
(3.05801 0 3.43967)
(3.48127 0 3.71653)
(2.3777 0 3.39176)
(2.81833 0 3.7581)
(1.63789 0 3.22613)
(2.09912 0 3.69394)
(0.839119 0 2.9008)
(1.2789 0 3.50443)
(0.57335 0 3.11365)
(9.98273 0 0.123579)
(9.99316 0 0.0868156)
(9.94873 0 0.204305)
(9.97027 0 0.172089)
(9.89794 0 0.285247)
(9.92927 0 0.25697)
(9.83051 0 0.367959)
(9.87124 0 0.342981)
(9.74671 0 0.453844)
(9.79716 0 0.431671)
(9.64669 0 0.54407)
(9.70736 0 0.524343)
(9.53039 0 0.6397)
(9.60182 0 0.622127)
(9.39763 0 0.741793)
(9.48039 0 0.726118)
(9.24814 0 0.851409)
(9.34287 0 0.837418)
(9.08154 0 0.969603)
(9.18895 0 0.957127)
(8.89738 0 1.09742)
(9.01826 0 1.08634)
(8.69511 0 1.23588)
(8.83031 0 1.22614)
(8.47414 0 1.38599)
(8.62456 0 1.37758)
(8.23377 0 1.54864)
(8.40038 0 1.54169)
(7.97323 0 1.72462)
(8.15703 0 1.71939)
(7.69162 0 1.91446)
(7.89365 0 1.91145)
(7.38785 0 2.11837)
(7.6092 0 2.11838)
(7.06062 0 2.33599)
(7.30242 0 2.34032)
(6.7082 0 2.56615)
(6.97164 0 2.57679)
(6.32835 0 2.80652)
(6.61471 0 2.82647)
(5.91808 0 3.05308)
(6.2287 0 3.08674)
(5.47342 0 3.29956)
(5.80972 0 3.35321)
(4.98927 0 3.53668)
(5.35262 0 3.61901)
(4.4593 0 3.75142)
(4.85084 0 3.87401)
(3.87618 0 3.92646)
(4.29637 0 4.10395)
(3.23228 0 4.03984)
(3.6805 0 4.28968)
(2.52079 0 4.06495)
(2.99346 0 4.40674)
(1.73834 0 3.97608)
(2.23733 0 4.42453)
(0.889455 0 3.71869)
(1.36333 0 4.31622)
(0.598738 0 3.98481)
(9.98321 0 0.136201)
(9.99339 0 0.0950383)
(9.95032 0 0.225567)
(9.97131 0 0.188585)
(9.90151 0 0.31549)
(9.93193 0 0.282043)
(9.83694 0 0.407496)
(9.87644 0 0.376953)
(9.75685 0 0.503004)
(9.8058 0 0.474832)
(9.66136 0 0.603268)
(9.72031 0 0.57704)
(9.55047 0 0.70945)
(9.61997 0 0.684805)
(9.42405 0 0.822693)
(9.50466 0 0.799306)
(9.28185 0 0.944138)
(9.37424 0 0.921726)
(9.12358 0 1.07493)
(9.22845 0 1.05324)
(8.94881 0 1.21619)
(9.06697 0 1.19503)
(8.75707 0 1.36904)
(8.8894 0 1.34827)
(8.54778 0 1.53459)
(8.69522 0 1.51412)
(8.32026 0 1.71385)
(8.48384 0 1.69371)
(8.07371 0 1.90775)
(8.25452 0 1.88811)
(7.80715 0 2.11705)
(8.00638 0 2.09828)
(7.51933 0 2.34218)
(7.73827 0 2.32499)
(7.20868 0 2.58318)
(7.44874 0 2.56871)
(6.8731 0 2.83942)
(7.13585 0 2.82948)
(6.50977 0 3.1093)
(6.79701 0 3.10668)
(6.11486 0 3.38984)
(6.42866 0 3.39866)
(5.68329 0 3.67606)
(6.02602 0 3.70234)
(5.20834 0 3.96024)
(5.58265 0 4.01252)
(4.68161 0 4.231)
(5.09017 0 4.321)
(4.09313 0 4.47231)
(4.53811 0 4.6154)
(3.43236 0 4.66252)
(3.91452 0 4.87785)
(2.68999 0 4.77309)
(3.20551 0 5.08354)
(1.86174 0 4.77231)
(2.41112 0 5.19788)
(0.954119 0 4.58961)
(1.47617 0 5.18418)
(0.639142 0 4.91932)
(9.98386 0 0.148366)
(9.99368 0 0.102941)
(9.95235 0 0.245965)
(9.97261 0 0.20439)
(9.90579 0 0.344392)
(9.9351 0 0.305963)
(9.84438 0 0.44519)
(9.88242 0 0.409262)
(9.76834 0 0.549802)
(9.81553 0 0.515807)
(9.67781 0 0.659549)
(9.73472 0 0.627)
(9.57282 0 0.775677)
(9.64 0 0.744147)
(9.45329 0 0.899408)
(9.53131 0 0.868505)
(9.31903 0 1.03196)
(9.40855 0 1.00133)
(9.1698 0 1.17455)
(9.27154 0 1.14387)
(9.00525 0 1.32839)
(9.12001 0 1.29738)
(8.82494 0 1.49471)
(8.95363 0 1.46312)
(8.62837 0 1.67471)
(8.77196 0 1.64237)
(8.41487 0 1.86955)
(8.57445 0 1.83637)
(8.18363 0 2.08034)
(8.3604 0 2.04636)
(7.93362 0 2.30807)
(8.12891 0 2.27351)
(7.66349 0 2.55353)
(7.87882 0 2.5189)
(7.37144 0 2.81721)
(7.60855 0 2.78343)
(7.05505 0 3.09915)
(7.31598 0 3.06773)
(6.711 0 3.3987)
(6.99819 0 3.37201)
(6.33477 0 3.71412)
(6.65116 0 3.69583)
(5.9202 0 4.04214)
(6.26936 0 4.03771)
(5.4591 0 4.3771)
(5.84524 0 4.39457)
(4.94086 0 4.70991)
(5.36869 0 4.76076)
(4.35249 0 5.02653)
(4.82656 0 5.12676)
(3.67934 0 5.30614)
(4.20291 0 5.47705)
(2.90727 0 5.51809)
(3.47762 0 5.7874)
(2.02747 0 5.62287)
(2.64477 0 6.01937)
(1.04499 0 5.52927)
(1.63753 0 6.12373)
(0.704379 0 5.94282)
(9.98465 0 0.159978)
(9.99402 0 0.11046)
(9.95473 0 0.265376)
(9.97409 0 0.219395)
(9.91065 0 0.371813)
(9.93868 0 0.328605)
(9.85267 0 0.480875)
(9.88905 0 0.439767)
(9.78101 0 0.594035)
(9.82619 0 0.554423)
(9.69582 0 0.71267)
(9.75039 0 0.674013)
(9.59718 0 0.838096)
(9.66168 0 0.799905)
(9.48504 0 0.971605)
(9.56005 0 0.933423)
(9.35929 0 1.11448)
(9.44545 0 1.07588)
(9.21975 0 1.26802)
(9.31778 0 1.2286)
(9.06615 0 1.43351)
(9.17687 0 1.39291)
(8.89813 0 1.61228)
(9.02243 0 1.57015)
(8.71524 0 1.80564)
(8.85413 0 1.76168)
(8.51688 0 2.0149)
(8.67148 0 1.96891)
(8.30228 0 2.24138)
(8.47388 0 2.19322)
(8.07042 0 2.48633)
(8.26047 0 2.43603)
(7.8199 0 2.75093)
(8.03014 0 2.69873)
(7.54884 0 3.03622)
(7.78132 0 2.98271)
(7.25464 0 3.34302)
(7.51184 0 3.28926)
(6.93367 0 3.67176)
(7.21868 0 3.61955)
(6.58091 0 4.02224)
(6.89761 0 3.97446)
(6.18941 0 4.39321)
(6.54269 0 4.35442)
(5.74969 0 4.78169)
(6.14564 0 4.7589)
(5.249 0 5.18179)
(5.69496 0 5.18565)
(4.67078 0 5.58284)
(5.17491 0 5.6293)
(3.9947 0 5.96654)
(4.56487 0 6.07884)
(3.19819 0 6.30163)
(3.83606 0 6.51356)
(2.26156 0 6.5405)
(2.97053 0 6.89392)
(1.18047 0 6.56483)
(1.87888 0 7.15758)
(0.812671 0 7.09902)
(9.98554 0 0.170959)
(9.9944 0 0.117543)
(9.95739 0 0.283692)
(9.97572 0 0.233514)
(9.91601 0 0.397626)
(9.94259 0 0.349861)
(9.8617 0 0.514401)
(9.89624 0 0.468341)
(9.7947 0 0.635523)
(9.83765 0 0.590528)
(9.71518 0 0.762416)
(9.76714 0 0.717896)
(9.62326 0 0.896454)
(9.68477 0 0.851861)
(9.51896 0 1.03899)
(9.59057 0 0.993804)
(9.40223 0 1.19136)
(9.48458 0 1.14509)
(9.27296 0 1.35494)
(9.36676 0 1.3071)
(9.13097 0 1.53108)
(9.23701 0 1.48122)
(8.97599 0 1.72119)
(9.09518 0 1.66887)
(8.80766 0 1.9267)
(8.94099 0 1.8715)
(8.62549 0 2.14909)
(8.77412 0 2.09063)
(8.4288 0 2.38985)
(8.59404 0 2.32782)
(8.21664 0 2.65054)
(8.40005 0 2.58473)
(7.98772 0 2.93275)
(8.19117 0 2.86307)
(7.74019 0 3.23809)
(7.96597 0 3.1647)
(7.47149 0 3.56822)
(7.72245 0 3.49159)
(7.17798 0 3.92476)
(7.45776 0 3.8459)
(6.85452 0 4.30921)
(7.16782 0 4.22995)
(6.49384 0 4.72272)
(6.84684 0 4.6462)
(6.08567 0 5.16561)
(6.48644 0 5.09709)
(5.61556 0 5.63638)
(6.07462 0 5.58457)
(5.06344 0 6.12986)
(5.59389 0 6.10915)
(4.402 0 6.63375)
(5.01939 0 6.66761)
(3.59586 0 7.12109)
(4.31225 0 7.24849)
(2.60403 0 7.54036)
(3.43531 0 7.82001)
(1.39409 0 7.74002)
(2.2561 0 8.31465)
(1.0024 0 8.46445)
(9.9865 0 0.181248)
(9.9948 0 0.124153)
(9.96027 0 0.300824)
(9.97747 0 0.246673)
(9.92177 0 0.421723)
(9.94676 0 0.369637)
(9.87134 0 0.545638)
(9.90388 0 0.494873)
(9.80924 0 0.674108)
(9.84978 0 0.623989)
(9.73569 0 0.808598)
(9.7848 0 0.75849)
(9.65082 0 0.950527)
(9.70904 0 0.899829)
(9.55474 0 1.10129)
(9.6226 0 1.04943)
(9.44745 0 1.2623)
(9.52558 0 1.2087)
(9.32894 0 1.43494)
(9.41802 0 1.37907)
(9.19912 0 1.62066)
(9.29992 0 1.56196)
(9.05783 0 1.82093)
(9.17122 0 1.75886)
(8.90484 0 2.03729)
(9.03181 0 1.97131)
(8.73979 0 2.27135)
(8.88146 0 2.20091)
(8.56214 0 2.5248)
(8.71985 0 2.44939)
(8.37114 0 2.79947)
(8.54646 0 2.7186)
(8.16568 0 3.09733)
(8.36054 0 3.01056)
(7.94417 0 3.42058)
(8.16098 0 3.32755)
(7.70433 0 3.77169)
(7.94612 0 3.6722)
(7.44285 0 4.15348)
(7.71362 0 4.04755)
(7.15501 0 4.5692)
(7.46002 0 4.45731)
(6.83391 0 5.02259)
(7.18029 0 4.90596)
(6.4695 0 5.51775)
(6.86705 0 5.39902)
(6.04691 0 6.05883)
(6.50924 0 5.94318)
(5.54389 0 6.64884)
(6.0899 0 6.54634)
(4.92681 0 7.28703)
(5.58287 0 7.2169)
(4.14464 0 7.96132)
(4.94213 0 7.96157)
(3.12134 0 8.63325)
(4.10878 0 8.77548)
(1.75591 0 9.12723)
(2.87787 0 9.62042)
(1.36435 0 10.1843)
(9.98754 0 0.190793)
(9.99523 0 0.130256)
(9.96333 0 0.316698)
(9.97932 0 0.258816)
(9.92786 0 0.44401)
(9.95115 0 0.387857)
(9.88148 0 0.574475)
(9.91188 0 0.519271)
(9.8245 0 0.709663)
(9.86244 0 0.654698)
(9.75714 0 0.851068)
(9.80318 0 0.795665)
(9.6796 0 1.00015)
(9.73427 0 0.943656)
(9.59203 0 1.15833)
(9.65584 0 1.10012)
(9.49454 0 1.32705)
(9.56808 0 1.26651)
(9.38718 0 1.50777)
(9.4711 0 1.44426)
(9.26999 0 1.70195)
(9.36502 0 1.63485)
(9.14293 0 1.91113)
(9.2499 0 1.8398)
(9.00591 0 2.13694)
(9.12576 0 2.0607)
(8.85875 0 2.38109)
(8.99255 0 2.29925)
(8.70112 0 2.64544)
(8.85016 0 2.55727)
(8.53252 0 2.93205)
(8.69833 0 2.83677)
(8.35217 0 3.24323)
(8.53662 0 3.14002)
(8.15889 0 3.58166)
(8.36436 0 3.46965)
(7.95095 0 3.95053)
(8.18048 0 3.82877)
(7.7258 0 4.35373)
(7.98338 0 4.22119)
(7.47969 0 4.79611)
(7.7707 0 4.65171)
(7.20705 0 5.28385)
(7.53894 0 5.12652)
(6.8995 0 5.82494)
(7.28288 0 5.65383)
(6.54407 0 6.42973)
(6.9945 0 6.24479)
(6.12 0 7.11162)
(6.66108 0 6.9149)
(5.59257 0 7.88772)
(6.26205 0 7.68638)
(4.90027 0 8.77785)
(5.75695 0 8.59272)
(3.92614 0 9.80117)
(5.08648 0 9.68505)
(2.43255 0 10.8558)
(3.97844 0 11.0487)
(2.14542 0 12.5668)
(9.98862 0 0.199557)
(9.99567 0 0.135831)
(9.96652 0 0.331252)
(9.98124 0 0.269898)
(9.9342 0 0.464406)
(9.95571 0 0.40446)
(9.89203 0 0.600805)
(9.92017 0 0.54146)
(9.84031 0 0.742048)
(9.87553 0 0.682565)
(9.77933 0 0.88965)
(9.82217 0 0.829318)
(9.70934 0 1.04509)
(9.7603 0 0.983221)
(9.63053 0 1.20983)
(9.69012 0 1.14575)
(9.5431 0 1.38532)
(9.61188 0 1.31835)
(9.4472 0 1.57304)
(9.5258 0 1.50249)
(9.34299 0 1.77449)
(9.4321 0 1.69967)
(9.23056 0 1.99126)
(9.33096 0 1.91141)
(9.10999 0 2.22501)
(9.22257 0 2.13936)
(8.9813 0 2.47754)
(9.10708 0 2.38524)
(8.84442 0 2.75082)
(8.98461 0 2.65094)
(8.69918 0 3.04707)
(8.85521 0 2.93857)
(8.5452 0 3.36885)
(8.71884 0 3.25055)
(8.3819 0 3.71919)
(8.57534 0 3.58971)
(8.20832 0 4.1018)
(8.42439 0 3.95948)
(8.02299 0 4.52134)
(8.26539 0 4.36412)
(7.82372 0 4.98386)
(8.09744 0 4.8091)
(7.60722 0 5.49739)
(7.91917 0 5.30166)
(7.36847 0 6.07299)
(7.72861 0 5.85165)
(7.09952 0 6.72631)
(7.52287 0 6.47302)
(6.78721 0 7.48053)
(7.29769 0 7.18633)
(6.40797 0 8.37235)
(7.0476 0 8.02396)
(5.91475 0 9.46618)
(6.76233 0 9.04236)
(5.19498 0 10.9082)
(6.46084 0 10.3571)
(3.88311 0 13.1774)
(6.18781 0 12.3033)
(5.25566 0 16.3701)
(0.188962 0 -0.11194)
(0.110802 0 -0.185077)
(0.367371 0 -0.0939348)
(0.269034 0 -0.170613)
(0.512319 0 -0.0703329)
(0.425349 0 -0.135341)
(0.622909 0 -0.0491792)
(0.55516 0 -0.100821)
(0.70346 0 -0.0319413)
(0.654104 0 -0.0717016)
(0.759091 0 -0.0184498)
(0.726506 0 -0.0483492)
(0.79468 0 -0.0082097)
(0.777972 0 -0.0302003)
(0.814652 0 -0.000699339)
(0.813371 0 -0.0165479)
(0.822911 0 0.00455377)
(0.836661 0 -0.00668158)
(0.823154 0 0.00776554)
(0.851061 0 -0.000191797)
(0.817365 0 0.00932867)
(0.859115 0 0.00446479)
(0.808309 0 0.00985746)
(0.862872 0 0.00681886)
(0.797704 0 0.00969799)
(0.864058 0 0.00779753)
(0.786827 0 0.00909156)
(0.864015 0 0.00780745)
(0.776575 0 0.00823234)
(0.863715 0 0.00718571)
(0.767512 0 0.00727123)
(0.863823 0 0.00620202)
(0.75993 0 0.00632394)
(0.864745 0 0.00506666)
(0.753875 0 0.00548037)
(0.866667 0 0.00395009)
(0.749169 0 0.00480638)
(0.869562 0 0.00299769)
(0.745451 0 0.00433469)
(0.873207 0 0.00231243)
(0.742277 0 0.00405782)
(0.87725 0 0.00192744)
(0.739233 0 0.00393646)
(0.881317 0 0.00180453)
(0.736003 0 0.00392621)
(0.885122 0 0.00187006)
(0.732323 0 0.00400786)
(0.888476 0 0.00207989)
(0.727861 0 0.00418344)
(0.891189 0 0.0024627)
(0.722176 0 0.00442063)
(0.892955 0 0.00306322)
(0.714907 0 0.00464046)
(0.893358 0 0.00382443)
(0.706006 0 0.0046858)
(0.891999 0 0.00457268)
(0.696269 0 0.00409681)
(0.889101 0 0.00488351)
(0.885205 0 0.00377249)
(0.174711 0 -0.268055)
(0.0924209 0 -0.356196)
(0.341608 0 -0.232523)
(0.239101 0 -0.330218)
(0.480731 0 -0.181451)
(0.376325 0 -0.265243)
(0.591443 0 -0.134725)
(0.49184 0 -0.201753)
(0.677768 0 -0.0962577)
(0.582241 0 -0.148543)
(0.74422 0 -0.0658774)
(0.651582 0 -0.106103)
(0.794965 0 -0.0425725)
(0.704496 0 -0.0732615)
(0.833646 0 -0.0252113)
(0.744935 0 -0.0485972)
(0.863265 0 -0.0127073)
(0.77609 0 -0.0306421)
(0.885809 0 -0.00418074)
(0.800398 0 -0.0179985)
(0.903615 0 0.00120932)
(0.819718 0 -0.00926733)
(0.917831 0 0.0042832)
(0.835582 0 -0.00388617)
(0.929791 0 0.00564356)
(0.849075 0 -0.000995206)
(0.940498 0 0.00578314)
(0.861109 0 0.00012138)
(0.950684 0 0.00512342)
(0.872366 0 4.62917e-05)
(0.960868 0 0.00400532)
(0.883301 0 -0.000767715)
(0.971373 0 0.0027052)
(0.894201 0 -0.00195218)
(0.982321 0 0.00146519)
(0.905233 0 -0.00319265)
(0.993631 0 0.000482929)
(0.916432 0 -0.00420669)
(1.00506 0 -0.000128389)
(0.927687 0 -0.00479322)
(1.0163 0 -0.000363807)
(0.938796 0 -0.00490075)
(1.02715 0 -0.000293588)
(0.949575 0 -0.00462561)
(1.03749 0 1.19336e-05)
(0.959947 0 -0.00411919)
(1.04728 0 0.000560443)
(0.969944 0 -0.00345409)
(1.05633 0 0.00144509)
(0.979609 0 -0.00253149)
(1.06422 0 0.00269847)
(0.988832 0 -0.00118784)
(1.07049 0 0.00407059)
(0.997318 0 0.00052566)
(1.07494 0 0.0050665)
(1.00478 0 0.00228607)
(1.07823 0 0.00498893)
(1.011 0 0.00323545)
(1.01707 0 0.00289082)
(0.147825 0 -0.424781)
(0.0722558 0 -0.500981)
(0.284837 0 -0.369851)
(0.195557 0 -0.461243)
(0.397436 0 -0.291992)
(0.30013 0 -0.370379)
(0.48672 0 -0.221065)
(0.38866 0 -0.28315)
(0.556568 0 -0.162822)
(0.457157 0 -0.210717)
(0.610763 0 -0.11692)
(0.509912 0 -0.153205)
(0.652771 0 -0.0818231)
(0.550434 0 -0.108909)
(0.685604 0 -0.0557714)
(0.581703 0 -0.0758002)
(0.711694 0 -0.036993)
(0.606212 0 -0.0517485)
(0.732848 0 -0.0238184)
(0.625879 0 -0.0347077)
(0.750619 0 -0.0149741)
(0.642099 0 -0.0229721)
(0.765958 0 -0.00954519)
(0.655845 0 -0.0154366)
(0.779712 0 -0.00667227)
(0.667838 0 -0.0111075)
(0.792472 0 -0.00559306)
(0.678656 0 -0.00903794)
(0.80461 0 -0.00568048)
(0.68868 0 -0.00846116)
(0.81635 0 -0.00644885)
(0.698086 0 -0.00880203)
(0.827861 0 -0.00751049)
(0.70696 0 -0.00964378)
(0.839238 0 -0.00851834)
(0.715398 0 -0.010615)
(0.850465 0 -0.00918545)
(0.723461 0 -0.0113581)
(0.861426 0 -0.00936219)
(0.731118 0 -0.0116101)
(0.872008 0 -0.00908087)
(0.738273 0 -0.0113267)
(0.882215 0 -0.00849145)
(0.744863 0 -0.0106775)
(0.892174 0 -0.00773305)
(0.750957 0 -0.00988447)
(0.902105 0 -0.00679062)
(0.756763 0 -0.00906749)
(0.912114 0 -0.00547826)
(0.762545 0 -0.00805544)
(0.922027 0 -0.00368436)
(0.768435 0 -0.0065297)
(0.931565 0 -0.00166338)
(0.77433 0 -0.00449217)
(0.940669 0 0.000103772)
(0.780044 0 -0.002391)
(0.948801 0 0.00121351)
(0.784981 0 -0.000843066)
(0.789631 0 0.0002189)
(0.118211 0 -0.546947)
(0.0519877 0 -0.616762)
(0.219738 0 -0.47167)
(0.146117 0 -0.558334)
(0.299764 0 -0.371233)
(0.211659 0 -0.4451)
(0.362349 0 -0.281584)
(0.269636 0 -0.340207)
(0.411023 0 -0.208617)
(0.312252 0 -0.254044)
(0.448592 0 -0.151375)
(0.345006 0 -0.185856)
(0.47765 0 -0.107813)
(0.369863 0 -0.133567)
(0.500454 0 -0.0756088)
(0.388719 0 -0.094694)
(0.518774 0 -0.0523926)
(0.403294 0 -0.0665689)
(0.533751 0 -0.0360515)
(0.414889 0 -0.0465377)
(0.546186 0 -0.0250284)
(0.424216 0 -0.0325624)
(0.556765 0 -0.0181523)
(0.431611 0 -0.0234028)
(0.566053 0 -0.0143242)
(0.437414 0 -0.0179359)
(0.574349 0 -0.0125756)
(0.441991 0 -0.0149934)
(0.581795 0 -0.0121527)
(0.445565 0 -0.0136795)
(0.588425 0 -0.0125103)
(0.44809 0 -0.0133394)
(0.594329 0 -0.0132329)
(0.449508 0 -0.0135889)
(0.599596 0 -0.013929)
(0.449939 0 -0.0140507)
(0.604229 0 -0.0142575)
(0.449539 0 -0.0143096)
(0.608117 0 -0.0140484)
(0.448374 0 -0.0140278)
(0.611165 0 -0.0133773)
(0.446409 0 -0.0131777)
(0.613465 0 -0.0124459)
(0.443592 0 -0.0120414)
(0.615259 0 -0.0114345)
(0.44001 0 -0.0109229)
(0.617003 0 -0.0103431)
(0.435906 0 -0.0100534)
(0.618995 0 -0.00889868)
(0.431657 0 -0.00915471)
(0.621061 0 -0.00698821)
(0.427539 0 -0.00764284)
(0.62279 0 -0.00500731)
(0.424208 0 -0.00540198)
(0.624135 0 -0.00349769)
(0.419475 0 -0.00308197)
(0.62478 0 -0.00213952)
(0.412601 0 -0.00116641)
(0.404207 0 0.000389685)
(0.0836631 0 -0.636156)
(0.0305585 0 -0.698705)
(0.145378 0 -0.540132)
(0.0898761 0 -0.617352)
(0.189185 0 -0.422255)
(0.111369 0 -0.486004)
(0.222105 0 -0.320097)
(0.136564 0 -0.370218)
(0.246891 0 -0.237718)
(0.150323 0 -0.276107)
(0.265328 0 -0.173414)
(0.160544 0 -0.20188)
(0.279024 0 -0.124764)
(0.167085 0 -0.14519)
(0.289421 0 -0.0890237)
(0.170829 0 -0.103309)
(0.297619 0 -0.0632852)
(0.172686 0 -0.0732006)
(0.303937 0 -0.0449839)
(0.173374 0 -0.0515278)
(0.308329 0 -0.0324066)
(0.172948 0 -0.0359496)
(0.311087 0 -0.0243176)
(0.170941 0 -0.0254795)
(0.312528 0 -0.0194599)
(0.167129 0 -0.0189958)
(0.312679 0 -0.0167509)
(0.161823 0 -0.0151018)
(0.311527 0 -0.0153567)
(0.155121 0 -0.0128716)
(0.308934 0 -0.014724)
(0.14697 0 -0.0115653)
(0.30503 0 -0.014519)
(0.137316 0 -0.0109801)
(0.300041 0 -0.0143633)
(0.126492 0 -0.0107961)
(0.294116 0 -0.0139109)
(0.114811 0 -0.0105353)
(0.287198 0 -0.0130496)
(0.102293 0 -0.0097251)
(0.27914 0 -0.0119831)
(0.0884232 0 -0.00828451)
(0.270102 0 -0.0110583)
(0.0726019 0 -0.00668318)
(0.260251 0 -0.0104033)
(0.0551067 0 -0.00521999)
(0.250186 0 -0.00983509)
(0.0370016 0 -0.00436406)
(0.24061 0 -0.00891641)
(0.0192966 0 -0.00387002)
(0.231646 0 -0.00692013)
(0.00256152 0 -0.00281272)
(0.221023 0 -0.0036019)
(-0.0117299 0 0.000187205)
(0.206917 0 -0.000249656)
(-0.0231123 0 0.00416454)
(0.191939 0 0.00174819)
(-0.03495 0 0.00634583)
(-0.0478298 0 0.00573184)
(0.0438006 0 -0.687262)
(0.00676758 0 -0.741605)
(0.0611325 0 -0.570757)
(0.0254199 0 -0.633927)
(0.0659727 0 -0.440782)
(-3.22947e-07 0 -0.490523)
(0.0669664 0 -0.331928)
(-0.0108513 0 -0.371124)
(0.0650484 0 -0.244661)
(-0.0288161 0 -0.274399)
(0.0613607 0 -0.176914)
(-0.0447215 0 -0.198675)
(0.05671 0 -0.126036)
(-0.0602468 0 -0.141243)
(0.0516719 0 -0.0890613)
(-0.0753924 0 -0.0991342)
(0.0465622 0 -0.0626283)
(-0.0901839 0 -0.0690671)
(0.0409646 0 -0.0434954)
(-0.10434 0 -0.0471065)
(0.0340552 0 -0.029877)
(-0.118086 0 -0.0306209)
(0.0256943 0 -0.0210653)
(-0.132883 0 -0.0191838)
(0.015783 0 -0.0157391)
(-0.15171 0 -0.0117088)
(0.00396003 0 -0.0123137)
(-0.17205 0 -0.00661475)
(-0.00977104 0 -0.0100757)
(-0.192796 0 -0.00324762)
(-0.0248951 0 -0.00883374)
(-0.214043 0 -0.00121523)
(-0.041183 0 -0.00833217)
(-0.235841 0 -9.69038e-05)
(-0.0582488 0 -0.00806438)
(-0.257974 0 0.000337572)
(-0.0760541 0 -0.00727783)
(-0.280216 0 0.000806414)
(-0.095385 0 -0.00536025)
(-0.30221 0 0.00229766)
(-0.117416 0 -0.00245323)
(-0.323673 0 0.00509394)
(-0.142383 0 0.00038231)
(-0.344998 0 0.00812015)
(-0.168675 0 0.0021358)
(-0.366637 0 0.0100006)
(-0.194404 0 0.00279633)
(-0.388244 0 0.0101787)
(-0.218275 0 0.00323016)
(-0.408971 0 0.00930432)
(-0.239247 0 0.00472294)
(-0.428023 0 0.00848763)
(-0.255191 0 0.00750413)
(-0.44426 0 0.00857604)
(-0.266354 0 0.00973887)
(-0.454971 0 0.00989885)
(-0.275052 0 0.00946044)
(-0.463311 0 0.0107083)
(-0.470006 0 0.00937204)
(-0.00508003 0 -0.693323)
(-0.0218627 0 -0.736629)
(-0.0334205 0 -0.558014)
(-0.0493117 0 -0.606825)
(-0.0692567 0 -0.422441)
(-0.122072 0 -0.457062)
(-0.104155 0 -0.313569)
(-0.174438 0 -0.339309)
(-0.137026 0 -0.227373)
(-0.227596 0 -0.24514)
(-0.16716 0 -0.161552)
(-0.274409 0 -0.172485)
(-0.194618 0 -0.113072)
(-0.316672 0 -0.117942)
(-0.219778 0 -0.0786995)
(-0.355651 0 -0.0782878)
(-0.242843 0 -0.0543959)
(-0.392847 0 -0.0504086)
(-0.264471 0 -0.0357675)
(-0.42897 0 -0.0300231)
(-0.286474 0 -0.0203942)
(-0.46178 0 -0.0136523)
(-0.311727 0 -0.0084069)
(-0.490345 0 -0.000168005)
(-0.339978 0 -0.000471829)
(-0.517451 0 0.00906127)
(-0.368816 0 0.0041014)
(-0.543841 0 0.0140869)
(-0.397185 0 0.00670318)
(-0.569368 0 0.0166359)
(-0.425083 0 0.00813182)
(-0.594298 0 0.0178766)
(-0.452494 0 0.0088588)
(-0.618752 0 0.0182186)
(-0.479393 0 0.00939988)
(-0.642763 0 0.0178864)
(-0.505351 0 0.0104084)
(-0.666304 0 0.0173414)
(-0.529348 0 0.012254)
(-0.688946 0 0.0172218)
(-0.550527 0 0.0145391)
(-0.70975 0 0.0179554)
(-0.569302 0 0.0162741)
(-0.728334 0 0.0192518)
(-0.586647 0 0.0166241)
(-0.745337 0 0.0200416)
(-0.603098 0 0.0155465)
(-0.76143 0 0.0194775)
(-0.618364 0 0.0137727)
(-0.776529 0 0.0177298)
(-0.631856 0 0.0123089)
(-0.790085 0 0.0157576)
(-0.643276 0 0.0118514)
(-0.801627 0 0.0145842)
(-0.652256 0 0.0119865)
(-0.810907 0 0.0145123)
(-0.659292 0 0.0114601)
(-0.818155 0 0.0142369)
(-0.822443 0 0.0129807)
(-0.05601 0 -0.648643)
(-0.0572395 0 -0.681771)
(-0.137011 0 -0.50119)
(-0.134259 0 -0.529363)
(-0.218027 0 -0.367806)
(-0.257082 0 -0.381415)
(-0.294362 0 -0.264651)
(-0.356551 0 -0.269717)
(-0.363203 0 -0.184892)
(-0.448979 0 -0.183862)
(-0.424463 0 -0.124483)
(-0.529775 0 -0.119244)
(-0.479515 0 -0.0791952)
(-0.600102 0 -0.071226)
(-0.53094 0 -0.0455428)
(-0.661758 0 -0.0356801)
(-0.580523 0 -0.0211719)
(-0.714137 0 -0.010297)
(-0.626772 0 -0.00400295)
(-0.759623 0 0.00650773)
(-0.666236 0 0.0081746)
(-0.798571 0 0.0167824)
(-0.697042 0 0.0166799)
(-0.830933 0 0.0230287)
(-0.721888 0 0.0219808)
(-0.857056 0 0.0273284)
(-0.744491 0 0.0248662)
(-0.880453 0 0.0303126)
(-0.766393 0 0.0262406)
(-0.902518 0 0.0319868)
(-0.787865 0 0.0265642)
(-0.923729 0 0.0325713)
(-0.808865 0 0.0260498)
(-0.944306 0 0.0322497)
(-0.82935 0 0.024998)
(-0.964282 0 0.0312511)
(-0.849297 0 0.023958)
(-0.98369 0 0.0300474)
(-0.868623 0 0.0235289)
(-1.00256 0 0.0292416)
(-0.887087 0 0.0238573)
(-1.02078 0 0.0291677)
(-0.904356 0 0.0243514)
(-1.03808 0 0.0294903)
(-0.9203 0 0.0240873)
(-1.05425 0 0.029272)
(-0.934898 0 0.0226271)
(-1.0692 0 0.027729)
(-0.947988 0 0.0204163)
(-1.08266 0 0.0249539)
(-0.959352 0 0.0183773)
(-1.0943 0 0.0218807)
(-0.968847 0 0.017123)
(-1.104 0 0.01958)
(-0.976324 0 0.0163283)
(-1.11193 0 0.0183529)
(-0.98257 0 0.0153155)
(-1.11809 0 0.0173698)