/*--------------------------------*- C++ -*----------------------------------*\
  =========                 |
  \\      /  F ield         | OpenFOAM: The Open Source CFD Toolbox
   \\    /   O peration     | Website:  https://openfoam.org
    \\  /    A nd           | Version:  dev
     \\/     M anipulation  |
\*---------------------------------------------------------------------------*/
FoamFile
{
    version     2.0;
    format      ascii;
    class       volScalarField;
    location    "9";
    object      p;
}
// * * * * * * * * * * * * * * * * * * * * * * * * * * * * * * * * * * * * * //

dimensions      [0 2 -2 0 0 0 0];

internalField   nonuniform List<scalar> 
2790
(
146.694
146.601
146.868
147.44
148.22
149.177
150.309
151.616
153.093
154.734
156.533
158.484
160.578
162.803
165.144
167.58
170.084
172.623
175.155
177.629
179.987
182.165
184.095
185.715
186.975
187.849
188.285
188.34
188.391
188.604
146.491
146.509
146.801
147.369
148.146
149.1
150.228
151.528
152.998
154.63
156.42
158.361
160.444
162.658
164.988
167.413
169.909
172.443
174.973
177.451
179.819
182.014
183.969
185.617
186.901
187.776
188.172
188.227
188.359
188.644
146.292
146.38
146.691
147.249
148.012
148.954
150.067
151.349
152.797
154.405
156.167
158.077
160.125
162.301
164.589
166.971
169.423
171.914
174.406
176.853
179.203
181.396
183.368
185.058
186.408
187.384
187.977
188.332
188.648
188.946
146.067
146.186
146.51
147.059
147.808
148.733
149.826
151.084
152.503
154.078
155.802
157.667
159.666
161.787
164.015
166.333
168.718
171.141
173.568
175.958
178.265
180.437
182.419
184.158
185.613
186.765
187.632
188.303
188.856
189.375
145.807
145.939
146.271
146.813
147.545
148.449
149.517
150.744
152.126
153.657
155.331
157.141
159.077
161.127
163.279
165.515
167.813
170.148
172.49
174.803
177.048
179.183
181.166
182.956
184.526
185.869
186.999
187.961
188.772
189.519
145.506
145.644
145.979
146.51
147.223
148.101
149.137
150.326
151.663
153.143
154.758
156.501
158.362
160.33
162.391
164.529
166.724
168.953
171.19
173.406
175.568
177.646
179.608
181.429
183.092
184.593
185.939
187.145
188.165
189.083
145.163
145.302
145.634
146.153
146.842
147.69
148.689
149.834
151.12
152.54
154.087
155.753
157.528
159.401
161.358
163.384
165.46
167.566
169.679
171.775
173.83
175.822
177.729
179.54
181.245
182.846
184.34
185.719
186.883
187.93
144.779
144.916
145.24
145.742
146.406
147.22
148.177
149.273
150.5
151.853
153.324
154.903
156.582
158.348
160.188
162.088
164.029
165.993
167.961
169.913
171.83
173.698
175.505
177.248
178.926
180.545
182.1
183.572
184.822
185.972
144.352
144.486
144.799
145.282
145.917
146.693
147.604
148.645
149.808
151.087
152.473
153.958
155.53
157.178
158.889
160.648
162.438
164.241
166.041
167.819
169.563
171.261
172.909
174.51
176.072
177.607
179.116
180.586
181.857
183.095
143.886
144.014
144.314
144.775
145.377
146.112
146.973
147.954
149.048
150.246
151.541
152.923
154.38
155.9
157.47
159.074
160.695
162.318
163.924
165.498
167.026
168.501
169.919
171.287
172.62
173.94
175.26
176.598
177.799
179.103
143.38
143.502
143.787
144.223
144.791
145.481
146.288
147.205
148.224
149.337
150.534
151.806
153.139
154.522
155.939
157.375
158.813
160.234
161.621
162.956
164.224
165.414
166.522
167.55
168.515
169.445
170.375
171.375
172.338
173.656
142.838
142.953
143.221
143.629
144.16
144.804
145.554
146.403
147.343
148.365
149.459
150.614
151.817
153.054
154.31
155.566
156.805
158.006
159.148
160.21
161.172
162.015
162.724
163.29
163.717
164.028
164.273
164.582
164.965
166.139
142.261
142.368
142.618
142.997
143.489
144.084
144.773
145.552
146.409
147.337
148.323
149.357
150.423
151.508
152.593
153.66
154.687
155.651
156.526
157.285
157.898
158.333
158.556
158.532
158.23
157.634
156.762
155.773
154.828
155.334
141.652
141.751
141.981
142.33
142.781
143.324
143.952
144.657
145.429
146.259
147.134
148.042
148.968
149.895
150.803
151.672
152.478
153.192
153.783
154.215
154.445
154.423
154.085
153.354
152.132
150.306
147.747
144.451
140.511
138.482
141.013
141.103
141.313
141.63
142.039
142.529
143.093
143.723
144.408
145.138
145.9
146.679
147.461
148.226
148.954
149.621
150.199
150.655
150.951
151.042
150.869
150.359
149.414
147.9
145.623
142.294
137.456
130.45
120.007
107.813
0.557833
0.537934
0.468578
0.372556
0.273014
0.182
0.104384
0.0418372
-0.00548826
-0.038627
-0.0584353
-0.0672502
-0.0677912
-0.0626372
-0.054163
-0.0444512
-0.0351105
-0.0271737
-0.021126
-0.0170066
-0.0145147
-0.0131271
-0.0122535
-0.0114172
-0.0103547
-0.00900346
-0.00741622
-0.0056567
-0.00373126
-0.00158402
0.509252
0.486806
0.421516
0.332939
0.241137
0.156663
0.0840999
0.0253243
-0.0189766
-0.0485255
-0.0658327
-0.0727051
-0.0715789
-0.0649584
-0.0552511
-0.0445898
-0.0346102
-0.0263414
-0.0202274
-0.0162394
-0.013986
-0.0128448
-0.0121478
-0.0113951
-0.0103441
-0.00897477
-0.00737759
-0.00563229
-0.00373207
-0.00146037
0.454548
0.427769
0.365092
0.283578
0.20012
0.123174
0.0568006
0.00295772
-0.0375898
-0.0649908
-0.0795375
-0.0834569
-0.079426
-0.0699823
-0.0576828
-0.0448467
-0.0332265
-0.0238989
-0.0173342
-0.0134603
-0.0117313
-0.0112685
-0.0111495
-0.0107541
-0.00984879
-0.00851497
-0.00695097
-0.0052905
-0.00350878
-0.00139978
0.400488
0.369289
0.308418
0.232988
0.157321
0.0875944
0.0273222
-0.0215375
-0.0580864
-0.082295
-0.0941249
-0.0951372
-0.0879987
-0.0754029
-0.0602187
-0.0449807
-0.0315571
-0.0211183
-0.0141731
-0.0105946
-0.00962615
-0.0100399
-0.0105807
-0.0105186
-0.00969233
-0.00833583
-0.00678646
-0.00523406
-0.00364488
-0.00181087
0.360434
0.325111
0.265887
0.194907
0.124992
0.0604375
0.0045326
-0.040744
-0.0743312
-0.0958981
-0.105559
-0.104854
-0.0953227
-0.0800501
-0.0624409
-0.0452256
-0.03035
-0.0190533
-0.011875
-0.00864184
-0.00838532
-0.00955409
-0.0105801
-0.0106622
-0.00975385
-0.00824088
-0.00659682
-0.00505094
-0.00350926
-0.00183438
0.346541
0.306189
0.248192
0.17898
0.111426
0.0487131
-0.00572046
-0.0498414
-0.0825325
-0.103622
-0.113225
-0.110921
-0.0998384
-0.0829837
-0.064028
-0.0457128
-0.0300134
-0.0181997
-0.0108063
-0.00768831
-0.0079298
-0.00958588
-0.010865
-0.0110155
-0.0100681
-0.00847986
-0.00678674
-0.00524725
-0.00381507
-0.00197423
0.369669
0.321551
0.26289
0.191141
0.120963
0.0557686
-0.000790622
-0.0465912
-0.0803592
-0.101754
-0.112082
-0.111866
-0.101201
-0.0843378
-0.0653136
-0.046952
-0.031246
-0.0194651
-0.012142
-0.00899564
-0.00893438
-0.0102705
-0.0113882
-0.0114626
-0.010471
-0.00884951
-0.00712559
-0.005664
-0.0044355
-0.00216885
0.435177
0.378185
0.311012
0.23089
0.152339
0.0803411
0.0185032
-0.0312331
-0.0681019
-0.0925611
-0.10587
-0.107958
-0.0995383
-0.0845856
-0.0669281
-0.0494942
-0.034291
-0.0225745
-0.0149303
-0.0112392
-0.0105943
-0.0115189
-0.0125114
-0.0126216
-0.0116263
-0.00987661
-0.0079974
-0.00655872
-0.00538044
-0.00238997
0.545129
0.470715
0.385061
0.288975
0.197067
0.114863
0.0456227
-0.0093133
-0.0506766
-0.0799268
-0.0968265
-0.101438
-0.0959722
-0.0837572
-0.0683172
-0.0525106
-0.0382973
-0.0268903
-0.0189446
-0.0145789
-0.0132456
-0.0137756
-0.0147345
-0.014941
-0.0138721
-0.0117852
-0.00950388
-0.00784269
-0.00639404
-0.00261227
0.685878
0.580761
0.465871
0.347469
0.240285
0.14783
0.0706582
0.00910842
-0.0369385
-0.0686606
-0.087562
-0.0946675
-0.0919355
-0.0824094
-0.0694263
-0.0556846
-0.0428954
-0.0320475
-0.0238299
-0.0187317
-0.0167511
-0.0171164
-0.0183677
-0.0188856
-0.0176711
-0.0149034
-0.0117781
-0.00945557
-0.00736765
-0.00282339
0.827804
0.675948
0.532635
0.390269
0.265442
0.162833
0.0815157
0.0186005
-0.0283221
-0.0610561
-0.081208
-0.0899692
-0.0890739
-0.0814754
-0.0706187
-0.0590927
-0.0480793
-0.0379801
-0.0293917
-0.023374
-0.0207803
-0.0213776
-0.0235326
-0.0248268
-0.0234573
-0.0195189
-0.0148835
-0.0113255
-0.00826292
-0.0030166
0.947991
0.740052
0.555205
0.39414
0.262147
0.157537
0.0763176
0.014945
-0.0295913
-0.0604854
-0.0801052
-0.0892199
-0.0887475
-0.0816597
-0.0721026
-0.0628114
-0.054021
-0.0448776
-0.0356115
-0.0281871
-0.0248701
-0.0262408
-0.0302813
-0.0331843
-0.0317565
-0.0259355
-0.0188071
-0.0133283
-0.00905271
-0.00318685
0.992135
0.713391
0.498508
0.331236
0.206479
0.114769
0.0451281
-0.00734688
-0.043954
-0.0687992
-0.0856087
-0.0938784
-0.0921735
-0.083424
-0.0737591
-0.0667674
-0.0610514
-0.0532446
-0.0426598
-0.0327769
-0.0283092
-0.0311542
-0.0385942
-0.0445058
-0.0432998
-0.0345362
-0.0234349
-0.0152267
-0.00969979
-0.00333042
0.797454
0.433868
0.269293
0.16156
0.07861
0.0265123
-0.0142063
-0.0496733
-0.0722927
-0.0858134
-0.0977481
-0.105167
-0.100629
-0.0867121
-0.0744834
-0.070138
-0.0693831
-0.0638766
-0.0508892
-0.0365464
-0.029958
-0.0352115
-0.0483619
-0.0595575
-0.0591744
-0.0458661
-0.0284807
-0.016544
-0.010132
-0.00344544
0.145192
-0.294113
-0.23882
-0.140699
-0.135585
-0.10091
-0.0892176
-0.110848
-0.119207
-0.112573
-0.115599
-0.12366
-0.1152
-0.0907728
-0.0719926
-0.0717206
-0.0801039
-0.0790884
-0.0617374
-0.0390594
-0.0282822
-0.0371154
-0.0593864
-0.0794307
-0.0810281
-0.0607643
-0.0333715
-0.0163441
-0.0101809
-0.00353235
140.334
140.414
140.603
140.887
141.252
141.687
142.185
142.737
143.332
143.959
144.604
145.252
145.885
146.485
147.028
147.486
147.83
148.022
148.016
147.755
147.169
146.16
144.596
142.283
138.922
134.019
126.654
114.915
92.7893
33.1332
139.606
139.678
139.844
140.093
140.412
140.79
141.219
141.69
142.192
142.712
143.236
143.749
144.23
144.66
145.013
145.26
145.366
145.289
144.978
144.369
143.375
141.885
139.739
136.706
132.429
126.323
117.357
103.798
84.2797
55.8142
138.837
138.898
139.041
139.255
139.526
139.845
140.204
140.592
140.998
141.409
141.811
142.185
142.513
142.772
142.934
142.97
142.84
142.5
141.894
140.951
139.58
137.66
135.027
131.45
126.604
120.033
111.146
99.3029
85.0463
68.3712
138.026
138.077
138.196
138.373
138.596
138.855
139.142
139.445
139.755
140.057
140.335
140.571
140.746
140.834
140.809
140.638
140.28
139.689
138.806
137.56
135.858
133.584
130.585
126.664
121.575
115.023
106.71
96.3022
83.7333
68.5603
137.177
137.217
137.312
137.451
137.625
137.823
138.037
138.256
138.469
138.661
138.816
138.916
138.94
138.863
138.656
138.286
137.713
136.889
135.757
134.246
132.271
129.724
126.477
122.374
117.232
110.853
103.035
93.5332
82.1794
69.179
136.29
136.32
136.39
136.492
136.616
136.753
136.894
137.029
137.146
137.229
137.264
137.23
137.108
136.871
136.491
135.936
135.164
134.131
132.781
131.05
128.859
126.119
122.724
118.554
113.479
107.364
100.085
91.5429
81.7262
71.0472
135.369
135.388
135.434
135.498
135.572
135.649
135.718
135.77
135.792
135.77
135.687
135.525
135.262
134.874
134.334
133.607
132.657
131.441
129.908
128
125.652
122.788
119.327
115.182
110.264
104.495
97.8201
90.2269
81.7585
72.7506
134.416
134.426
134.446
134.473
134.499
134.516
134.515
134.485
134.415
134.29
134.095
133.81
133.416
132.887
132.199
131.319
130.213
128.841
127.16
125.119
122.664
119.737
116.277
112.223
107.524
102.138
96.0505
89.2828
81.8838
74.126
133.437
133.436
133.432
133.423
133.401
133.359
133.289
133.181
133.023
132.8
132.497
132.098
131.581
130.924
130.102
129.087
127.848
126.349
124.553
122.418
119.902
116.961
113.551
109.635
105.183
100.181
94.635
88.5782
82.0646
75.3219
132.434
132.423
132.396
132.35
132.282
132.184
132.048
131.865
131.622
131.307
130.904
130.398
129.769
128.997
128.058
126.927
125.577
123.977
122.097
119.904
117.364
114.446
111.123
107.371
103.179
98.5462
93.4916
88.0541
82.2867
76.3746
131.412
131.391
131.342
131.262
131.149
130.997
130.798
130.543
130.221
129.82
129.325
128.721
127.991
127.117
126.077
124.849
123.41
121.734
119.798
117.575
115.042
112.176
108.963
105.39
101.456
97.1711
92.559
87.6587
82.5183
77.2863
130.376
130.346
130.275
130.162
130.007
129.804
129.546
129.224
128.828
128.347
127.768
127.077
126.258
125.294
124.169
122.862
121.354
119.626
117.656
115.428
112.925
110.132
107.043
103.653
99.969
96.0054
91.7873
87.351
82.7385
78.0692
129.331
129.293
129.201
129.057
128.862
128.611
128.297
127.914
127.45
126.897
126.242
125.473
124.577
123.538
122.342
120.973
119.415
117.652
115.671
113.457
111
108.294
105.335
102.127
98.6795
95.0086
91.1392
87.1037
82.9381
78.7386
128.284
128.237
128.126
127.954
127.721
127.425
127.061
126.62
126.095
125.477
124.755
123.919
122.956
121.855
120.603
119.187
117.594
115.814
113.836
111.651
109.254
106.641
103.816
100.783
97.5551
94.1487
90.5868
86.8979
83.1123
79.3079
127.24
127.186
127.057
126.857
126.59
126.254
125.843
125.351
124.771
124.095
123.315
122.42
121.402
120.251
118.955
117.505
115.893
114.109
112.147
110.002
107.671
105.157
102.462
99.5956
96.5695
93.4006
90.1094
86.7205
83.2594
79.7893
126.206
126.144
125.999
125.775
125.476
125.103
124.65
124.112
123.484
122.758
121.927
120.984
119.921
118.73
117.402
115.931
114.309
112.532
110.596
108.498
106.24
103.823
101.255
98.5432
95.7014
92.7447
89.6914
86.5625
83.3794
80.1938
125.188
125.12
124.96
124.713
124.386
123.98
123.49
122.911
122.241
121.472
120.599
119.616
118.517
117.295
115.945
114.462
112.842
111.08
109.177
107.131
104.946
102.625
100.176
97.6083
94.9334
92.1656
89.3211
86.4178
83.4737
80.5312
124.193
124.119
123.946
123.679
123.327
122.891
122.368
121.755
121.048
120.243
119.335
118.32
117.193
115.95
114.587
113.1
111.488
109.748
107.882
105.891
103.779
101.55
99.2128
96.7763
94.2515
91.6513
88.9899
86.2825
83.5444
80.8104
123.229
123.15
122.965
122.68
122.306
121.845
121.293
120.65
119.912
119.077
118.141
117.1
115.953
114.696
113.326
111.843
110.244
108.531
106.705
104.769
102.728
100.586
98.3522
96.035
93.6447
91.1928
88.6917
86.1545
83.594
81.0392
122.302
122.219
122.023
121.724
121.33
120.846
120.271
119.602
118.839
117.979
117.021
115.962
114.8
113.535
112.165
110.689
109.109
107.425
105.64
103.758
101.784
99.7234
97.5843
95.3748
93.1043
90.7832
88.4222
86.0326
83.6255
81.2248
121.421
121.334
121.129
120.816
120.406
119.903
119.307
118.618
117.834
116.954
115.979
114.907
113.736
112.468
111.101
109.638
108.078
106.424
104.681
102.851
100.94
98.9543
96.9009
94.7878
92.6235
90.4172
88.1783
85.9167
83.6417
81.3735
120.593
120.503
120.29
119.966
119.542
119.023
118.41
117.703
116.902
116.008
115.02
113.939
112.764
111.496
110.137
108.687
107.149
105.527
103.823
102.042
100.19
98.272
96.2958
94.2683
92.1974
90.0914
87.9585
85.8073
83.646
81.4914
119.827
119.733
119.514
119.179
118.743
118.211
117.585
116.864
116.05
115.145
114.148
113.061
111.885
110.621
109.271
107.837
106.321
104.728
103.062
101.327
99.5278
97.6713
95.7636
93.8114
91.8221
89.8029
87.7614
85.7051
83.6411
81.5834
119.13
119.033
118.808
118.465
118.019
117.476
116.838
116.107
115.283
114.37
113.367
112.278
111.103
109.844
108.504
107.086
105.593
104.028
102.397
100.702
98.9514
97.1489
95.3012
93.4147
91.4958
89.5513
87.5879
85.6123
83.6309
81.6556
118.511
118.412
118.181
117.83
117.375
116.823
116.177
115.437
114.606
113.687
112.681
111.591
110.419
109.167
107.838
106.435
104.963
103.424
101.823
100.166
98.4566
96.7011
94.9051
93.0746
91.2156
89.3343
87.4368
85.529
83.6167
81.7099
117.979
117.877
117.641
117.283
116.821
116.262
115.608
114.862
114.026
113.104
112.096
111.007
109.838
108.593
107.275
105.887
104.433
102.917
101.344
99.718
98.0446
96.329
94.5766
92.7931
90.9841
89.1554
87.3124
85.4607
83.6057
81.7556
117.544
117.439
117.195
116.83
116.361
115.796
115.136
114.386
113.546
112.621
111.613
110.525
109.361
108.123
106.814
105.439
104.001
102.505
100.954
99.3547
97.7108
96.0277
94.3106
92.565
90.7961
89.0093
87.2097
85.4024
83.5923
81.7863
117.218
117.107
116.854
116.482
116.009
115.439
114.776
114.021
113.179
112.253
111.245
110.159
108.998
107.766
106.466
105.101
103.676
102.196
100.664
99.0849
97.4643
95.8067
94.1173
92.4012
90.6635
88.9092
87.1433
85.3705
83.5957
81.8249
117.016
116.882
116.612
116.234
115.758
115.185
114.52
113.763
112.92
111.994
110.987
109.903
108.746
107.518
106.224
104.867
103.452
101.982
100.463
98.8985
97.2936
95.6532
93.9823
92.2858
90.5686
88.8357
87.0916
85.3411
83.5886
81.8389
116.998
116.799
116.501
116.117
115.638
115.062
114.394
113.636
112.792
111.865
110.859
109.777
108.623
107.399
106.109
104.758
103.349
101.887
100.376
98.8213
97.2268
95.5975
93.9384
92.2543
90.55
88.8303
87.0997
85.3628
83.6239
81.8872
-50.426
-30.1558
-11.1039
35.4223
27.919
15.763
50.8243
38.7018
27.4425
52.2617
41.8219
33.7564
56.6057
48.303
41.5296
60.9961
54.0754
48.1727
64.2757
58.3856
53.3286
66.8791
61.8475
57.5326
69.0745
64.7371
61.0239
70.9283
67.1457
63.9154
72.4876
69.1544
66.3152
73.8019
70.8374
68.3172
74.9117
72.2524
69.9951
75.8493
73.4452
71.4065
76.6412
74.4522
72.5972
77.3094
75.3032
73.6036
77.872
76.022
74.4547
78.3444
76.6286
75.1743
78.7395
77.1393
75.782
79.0684
77.5679
76.2939
79.3407
77.9261
76.7237
79.5649
78.2244
77.0832
79.7478
78.4708
77.3819
79.8974
78.6744
77.6298
80.0163
78.8386
77.8312
80.1163
78.976
77.9986
80.1886
79.0782
78.1256
80.2618
79.1742
78.2388
80.2962
79.2249
78.3035
80.3654
79.3082
78.3933
-3.04092
-2.96628
-1.51884
-0.381319
-0.340932
-0.237798
-0.180413
-0.214665
-0.196766
-0.132448
-0.119193
-0.143062
-0.139917
-0.0991225
-0.0640565
-0.0693041
-0.0938852
-0.101196
-0.0759
-0.0377775
-0.0191614
-0.0338484
-0.0710043
-0.105926
-0.111888
-0.0809979
-0.0371792
-0.0127938
-0.0093689
-0.00359678
1.97881
-0.874943
0.724144
0.197671
-1.18239
-0.918188
-0.241505
-0.229685
-0.204562
-0.101212
-0.126463
-0.213871
-0.221007
-0.120122
-0.0282802
-0.0458429
-0.106561
-0.135854
-0.100923
-0.0346071
-0.000920087
-0.0249608
-0.0854183
-0.143886
-0.157654
-0.109891
-0.0380268
-0.00201649
-0.00622881
-0.00366188
13.1567
4.80264
1.96552
-0.497692
-0.783668
0.833638
0.969479
-0.488472
-0.829466
-0.440445
-0.103833
-0.203164
-0.220743
-0.0362062
0.0638574
-0.0202841
-0.155071
-0.22201
-0.15753
-0.0217226
0.0469637
0.00532997
-0.0919599
-0.187953
-0.218088
-0.148872
-0.0323232
0.0230662
0.00273252
-0.00381725
22.97
13.0678
7.16595
3.39798
1.70857
1.22611
-0.0606632
-0.738501
-0.267582
0.905571
0.724639
-0.376461
-0.742446
-0.476765
0.0615542
0.0837769
-0.154908
-0.279467
-0.170119
0.0514767
0.129836
0.04139
-0.115307
-0.270134
-0.330311
-0.232025
-0.0189339
0.0725157
0.0237055
-0.00433954
32.1605
22.3734
15.0414
9.75471
6.13335
3.66961
1.78684
0.807728
0.579633
0.532503
-2.00223e-05
-0.606224
-0.629602
0.474508
0.984569
0.262932
-0.322208
-0.6278
-0.538196
-0.0494571
0.228864
0.11826
-0.111827
-0.335687
-0.425348
-0.246414
0.0264163
0.161322
0.0640715
-0.00598372
40.1558
31.2128
23.3141
16.8786
11.9555
8.31883
5.65406
3.77935
2.51246
1.58961
0.818712
0.231913
0.0591015
0.420013
0.41448
0.109444
-0.364719
-0.632299
-0.287655
0.504357
0.638637
0.183378
-0.166259
-0.487013
-0.693504
-0.579566
0.00912909
0.288813
0.127625
-0.0111239
46.6824
38.8628
31.0746
24.1769
18.5518
14.0986
10.5809
7.82889
5.73596
4.16328
2.94588
2.00014
1.39445
1.11546
0.856016
0.493497
0.0150485
-0.260857
-0.101862
0.252151
0.384851
0.19277
-0.142051
-0.51803
-0.733391
-0.384071
0.382653
0.542673
0.205134
-0.024191
51.998
45.2555
37.987
31.1498
25.2649
20.3214
16.1833
12.7634
9.99794
7.78775
6.00538
4.57452
3.49685
2.73909
2.1372
1.53469
0.94602
0.555388
0.46899
0.556672
0.570945
0.352319
-0.0178423
-0.380733
-0.542387
-0.291629
0.171158
0.397183
0.304769
-0.0639018
56.3342
50.509
43.9161
37.436
31.615
26.5032
22.0354
18.1767
14.8982
12.1435
9.83803
7.92615
6.37985
5.15362
4.13994
3.23828
2.45032
1.85754
1.50652
1.31934
1.12078
0.789881
0.378066
0.0166951
-0.153968
-0.0368618
0.245321
0.39478
0.26087
-0.303165
59.8731
54.7993
48.89
42.8998
37.343
32.2977
27.7346
23.6495
20.0442
16.9001
14.1812
11.85
9.8743
8.21277
6.79938
5.57333
4.51935
3.66264
3.01565
2.52408
2.07744
1.5977
1.10598
0.685389
0.42675
0.377357
0.451496
0.434953
0.172192
-0.518139
62.7799
58.316
53.031
47.5587
42.3602
37.519
33.0223
28.8818
25.1186
21.7385
18.7299
16.0729
13.7447
11.7165
9.94848
8.40137
7.05463
5.90797
4.95639
4.16149
3.45594
2.78763
2.15809
1.61289
1.20551
0.954797
0.794582
0.576813
0.170807
-0.592908
65.1878
61.2211
56.4795
51.4978
46.6817
42.1101
37.7763
33.6975
29.9035
26.4133
23.2305
20.3498
17.76
15.4446
13.3806
11.5428
9.91308
8.48216
7.23843
6.1542
5.18698
4.30072
3.4882
2.77024
2.17335
1.69953
1.29776
0.866542
0.306708
-0.52205
67.1966
63.6392
59.3618
54.821
50.374
46.0915
41.9675
38.0192
34.2786
30.7704
27.5072
24.4932
21.7268
19.2013
16.905
14.8233
12.943
11.2537
9.74308
8.39099
7.16958
6.05364
5.03283
4.11282
3.30252
2.59497
1.95109
1.30126
0.575688
-0.331261
68.8819
65.6649
61.782
57.6284
53.5205
49.5206
45.6213
41.8374
38.1994
34.7339
31.4576
28.3806
25.5076
22.8389
20.3706
18.0959
16.0066
14.0945
12.3495
10.757
9.29842
7.95584
6.71845
5.58365
4.55024
3.60729
2.72492
1.85552
0.952646
-0.0564352
70.3014
67.3702
63.8229
60.0062
56.2022
52.4659
48.788
45.1801
41.6698
38.2829
35.0379
31.9475
29.0205
26.2618
23.6728
21.252
18.9956
16.8986
14.9537
13.151
11.4779
9.92161
8.47196
7.12263
5.8675
4.69449
3.58062
2.49327
1.40225
0.262545
71.5005
68.8106
65.55
62.0252
58.4904
54.994
51.5252
48.092
44.7187
41.4293
38.2423
35.1716
32.2279
29.4189
26.7496
24.222
21.8359
19.589
17.4772
15.4942
13.6314
11.8796
10.23
8.67527
7.20724
5.81418
4.47813
3.17616
1.88809
0.590266
72.515
70.03
67.0148
63.743
60.445
57.164
53.8878
50.6212
47.3851
44.2012
41.0871
38.0566
35.1214
32.2908
29.5717
26.9685
24.4836
22.1173
19.868
17.7319
15.7037
13.7767
11.9437
10.1975
8.52961
6.92923
5.38182
3.87027
2.37967
0.901224
73.3736
71.0629
68.2584
65.2059
62.1157
59.0265
55.925
52.8135
49.7094
46.6322
43.598
40.6199
37.7098
34.8774
32.1309
29.4763
26.9177
24.4573
22.0953
19.8303
17.6592
15.5772
13.5787
11.6571
9.8044
8.01074
6.26379
4.5496
2.85527
1.18106
74.0997
71.9378
69.3144
66.4519
63.5434
60.6239
57.6795
54.7099
51.7299
48.7564
45.8038
42.8846
40.0097
37.1892
34.4317
31.7441
29.1315
26.5976
24.1441
21.7711
19.4773
17.2594
15.1131
13.0326
11.0107
9.03833
7.10445
5.1965
3.30167
1.42479
74.7127
72.6777
70.2102
67.5122
64.7621
61.9921
59.1875
56.3464
53.4808
50.6054
47.7331
44.8749
42.0412
39.2417
36.4848
33.778
31.1271
28.5364
26.009
23.546
21.1473
18.8111
16.5338
14.3107
12.1352
9.99887
7.89129
5.80036
3.71241
1.63374
75.2287
73.302
70.9683
68.4125
65.8001
63.1609
60.4801
57.754
54.9924
52.208
49.4121
46.6145
43.8246
41.0515
38.3035
35.5877
32.9105
30.2768
27.6901
25.1526
22.6649
20.2262
17.8339
15.4838
13.1699
10.8843
8.61684
6.35538
4.08513
1.81207
75.6617
73.8271
71.608
69.1747
66.6814
64.1561
61.5838
58.9595
56.2912
53.5899
50.8651
48.1256
45.3798
42.636
39.9019
37.1847
34.4906
31.8247
29.191
26.5922
24.0295
21.5028
19.0101
16.5478
14.1104
11.6902
9.27732
6.85918
4.42009
1.96469
76.0228
74.2661
72.1448
69.8163
67.4254
64.9985
62.5204
59.9854
57.3997
54.7728
52.1128
49.4275
46.7242
44.0105
41.2935
38.58
35.8759
33.1865
30.5158
27.867
25.2417
22.64
20.0606
17.5003
14.9538
12.4137
9.87004
7.31011
4.71748
2.095
76.3229
74.6317
72.5931
70.3536
68.0499
65.707
63.3099
60.8522
58.3385
55.7771
53.1751
50.539
47.8753
45.1909
42.4922
39.7855
37.0765
34.3703
31.671
28.9819
26.3046
23.6399
20.9865
18.3415
15.6999
13.0545
10.3952
7.70918
4.97947
2.20671
76.5682
74.9314
72.9619
70.7969
68.5664
66.2942
63.9657
61.5736
59.1216
56.6167
54.0652
51.4726
48.8447
46.1874
43.5068
40.8086
38.0981
35.3803
32.6591
29.9377
27.2181
24.5009
21.7852
19.0683
16.3453
13.609
10.8495
8.05346
5.20399
2.29941
76.7705
75.1779
73.2651
71.1615
68.9912
66.7773
64.5055
62.1679
59.7675
57.3101
54.8014
52.2461
49.6493
47.0162
44.3524
41.663
38.9532
36.2275
33.4898
30.7432
27.9896
25.2298
22.4629
19.6862
16.8951
14.0823
11.2378
8.34828
5.39665
2.37821
76.9267
75.369
73.501
71.446
69.3236
67.1561
64.9295
62.6356
60.2766
57.8576
55.3836
52.8588
50.2877
47.675
45.0256
42.3445
39.6364
36.9055
34.1555
31.3896
28.6095
25.816
23.0083
20.1837
17.3376
14.4626
11.5488
8.5828
5.54754
2.4361
77.0589
75.5269
73.693
71.6749
69.5886
67.4563
65.264
63.0033
60.6757
58.2861
55.8388
53.3375
50.7863
48.1895
45.5517
42.8774
40.171
37.4367
34.678
31.8977
29.0977
26.2788
23.44
20.5788
17.6904
14.7674
11.7998
8.77408
5.67289
2.48559
77.1403
75.6245
73.8129
71.8199
69.758
67.6491
65.4797
63.2412
60.9349
58.565
56.1356
53.6502
51.1125
48.5265
45.8966
43.2271
40.5222
37.7858
35.0214
32.2317
29.4186
26.5827
23.723
20.8371
17.92
14.9643
11.9597
8.89246
5.74514
2.50551
77.2294
75.7147
73.9153
71.9373
69.8891
67.7928
65.6355
63.4088
61.1134
58.7536
56.3332
53.8556
51.3243
48.7433
46.1166
43.4487
40.7434
38.0049
35.2363
32.4405
29.6192
26.7732
23.9014
21.0013
18.0679
15.0939
12.0684
8.97683
5.79927
2.51189
)
;

boundaryField
{
    inlet
    {
        type            zeroGradient;
    }
    outlet
    {
        type            fixedValue;
        value           uniform 0;
    }
    flap
    {
        type            zeroGradient;
    }
    upperWall
    {
        type            zeroGradient;
    }
    lowerWall
    {
        type            zeroGradient;
    }
    frontAndBack
    {
        type            empty;
    }
}


// ************************************************************************* //
