/*--------------------------------*- C++ -*----------------------------------*\
  =========                 |
  \\      /  F ield         | OpenFOAM: The Open Source CFD Toolbox
   \\    /   O peration     | Website:  https://openfoam.org
    \\  /    A nd           | Version:  dev
     \\/     M anipulation  |
\*---------------------------------------------------------------------------*/
FoamFile
{
    version     2.0;
    format      ascii;
    class       surfaceScalarField;
    location    "9";
    object      phi;
}
// * * * * * * * * * * * * * * * * * * * * * * * * * * * * * * * * * * * * * //

dimensions      [0 3 -1 0 0 0 0];

internalField   nonuniform List<scalar> 
5457
(
0.198418
0.00158239
0.19648
0.00193739
0.194192
0.00228811
0.191508
0.00268362
0.188427
0.00308125
0.18495
0.00347683
0.181072
0.00387865
0.176778
0.00429411
0.172049
0.00472834
0.166864
0.00518536
0.161195
0.00566867
0.155014
0.00618121
0.148289
0.00672517
0.140987
0.00730155
0.133078
0.00790973
0.124531
0.00854668
0.115325
0.00920612
0.105447
0.00987739
0.0949032
0.0105443
0.0837195
0.0111837
0.0719548
0.0117647
0.0597065
0.0122483
0.0471178
0.0125886
0.0343778
0.01274
0.021683
0.0126948
0.00903301
0.01265
-0.00291905
0.0119521
-0.00847321
0.00555416
-0.00804338
-0.000429834
-0.00804338
0.199928
0.00165424
0.199176
0.00268985
0.197965
0.00349908
0.196331
0.00431684
0.194271
0.00514135
0.191781
0.00596697
0.188854
0.00680572
0.185477
0.00767108
0.181632
0.00857337
0.177297
0.00952091
0.172444
0.010521
0.167046
0.0115798
0.161069
0.0127021
0.15448
0.0138907
0.147244
0.015145
0.139331
0.01646
0.130713
0.0178243
0.121372
0.0192178
0.111307
0.0206093
0.100537
0.0219537
0.0891127
0.0231893
0.0771251
0.024236
0.0647191
0.0249946
0.0521118
0.0253474
0.0396518
0.0251548
0.0281023
0.0241994
0.0185919
0.0214625
0.0087942
0.0153519
0.00118202
0.00718234
-0.00686135
0.199781
0.00187369
0.199087
0.00338371
0.197946
0.00464004
0.196409
0.0058535
0.194483
0.00706754
0.192164
0.00828609
0.189446
0.00952324
0.186321
0.0107967
0.182773
0.0121214
0.178784
0.0135099
0.174331
0.0149732
0.16939
0.016521
0.163931
0.0181609
0.157924
0.0198981
0.151335
0.0217335
0.144133
0.0236621
0.136288
0.02567
0.127774
0.0277319
0.118576
0.0298064
0.108698
0.0318318
0.0981663
0.0337213
0.0870439
0.0353584
0.0754472
0.0365913
0.0635702
0.0372244
0.0517286
0.0369964
0.0403939
0.0355342
0.029736
0.0321203
0.0191639
0.025924
0.00959634
0.0167499
0.00273498
0.199703
0.00217064
0.199008
0.00407904
0.197887
0.0057606
0.196376
0.00736445
0.194488
0.00895571
0.192222
0.0105521
0.189574
0.012171
0.186538
0.0138327
0.183104
0.015556
0.179257
0.0173566
0.174982
0.0192484
0.170259
0.0212438
0.165067
0.0233528
0.159383
0.0255825
0.153181
0.0279355
0.146435
0.0304075
0.139121
0.0329847
0.131213
0.0356395
0.122694
0.0383259
0.113552
0.0409729
0.103795
0.0434784
0.0934526
0.0457011
0.0825914
0.0474526
0.0713287
0.0484871
0.059837
0.0484881
0.0483134
0.0470578
0.0368081
0.0436257
0.0251858
0.0375462
0.0133345
0.0286012
0.0160695
0.199667
0.00250323
0.198964
0.00478232
0.197863
0.00686194
0.196381
0.00884617
0.194532
0.0108045
0.192318
0.0127669
0.189734
0.0147549
0.186775
0.0167914
0.183433
0.0188978
0.179697
0.0210924
0.175554
0.0233915
0.170989
0.0258091
0.165985
0.0283568
0.160524
0.031043
0.154589
0.0338713
0.148158
0.0368383
0.141212
0.0399308
0.13373
0.0431213
0.125693
0.046363
0.117083
0.0495826
0.107889
0.0526721
0.0981102
0.0554803
0.0877602
0.0578026
0.0768742
0.059373
0.0655045
0.0598578
0.0537042
0.0588581
0.0414508
0.055879
0.0285855
0.0504116
0.0148511
0.0423355
0.0309206
0.199653
0.00285045
0.198949
0.0054864
0.197871
0.00793991
0.196427
0.0102904
0.194626
0.0126046
0.192473
0.0149204
0.189963
0.0172646
0.187092
0.0196624
0.183853
0.0221372
0.180235
0.0247098
0.176229
0.0273982
0.17182
0.0302179
0.166995
0.0331818
0.161739
0.0362992
0.156036
0.0395744
0.149869
0.0430052
0.14322
0.0465793
0.13607
0.050271
0.128398
0.0540357
0.120178
0.0578026
0.111383
0.0614668
0.101984
0.0648794
0.0919497
0.067837
0.0812489
0.0700739
0.0698493
0.0712575
0.0577124
0.070995
0.0447569
0.0688345
0.0308464
0.0643221
0.0158717
0.0573102
0.0467923
0.19965
0.0032004
0.198954
0.0061824
0.197904
0.00898957
0.196505
0.0116901
0.194762
0.0143469
0.19268
0.0170025
0.190257
0.0196883
0.187487
0.0224321
0.184365
0.0252594
0.180882
0.0281928
0.177028
0.0312523
0.172791
0.0344547
0.168159
0.0378141
0.163117
0.041341
0.15765
0.045041
0.151742
0.0489131
0.145374
0.0529472
0.138524
0.0571209
0.131166
0.0613943
0.123265
0.0657038
0.114777
0.069954
0.105649
0.0740076
0.095811
0.0776751
0.0851803
0.0807045
0.0736625
0.0827753
0.0611561
0.0835013
0.0475507
0.08244
0.0327553
0.0791175
0.0167811
0.0732844
0.0635734
0.199655
0.00354576
0.198975
0.00686253
0.197959
0.0100054
0.19661
0.0130389
0.194934
0.0160229
0.192933
0.0190031
0.190607
0.0220144
0.187952
0.0250874
0.184962
0.0282494
0.18163
0.0315251
0.177946
0.0349358
0.1739
0.0385002
0.169481
0.0422339
0.164673
0.0461487
0.159462
0.0502522
0.153829
0.0545457
0.147754
0.0590229
0.141208
0.0636661
0.13416
0.0684431
0.126562
0.0733012
0.118357
0.0781597
0.109463
0.0829009
0.09978
0.0873583
0.0891805
0.0913041
0.0775182
0.0944376
0.0646408
0.0963787
0.0504118
0.0966691
0.0347639
0.0947653
0.0177875
0.0902608
0.0813609
0.199664
0.00388159
0.199006
0.00752035
0.19803
0.0109816
0.196739
0.0143303
0.195137
0.017625
0.193227
0.020913
0.191009
0.0242323
0.18848
0.0276161
0.185636
0.0310935
0.18247
0.0346909
0.178975
0.0384314
0.17514
0.0423353
0.170954
0.0464199
0.166403
0.0506993
0.161471
0.0551835
0.15614
0.0598775
0.150383
0.0647796
0.14417
0.0698795
0.137458
0.0751552
0.13019
0.0805683
0.122292
0.0860582
0.11366
0.0915328
0.104161
0.0968575
0.0936258
0.101839
0.0818563
0.106207
0.0686413
0.109594
0.0537947
0.111516
0.037231
0.111329
0.0190803
0.108411
0.100441
0.199677
0.00420437
0.199047
0.00815061
0.198116
0.011913
0.196887
0.0155586
0.195366
0.0191459
0.193556
0.0227236
0.191456
0.0263322
0.189065
0.0300069
0.18638
0.0337788
0.183395
0.0376758
0.180103
0.0417227
0.176497
0.0459416
0.172565
0.0503518
0.168295
0.0549697
0.16367
0.0598087
0.158669
0.0648781
0.153266
0.0701827
0.147425
0.075721
0.141096
0.0814836
0.134215
0.0874498
0.12669
0.0935834
0.118398
0.0998248
0.109175
0.10608
0.0988099
0.112204
0.0870423
0.117975
0.0735796
0.123057
0.058139
0.126956
0.0405444
0.128924
0.0208971
0.128059
0.121338
0.199693
0.00451145
0.199095
0.008749
0.198213
0.0127946
0.197053
0.0167183
0.19562
0.0205793
0.193916
0.0244275
0.191943
0.0283053
0.1897
0.0322498
0.187185
0.0362939
0.184394
0.0404668
0.181322
0.044795
0.177961
0.0493022
0.174303
0.0540099
0.170335
0.0589372
0.166043
0.064101
0.161405
0.0695158
0.156394
0.0751935
0.150973
0.0811427
0.145088
0.0873683
0.138668
0.09387
0.131612
0.100639
0.123781
0.107655
0.114986
0.114875
0.104971
0.122219
0.0934065
0.12954
0.0798849
0.136578
0.0639552
0.142886
0.0452243
0.147655
0.0236054
0.149678
0.144944
0.199711
0.00480076
0.199148
0.00931201
0.19832
0.0136222
0.197234
0.0178046
0.195894
0.0219195
0.194303
0.0260178
0.192465
0.0301438
0.190379
0.034336
0.188044
0.0386287
0.185458
0.0430524
0.182618
0.0476351
0.179518
0.0524021
0.176151
0.0573768
0.172508
0.062581
0.168573
0.0680353
0.16433
0.0737594
0.159751
0.0797725
0.1548
0.0860938
0.149425
0.092743
0.143554
0.099741
0.137084
0.107109
0.129869
0.11487
0.121705
0.12304
0.112301
0.131622
0.101258
0.140583
0.0880285
0.149807
0.0719058
0.159009
0.0520709
0.16749
0.0278759
0.173873
0.17282
0.19973
0.0050707
0.199205
0.00983679
0.198435
0.0143922
0.197427
0.0188133
0.196185
0.0231615
0.194713
0.0274891
0.193016
0.0318412
0.191094
0.0362579
0.188948
0.0407745
0.186578
0.0454229
0.183981
0.0502318
0.181155
0.0552281
0.178095
0.0604369
0.174794
0.0658824
0.17124
0.0715886
0.16742
0.0775799
0.16331
0.0838823
0.158879
0.0905247
0.154081
0.0975407
0.148851
0.104971
0.143093
0.112867
0.13667
0.121293
0.12938
0.13033
0.120927
0.140075
0.110865
0.150645
0.0985215
0.162151
0.0828774
0.174653
0.0624124
0.187954
0.0351083
0.201177
0.207928
0.199751
0.00531999
0.199266
0.010321
0.198557
0.0151016
0.19763
0.0197408
0.19649
0.0243014
0.195142
0.0288364
0.193592
0.0333921
0.19184
0.0380094
0.18989
0.0427246
0.187743
0.0475701
0.185399
0.0525758
0.182857
0.0577695
0.180117
0.0631775
0.177173
0.0688261
0.17402
0.0747416
0.170647
0.0809524
0.16704
0.08749
0.163174
0.0943909
0.159014
0.1017
0.15451
0.109475
0.149586
0.117791
0.144132
0.126748
0.137979
0.136482
0.130868
0.147186
0.122384
0.159129
0.111833
0.172702
0.0979842
0.188501
0.0785005
0.207438
0.0486331
0.231044
0.256561
0.199772
0.00554768
0.19933
0.0107629
0.198684
0.015748
0.19784
0.0205844
0.196806
0.0253358
0.195586
0.030056
0.194186
0.0347921
0.19261
0.0395857
0.190861
0.0444733
0.188943
0.0494882
0.186859
0.0546604
0.18461
0.0600183
0.182198
0.0655892
0.179624
0.0714002
0.176886
0.0774795
0.173981
0.0838578
0.170901
0.09057
0.167634
0.0976577
0.164161
0.105173
0.160454
0.113183
0.156467
0.121778
0.152135
0.131079
0.147358
0.14126
0.141976
0.152568
0.135726
0.165379
0.128136
0.180292
0.118266
0.198371
0.103864
0.22184
0.077625
0.257283
0.334186
0.00384246
-0.00384246
0.00750907
-0.00366661
0.010532
-0.00302296
0.0128876
-0.00235557
0.0146479
-0.00176027
0.0158905
-0.00124266
0.0166814
-0.00079091
0.0170763
-0.00039486
0.0171338
-5.74961e-05
0.0168893
0.000244537
0.0164102
0.000479078
0.0157508
0.000659391
0.0149646
0.000786236
0.0141066
0.000858004
0.0132313
0.000875256
0.0123881
0.000843226
0.0116167
0.000771408
0.010944
0.00067264
0.0103821
0.000561943
0.00992703
0.00045505
0.00956215
0.000364884
0.00926503
0.000297116
0.00901552
0.000249516
0.0088001
0.000215412
0.00861254
0.000187568
0.00845086
0.000161681
0.00831316
0.000137691
0.00819483
0.000118333
0.00808961
0.000105223
8.40203e-05
0.00356892
-0.00741138
0.00699734
-0.00709503
0.0098875
-0.00591312
0.0122284
-0.00469649
0.0140921
-0.00362398
0.0155505
-0.00270103
0.0166626
-0.00190306
0.017474
-0.00120619
0.0180054
-0.000588965
0.01829
-4.00328e-05
0.0183152
0.000453876
0.018138
0.000836568
0.0178116
0.00111271
0.0173918
0.00127777
0.0169342
0.00133284
0.0164887
0.00128879
0.0160948
0.00116528
0.0157786
0.000988806
0.0155506
0.000789937
0.0154053
0.0006004
0.0153247
0.000445444
0.0152872
0.000334614
0.0152749
0.000261863
0.015277
0.00021326
0.01529
0.000174605
0.0153132
0.000138414
0.0153453
0.000105603
0.0153817
8.1926e-05
0.0154151
7.18778e-05
7.6864e-05
0.00303722
-0.0104486
0.00586445
-0.00992225
0.00821165
-0.00826032
0.0101115
-0.00659634
0.0116389
-0.00515138
0.0128537
-0.00391587
0.0138029
-0.00285223
0.0145233
-0.00192663
0.0150482
-0.00111382
0.0154047
-0.000396552
0.0156168
0.000241827
0.015675
0.000778389
0.0156167
0.00117096
0.0154866
0.00140792
0.0153273
0.0014921
0.0151757
0.00144044
0.0150599
0.00128099
0.0149983
0.00105046
0.0149959
0.000792349
0.0150442
0.000552065
0.0151237
0.000365945
0.0152137
0.000244605
0.0152993
0.000176332
0.0153729
0.000139625
0.0154343
0.000113141
0.015486
8.67494e-05
0.0155298
6.18142e-05
0.0155653
4.64747e-05
0.0155885
4.86482e-05
7.80899e-05
0.00245169
-0.0129003
0.00457002
-0.0120406
0.00625535
-0.00994565
0.00760776
-0.00794875
0.00870164
-0.00624527
0.00958113
-0.00479536
0.0102786
-0.00354971
0.0108175
-0.00246556
0.0112185
-0.00151479
0.0115083
-0.00068637
0.0117036
4.65885e-05
0.0117892
0.000692779
0.0117989
0.00116125
0.0117729
0.00143393
0.0117418
0.00152318
0.0117272
0.00145506
0.0117431
0.00126508
0.0117952
0.000998302
0.0118798
0.000707806
0.0119812
0.000450591
0.012073
0.000274158
0.0121345
0.00018312
0.0121553
0.000155538
0.0121356
0.000159352
0.0120832
0.000165554
0.0120077
0.000162253
0.011917
0.000152458
0.0118164
0.000147066
0.0117088
0.000156237
0.000178383
0.00177299
-0.0146733
0.00310236
-0.0133699
0.00405543
-0.0108987
0.00479866
-0.00869197
0.00539554
-0.00684215
0.00587557
-0.00527539
0.00625991
-0.00393405
0.00656155
-0.0027672
0.00678743
-0.00174067
0.00694231
-0.000841244
0.00706035
-7.14515e-05
0.00711589
0.000637231
0.00712359
0.00115356
0.00711963
0.00143789
0.00712231
0.00152051
0.00713764
0.00143972
0.00716328
0.00123944
0.00719061
0.000970967
0.00720709
0.000691334
0.00719457
0.000463109
0.007122
0.000346727
0.00698142
0.000323698
0.00677723
0.000359729
0.00652525
0.000411327
0.00624204
0.000448766
0.00594186
0.000462433
0.00563342
0.000460901
0.00532094
0.000459548
0.00501706
0.000460112
0.000415304
0.00100154
-0.0156748
0.00145588
-0.0138243
0.0016315
-0.0110743
0.00171848
-0.00877894
0.00175259
-0.00687626
0.00175971
-0.00528251
0.00175338
-0.00392773
0.00174371
-0.00275753
0.0017438
-0.00174075
0.00176724
-0.00086468
0.00172748
-3.16906e-05
0.001674
0.000690709
0.00160605
0.00122151
0.0015372
0.00150674
0.00145664
0.00160107
0.00133949
0.00155688
0.00115796
0.00142096
0.000892216
0.00123672
0.000538473
0.00104508
0.000118721
0.00088286
-0.000306902
0.00077235
-0.000720821
0.000737618
-0.00110828
0.000747187
-0.00146784
0.000770884
-0.00179944
0.000780373
-0.00210804
0.000771028
-0.00240024
0.000753102
-0.00267978
0.000739093
-0.00293515
0.000715478
0.000634745
5.22509e-05
-0.0157271
-0.000378193
-0.0133938
-0.00100194
-0.0104506
-0.00163054
-0.00815035
-0.0022372
-0.00626959
-0.00279136
-0.00472835
-0.00327915
-0.00343993
-0.00369855
-0.00233813
-0.00407504
-0.00136426
-0.0044624
-0.000477323
-0.00479524
0.000301154
-0.00502334
0.000918809
-0.00518105
0.00137921
-0.00535438
0.00168007
-0.00557539
0.00182208
-0.0058563
0.00183779
-0.00619694
0.00176161
-0.00658733
0.0016271
-0.00701168
0.00146943
-0.0074512
0.00132238
-0.00789128
0.00121244
-0.0083055
0.00115184
-0.00868111
0.00112279
-0.00900917
0.00109895
-0.00929025
0.00106145
-0.00952988
0.00101066
-0.00973713
0.000960359
-0.00991773
0.000919693
-0.0100739
0.000871627
0.000807038
-0.00090971
-0.0148174
-0.00234719
-0.0119564
-0.00382684
-0.00897094
-0.00526155
-0.00671564
-0.00657747
-0.00495367
-0.00775433
-0.00355149
-0.00878796
-0.0024063
-0.00968295
-0.00144314
-0.0104556
-0.000591625
-0.0110867
0.000153812
-0.0115302
0.000744591
-0.011838
0.00122664
-0.0120857
0.00162693
-0.012317
0.00191132
-0.0125672
0.00207232
-0.0128513
0.00212189
-0.0131696
0.00207987
-0.0135156
0.00197318
-0.0138818
0.00183556
-0.0142604
0.00170098
-0.0146416
0.00159367
-0.0150082
0.00151844
-0.015343
0.0014576
-0.0156317
0.00138758
-0.0158678
0.00129763
-0.0160553
0.00119808
-0.0162046
0.00110967
-0.0163269
0.00104204
-0.0164388
0.000983531
0.000940609
-0.00202982
-0.0127875
-0.00448669
-0.00949948
-0.00692578
-0.00653186
-0.00918395
-0.00445747
-0.0111783
-0.0029593
-0.0128934
-0.00183636
-0.0143462
-0.000953598
-0.015556
-0.000233257
-0.0164962
0.00034855
-0.017163
0.000820623
-0.0176487
0.00123028
-0.0180266
0.00160451
-0.0183211
0.00192143
-0.0185704
0.00216065
-0.0188101
0.00231204
-0.0190617
0.00237352
-0.0193326
0.0023507
-0.0196215
0.00226204
-0.0199253
0.00213939
-0.0202418
0.00201754
-0.0205666
0.00191842
-0.0208879
0.00183976
-0.0211882
0.00175793
-0.0214485
0.00164786
-0.0216562
0.00150533
-0.0218116
0.00135344
-0.0219263
0.00122437
-0.0220166
0.00113241
-0.022104
0.00107093
0.00104584
-0.00336328
-0.00942426
-0.00699068
-0.00587209
-0.0104356
-0.00308694
-0.0134675
-0.00142557
-0.0160347
-0.00039209
-0.0181184
0.000247363
-0.0197335
0.000661447
-0.0209332
0.00096647
-0.0218208
0.00123617
-0.0225048
0.00150456
-0.0230449
0.00177044
-0.0234613
0.00202085
-0.0237795
0.0022397
-0.0240352
0.00241632
-0.0242648
0.00254166
-0.0244939
0.00260264
-0.0247325
0.00258924
-0.02498
0.00250959
-0.0252354
0.00239474
-0.0255013
0.00228349
-0.0257805
0.00219754
-0.0260672
0.0021265
-0.0263444
0.00203519
-0.0265878
0.00189122
-0.0267773
0.00169481
-0.0269092
0.00148535
-0.0269977
0.00131289
-0.027065
0.00119973
-0.0271332
0.00113912
0.00112733
-0.0051787
-0.00424557
-0.0106442
-0.000406633
-0.015064
0.0013329
-0.0184859
0.00199638
-0.0210512
0.00217312
-0.0229745
0.00217072
-0.0244538
0.0021407
-0.0256152
0.00212788
-0.0265282
0.0021492
-0.0272439
0.0022202
-0.0278038
0.0023304
-0.0282344
0.00245144
-0.0285591
0.00256444
-0.0288117
0.0026689
-0.0290317
0.00276159
-0.0292477
0.00281866
-0.0294682
0.00280977
-0.0296884
0.00272981
-0.029906
0.00261231
-0.0301294
0.00250694
-0.0303711
0.00243919
-0.0306329
0.00238832
-0.030898
0.00230024
-0.0311344
0.00212762
-0.031312
0.00187244
-0.0314225
0.00159584
-0.0314851
0.00137549
-0.0315305
0.0012451
-0.0315806
0.00118928
0.00118759
-0.00795073
0.00370516
-0.0144576
0.00610029
-0.0191412
0.0060165
-0.0226184
0.00547353
-0.0252329
0.0047876
-0.0272071
0.00414494
-0.0287166
0.00365025
-0.0298809
0.00329215
-0.0307776
0.00304589
-0.0314726
0.00291517
-0.0320188
0.00287659
-0.0324419
0.00287455
-0.0327558
0.00287835
-0.032991
0.00290412
-0.0331944
0.00296497
-0.0334006
0.00302486
-0.0336131
0.00302232
-0.0338159
0.00293262
-0.0340011
0.00279747
-0.0341841
0.00268994
-0.0343915
0.00264664
-0.0346358
0.00263257
-0.0348993
0.00256379
-0.0351391
0.00236738
-0.0353101
0.00204345
-0.0353974
0.00168314
-0.0354289
0.00140704
-0.0354493
0.00126547
-0.0354818
0.00122176
0.0012288
-0.0100454
0.0137505
-0.0177939
0.0138488
-0.0231629
0.0113855
-0.026855
0.00916569
-0.0294711
0.00740369
-0.0313422
0.00601602
-0.0327382
0.00504623
-0.033814
0.00436794
-0.0346269
0.00385877
-0.0352461
0.00353438
-0.0357439
0.00337444
-0.0361422
0.00327287
-0.0364296
0.00316575
-0.0366275
0.00310199
-0.0367996
0.00313708
-0.036995
0.00322024
-0.0372088
0.00323612
-0.0374028
0.00312657
-0.0375559
0.00295056
-0.0376932
0.00282724
-0.0378639
0.00281736
-0.0380958
0.00286448
-0.0383696
0.00283758
-0.0386253
0.00262307
-0.0387955
0.00221368
-0.0388546
0.00174223
-0.0388443
0.00139671
-0.0388332
0.00125443
-0.0388494
0.00123795
0.00125453
-0.0133119
0.0270624
-0.0229162
0.0234532
-0.0283338
0.0168031
-0.0316095
0.0124414
-0.03392
0.00971414
-0.0354348
0.00753084
-0.036526
0.00613738
-0.0374215
0.0052635
-0.0380904
0.00452766
-0.0385747
0.00401872
-0.0389903
0.00378997
-0.0393582
0.00364083
-0.0396088
0.00341628
-0.0397402
0.00323337
-0.0398544
0.00325137
-0.0400351
0.00340088
-0.0402637
0.00346478
-0.0404604
0.00332326
-0.0405775
0.00306763
-0.0406542
0.00290398
-0.0407781
0.00294125
-0.0410012
0.00308759
-0.0412997
0.003136
-0.0415879
0.00291131
-0.0417651
0.00239087
-0.0417872
0.00176434
-0.0417162
0.00132576
-0.0416628
0.00120097
-0.0416672
0.0012424
0.00127314
-0.0189442
0.0460065
-0.0305945
0.0351035
-0.0353598
0.0215684
-0.036991
0.0140726
-0.0386577
0.0113809
-0.0394251
0.00829823
-0.039929
0.00664126
-0.0406407
0.0059752
-0.0411836
0.00507055
-0.0414538
0.00428891
-0.0417288
0.00406498
-0.0420697
0.0039817
-0.042282
0.00362866
-0.0423065
0.00325785
-0.0423186
0.00326343
-0.0424819
0.00356418
-0.0427527
0.00373555
-0.0429733
0.00354387
-0.0430445
0.00313882
-0.0430292
0.0028887
-0.0430833
0.00299541
-0.0432985
0.00330276
-0.0436395
0.00347695
-0.0439825
0.00325432
-0.0441774
0.00258582
-0.0441487
0.00173561
-0.0439857
0.00116277
-0.043871
0.00108629
-0.0438744
0.00124575
0.00130517
0.207447
0.00576044
0.207034
0.0111755
0.206432
0.0163506
0.205647
0.0213688
0.204688
0.026295
0.203561
0.0311834
0.202271
0.0360816
0.200825
0.0410314
0.199229
0.0460696
0.197488
0.0512295
0.195607
0.0565412
0.193592
0.0620332
0.191449
0.0677327
0.189182
0.0736672
0.186796
0.0798653
0.184295
0.0863582
0.181683
0.0931819
0.178962
0.100379
0.17613
0.108005
0.173187
0.116126
0.170128
0.124837
0.166947
0.134259
0.163641
0.144566
0.16021
0.156
0.156675
0.168914
0.153129
0.183837
0.149935
0.201566
0.14876
0.223015
0.160369
0.245675
0.258905
0.23565
0.21249
0.00595286
0.212118
0.0115484
0.211574
0.0168941
0.210868
0.0220747
0.210008
0.0271554
0.209
0.0321909
0.207853
0.0372287
0.206574
0.0423105
0.205171
0.0474732
0.20365
0.0527495
0.202023
0.0581692
0.200296
0.0637601
0.19848
0.0695488
0.196585
0.0755619
0.194623
0.0818271
0.192607
0.0883743
0.190551
0.0952376
0.188473
0.102458
0.186394
0.110084
0.184342
0.118178
0.182358
0.126821
0.180502
0.136115
0.178873
0.146195
0.177641
0.157231
0.177128
0.169427
0.177985
0.18298
0.181624
0.197927
0.190642
0.213997
0.206041
0.230275
0.245848
0.219099
0.217658
0.00612278
0.217329
0.0118773
0.21685
0.0173728
0.21623
0.0226943
0.215478
0.0279078
0.214601
0.0330675
0.213609
0.0382208
0.212511
0.0434091
0.211315
0.0486685
0.210034
0.054031
0.208678
0.0595253
0.20726
0.0651781
0.205794
0.0710144
0.204297
0.077059
0.202787
0.0833369
0.201286
0.0898752
0.199821
0.0967033
0.198423
0.103856
0.197134
0.111372
0.196011
0.119301
0.195132
0.127701
0.194609
0.136638
0.194612
0.146192
0.195405
0.156439
0.197397
0.167435
0.201197
0.179179
0.207577
0.191547
0.217198
0.204376
0.229787
0.217686
0.2289
0.246735
0.222951
0.00626822
0.22267
0.0121586
0.222262
0.0177809
0.221736
0.0232206
0.2211
0.0285433
0.220365
0.0338029
0.219539
0.0390463
0.218634
0.044314
0.217662
0.049641
0.216634
0.0550582
0.215567
0.0605926
0.214476
0.0662691
0.21338
0.0721103
0.212301
0.0781382
0.211264
0.0843742
0.210299
0.0908402
0.209442
0.0975595
0.208741
0.104557
0.208252
0.111861
0.208054
0.1195
0.208247
0.127507
0.208972
0.135913
0.210423
0.144741
0.212863
0.153999
0.216638
0.16366
0.222168
0.173649
0.229903
0.183811
0.240418
0.193861
0.254632
0.203472
0.210392
0.27314
0.228374
0.00638733
0.228144
0.0123886
0.227812
0.0181134
0.227385
0.0236468
0.226875
0.0290539
0.22629
0.034388
0.225641
0.0396948
0.224942
0.0450136
0.224205
0.0503782
0.223445
0.0558176
0.222681
0.061357
0.221931
0.0670185
0.22122
0.0728221
0.220572
0.0787858
0.22002
0.0849263
0.2196
0.0912597
0.219358
0.0978013
0.21935
0.104566
0.219644
0.111567
0.220329
0.118815
0.221517
0.126319
0.223353
0.134076
0.226024
0.142071
0.229758
0.150264
0.234837
0.158581
0.24159
0.166896
0.250397
0.175005
0.261704
0.182554
0.275987
0.189189
0.193823
0.292556
0.233929
0.00647841
0.233754
0.012564
0.233502
0.0183656
0.233182
0.0239671
0.232803
0.0294326
0.232376
0.0348145
0.231914
0.040157
0.23143
0.045498
0.230938
0.0508695
0.230458
0.0562985
0.230007
0.0618076
0.229609
0.0674161
0.229291
0.0731405
0.229082
0.0789945
0.229019
0.0849896
0.229144
0.0911352
0.229507
0.0974382
0.230169
0.103903
0.231206
0.11053
0.232709
0.117313
0.234789
0.124239
0.237582
0.131283
0.241253
0.138401
0.245993
0.145524
0.252025
0.15255
0.259589
0.159331
0.268931
0.165664
0.280228
0.171257
0.29358
0.175837
0.178892
0.308511
0.23962
0.00653997
0.239502
0.0126821
0.239334
0.0185333
0.239125
0.0241761
0.238884
0.0296732
0.238623
0.0350754
0.238355
0.0404255
0.238094
0.0457594
0.237856
0.051107
0.237662
0.0564931
0.237532
0.0619374
0.237492
0.0674563
0.23757
0.0730621
0.2378
0.0787642
0.238221
0.0845688
0.238878
0.0904784
0.239824
0.0964923
0.241122
0.102605
0.242846
0.108805
0.245085
0.115074
0.247942
0.121383
0.251535
0.12769
0.256001
0.133934
0.26149
0.140035
0.268158
0.145882
0.276155
0.151334
0.285603
0.156216
0.296547
0.160312
0.308978
0.163406
0.165231
0.322639
0.245448
0.00657075
0.24539
0.0127403
0.24531
0.0186131
0.245217
0.0242696
0.245119
0.0297707
0.245029
0.0351654
0.24496
0.0404945
0.244928
0.045792
0.244949
0.0510855
0.245045
0.0563969
0.245239
0.0617436
0.245558
0.0671381
0.24603
0.0725892
0.246693
0.0781018
0.247585
0.0836767
0.248753
0.0893106
0.250249
0.0949957
0.252136
0.100718
0.254482
0.106459
0.257368
0.112188
0.260884
0.117868
0.265126
0.123447
0.270201
0.128859
0.276216
0.134021
0.283269
0.138829
0.291444
0.14316
0.300786
0.146873
0.311287
0.149812
0.322878
0.151815
0.152752
0.335358
0.251418
0.00656973
0.251422
0.0127368
0.251432
0.0186023
0.251458
0.0242443
0.251507
0.0297213
0.251592
0.0350804
0.251726
0.0403603
0.251926
0.0455925
0.252209
0.0508023
0.252597
0.0560091
0.253113
0.061227
0.253786
0.0664655
0.254646
0.0717296
0.255727
0.0770201
0.257071
0.0823333
0.258721
0.0876606
0.260728
0.0929885
0.263149
0.0982976
0.266046
0.103561
0.269488
0.108746
0.273548
0.113808
0.278302
0.118693
0.283826
0.123335
0.29019
0.127657
0.29745
0.131569
0.30564
0.134969
0.314763
0.13775
0.324773
0.139802
0.335572
0.141017
0.141337
0.346987
0.257532
0.00653617
0.257599
0.0126701
0.257702
0.018499
0.257849
0.0240978
0.258048
0.0295227
0.25831
0.0348183
0.258649
0.040021
0.259081
0.0451601
0.259625
0.0502581
0.260303
0.0553319
0.261137
0.0603926
0.262156
0.0654468
0.263389
0.0704962
0.264871
0.0755379
0.26664
0.0805642
0.268738
0.0855629
0.271211
0.0905161
0.274108
0.0954005
0.277483
0.100186
0.281392
0.104837
0.285892
0.109308
0.291037
0.113547
0.296879
0.117494
0.303456
0.12108
0.310794
0.124231
0.318894
0.126869
0.32773
0.128915
0.337237
0.130295
0.347311
0.130943
0.130839
0.357809
0.263794
0.00646959
0.263925
0.0125393
0.264122
0.018302
0.264391
0.023829
0.26474
0.0291738
0.265179
0.0343786
0.265723
0.0394771
0.266387
0.0444963
0.267189
0.0494561
0.26815
0.0543708
0.269294
0.0592491
0.270646
0.0640946
0.272236
0.0689062
0.274096
0.073678
0.27626
0.0783997
0.278767
0.083056
0.281657
0.0876267
0.284971
0.0920863
0.288753
0.0964039
0.293047
0.100543
0.297893
0.104462
0.303328
0.108112
0.30938
0.111441
0.316068
0.114392
0.323392
0.116907
0.331334
0.118927
0.339851
0.120398
0.348873
0.121273
0.358301
0.121515
0.121124
0.368016
0.270207
0.00636982
0.270402
0.0123442
0.270693
0.018011
0.271084
0.0234378
0.271583
0.0286751
0.272199
0.0337623
0.272945
0.0387308
0.273837
0.0436048
0.274891
0.0484021
0.276127
0.0531345
0.277568
0.0578082
0.279238
0.0624246
0.281164
0.0669802
0.283375
0.0714672
0.285902
0.075873
0.288777
0.0801808
0.292034
0.0843694
0.295708
0.0884129
0.29983
0.0922812
0.304434
0.09594
0.309544
0.0993509
0.315184
0.102473
0.321364
0.105261
0.328085
0.107671
0.335333
0.109658
0.343078
0.111182
0.35127
0.112206
0.359838
0.112704
0.368695
0.112658
0.112079
0.37774
0.276774
0.00623697
0.277033
0.012085
0.277417
0.0176266
0.27793
0.0229252
0.278577
0.0280282
0.279367
0.0329723
0.280311
0.0377862
0.281424
0.0424918
0.282722
0.0471045
0.284222
0.051634
0.285946
0.0560845
0.287915
0.0604554
0.290154
0.0647417
0.292687
0.068934
0.295541
0.0730188
0.298743
0.0769787
0.30232
0.0807925
0.306298
0.0844353
0.3107
0.0878793
0.315546
0.0910934
0.320852
0.0940446
0.326627
0.0966979
0.33287
0.0990184
0.339569
0.100972
0.346701
0.102526
0.354229
0.103654
0.362102
0.104334
0.370254
0.104552
0.378607
0.104305
0.10361
0.387076
0.283498
0.00607141
0.283821
0.0117624
0.284297
0.01715
0.284929
0.0222932
0.285721
0.0272362
0.286681
0.0320128
0.287818
0.0366493
0.289144
0.0411651
0.290675
0.0455737
0.292427
0.0498826
0.294416
0.0540946
0.296664
0.0582078
0.29919
0.0622158
0.302015
0.0661087
0.305162
0.0698725
0.30865
0.0734904
0.3125
0.076942
0.316731
0.0802046
0.321357
0.0832532
0.32639
0.086061
0.331834
0.0886003
0.337689
0.0908431
0.343944
0.0927626
0.350583
0.0943337
0.357574
0.0955348
0.364879
0.096349
0.372447
0.0967653
0.38022
0.0967798
0.388128
0.0963961
0.0956346
0.396103
0.290384
0.00587378
0.290769
0.0113779
0.291335
0.0165833
0.292083
0.0215449
0.293016
0.0263033
0.29414
0.0308896
0.295462
0.0353274
0.296992
0.0396343
0.298745
0.0438215
0.300732
0.0478953
0.302969
0.051857
0.305474
0.0557036
0.308261
0.0594285
0.311348
0.0630213
0.314752
0.0664688
0.318488
0.0697547
0.322569
0.0728608
0.327007
0.0757668
0.331809
0.0784511
0.336978
0.0808914
0.342513
0.0830653
0.348405
0.0849513
0.354638
0.0865297
0.361189
0.0877831
0.368025
0.0886982
0.375108
0.0892659
0.382391
0.0894827
0.38982
0.0893508
0.397337
0.0888787
0.0880875
0.404884
0.297435
0.00564495
0.297879
0.010933
0.298534
0.0159293
0.299394
0.020684
0.300463
0.0252346
0.301744
0.0296092
0.303242
0.0338293
0.304966
0.0379101
0.306926
0.0418614
0.309133
0.0456882
0.311599
0.0493907
0.314338
0.0529655
0.31736
0.0564058
0.32068
0.0597016
0.324308
0.0628406
0.328255
0.0658081
0.332528
0.0685879
0.337132
0.0711626
0.342069
0.0735143
0.347335
0.075625
0.352923
0.0774773
0.358819
0.0790554
0.365003
0.0803456
0.371449
0.0813369
0.378126
0.082022
0.384994
0.0823977
0.392011
0.0824654
0.39913
0.0822316
0.406302
0.0817071
0.0809127
0.413477
0.304654
0.00538599
0.305157
0.01043
0.305895
0.0151911
0.306864
0.0197151
0.308063
0.024036
0.309493
0.0281794
0.311158
0.0321643
0.313064
0.0360042
0.315217
0.0397075
0.317628
0.0432779
0.320303
0.0467152
0.323253
0.0500158
0.326486
0.0531731
0.330009
0.0561778
0.333831
0.0590189
0.337956
0.0616835
0.342386
0.0641577
0.347121
0.0664272
0.352158
0.0684775
0.357488
0.0702946
0.3631
0.0718657
0.368976
0.0731798
0.375093
0.074228
0.381426
0.0750042
0.387942
0.0755059
0.394606
0.0757337
0.401379
0.0756926
0.408219
0.0753911
0.415085
0.0748414
0.074063
0.421935
0.312046
0.00509811
0.312605
0.00987113
0.313424
0.0143723
0.314496
0.0186431
0.315818
0.0227141
0.317389
0.0266083
0.31921
0.0303427
0.321286
0.0339289
0.323619
0.0373741
0.326216
0.0406812
0.329081
0.0438498
0.332221
0.0468763
0.335639
0.0497544
0.339341
0.0524761
0.343328
0.0550317
0.347601
0.0574102
0.352159
0.0596003
0.356996
0.0615903
0.362104
0.063369
0.367473
0.0649262
0.373086
0.0662527
0.378924
0.0673415
0.384964
0.0681877
0.39118
0.0687888
0.39754
0.0691455
0.404012
0.0692613
0.410562
0.0691432
0.417152
0.0688007
0.423748
0.0682462
0.067498
0.430313
0.319615
0.00478263
0.320227
0.0092591
0.321122
0.013477
0.322292
0.0174735
0.32373
0.0212759
0.325434
0.0249047
0.327402
0.0283748
0.329634
0.0316964
0.332133
0.0348756
0.334899
0.0379147
0.337936
0.040813
0.341245
0.0435673
0.344827
0.046172
0.348683
0.0486202
0.352811
0.0509037
0.357208
0.0530136
0.361867
0.0549407
0.366782
0.0566761
0.371939
0.0582113
0.377326
0.0595393
0.382925
0.060654
0.388715
0.0615516
0.394673
0.0622299
0.400772
0.0626895
0.406984
0.0629331
0.41328
0.062966
0.419627
0.062796
0.425994
0.0624334
0.43235
0.06189
0.0611824
0.438666
0.327365
0.00444091
0.328028
0.00859658
0.328995
0.0125092
0.330257
0.0162117
0.331805
0.0197284
0.333632
0.0230772
0.335736
0.0262711
0.338113
0.029319
0.340763
0.0322259
0.343684
0.0349938
0.346875
0.037622
0.350335
0.0401075
0.354061
0.0424459
0.35805
0.044631
0.362297
0.0466564
0.366796
0.048515
0.371537
0.0501996
0.37651
0.0517036
0.3817
0.0530212
0.387091
0.0541477
0.392666
0.0550796
0.398402
0.0558154
0.404276
0.0563553
0.410264
0.0567015
0.416339
0.0568582
0.422473
0.0568318
0.428639
0.0566303
0.434809
0.0562638
0.440955
0.0557436
0.0550844