/*--------------------------------*- C++ -*----------------------------------*\
  =========                 |
  \\      /  F ield         | OpenFOAM: The Open Source CFD Toolbox
   \\    /   O peration     | Website:  https://openfoam.org
    \\  /    A nd           | Version:  dev
     \\/     M anipulation  |
\*---------------------------------------------------------------------------*/
FoamFile
{
    version     2.0;
    format      ascii;
    class       volVectorField;
    location    "9";
    object      U;
}
// * * * * * * * * * * * * * * * * * * * * * * * * * * * * * * * * * * * * * //

dimensions      [0 1 -1 0 0 0 0];

internalField   nonuniform List<vector> 
2790
(
(9.94399 0 0.0205235)
(9.87572 0 0.0295882)
(9.7752 0 0.0359904)
(9.64943 0 0.0425574)
(9.50408 0 0.049387)
(9.34005 0 0.0564304)
(9.15652 0 0.0638184)
(8.95259 0 0.0717147)
(8.72742 0 0.080259)
(8.48003 0 0.089578)
(8.2092 0 0.0997989)
(7.91356 0 0.111052)
(7.59158 0 0.123468)
(7.24166 0 0.137173)
(6.86219 0 0.152282)
(6.45163 0 0.168881)
(6.0087 0 0.187009)
(5.53248 0 0.206631)
(5.02275 0 0.227603)
(4.48021 0 0.249623)
(3.90691 0 0.272187)
(3.30658 0 0.294533)
(2.68503 0 0.315625)
(2.05038 0 0.33429)
(1.41157 0 0.350604)
(0.79784 0 0.372884)
(0.110439 0 0.324955)
(-0.469577 0 -0.114909)
(-0.453808 0 -0.297114)
(-0.231165 0 -0.423843)
(9.9985 0 0.0407038)
(9.98145 0 0.0623845)
(9.93574 0 0.0791427)
(9.86415 0 0.0966283)
(9.77096 0 0.115128)
(9.65713 0 0.134494)
(9.52203 0 0.154982)
(9.36482 0 0.176952)
(9.18467 0 0.200718)
(8.98062 0 0.226562)
(8.75146 0 0.254759)
(8.4958 0 0.285577)
(8.2121 0 0.319269)
(7.8987 0 0.356044)
(7.5539 0 0.396044)
(7.17604 0 0.439288)
(6.76361 0 0.485619)
(6.31546 0 0.534614)
(5.83104 0 0.585487)
(5.31065 0 0.636976)
(4.75591 0 0.687221)
(4.17016 0 0.733657)
(3.55905 0 0.772955)
(2.93131 0 0.801085)
(2.29972 0 0.813731)
(1.69276 0 0.807228)
(1.10697 0 0.747193)
(0.658779 0 0.547858)
(0.186261 0 0.224503)
(-0.00819774 0 -0.453778)
(9.99559 0 0.0432084)
(9.97556 0 0.0752745)
(9.9318 0 0.10335)
(9.86489 0 0.132377)
(9.77777 0 0.163067)
(9.67153 0 0.195408)
(9.54585 0 0.229754)
(9.4001 0 0.266617)
(9.23361 0 0.306487)
(9.04558 0 0.349827)
(8.83502 0 0.397095)
(8.60073 0 0.448748)
(8.34135 0 0.505222)
(8.05539 0 0.566897)
(7.74125 0 0.634047)
(7.39729 0 0.70677)
(7.02194 0 0.784877)
(6.61377 0 0.867763)
(6.17173 0 0.954231)
(5.69542 0 1.04229)
(5.1854 0 1.12891)
(4.64372 0 1.2098)
(4.07455 0 1.27916)
(3.48514 0 1.32932)
(2.88662 0 1.35005)
(2.29927 0 1.32637)
(1.73168 0 1.22069)
(1.21613 0 0.972907)
(0.701056 0 0.570037)
(0.357986 0 -0.156711)
(9.99403 0 0.0495012)
(9.97181 0 0.0932101)
(9.92788 0 0.133578)
(9.86224 0 0.174217)
(9.77692 0 0.216444)
(9.67296 0 0.260674)
(9.55029 0 0.307446)
(9.40846 0 0.357434)
(9.24698 0 0.411313)
(9.06528 0 0.469732)
(8.86262 0 0.533333)
(8.63812 0 0.602759)
(8.39076 0 0.678632)
(8.11941 0 0.761518)
(7.82287 0 0.851868)
(7.49987 0 0.949925)
(7.14908 0 1.0556)
(6.76926 0 1.16829)
(6.3593 0 1.28665)
(5.91838 0 1.40831)
(5.4463 0 1.5295)
(4.94376 0 1.6447)
(4.41293 0 1.74614)
(3.85803 0 1.82319)
(3.2856 0 1.86131)
(2.7062 0 1.84025)
(2.12548 0 1.72589)
(1.55413 0 1.47773)
(0.957869 0 1.08354)
(0.509398 0 0.502163)
(9.99331 0 0.0572161)
(9.96994 0 0.110964)
(9.92593 0 0.162111)
(9.86145 0 0.213358)
(9.77798 0 0.26637)
(9.67633 0 0.32193)
(9.55652 0 0.380722)
(9.41818 0 0.443512)
(9.26093 0 0.511085)
(9.08428 0 0.584203)
(8.88764 0 0.663626)
(8.67031 0 0.750107)
(8.4315 0 0.844384)
(8.17035 0 0.947138)
(7.88595 0 1.05894)
(7.57734 0 1.18014)
(7.2435 0 1.31075)
(6.88343 0 1.45024)
(6.49608 0 1.59728)
(6.08051 0 1.74937)
(5.63593 0 1.90245)
(5.16188 0 2.05034)
(4.65853 0 2.18417)
(4.12697 0 2.29171)
(3.56917 0 2.35649)
(2.98868 0 2.35722)
(2.38665 0 2.26481)
(1.76625 0 2.04747)
(1.0899 0 1.69119)
(0.536614 0 1.15393)
(9.99302 0 0.0655416)
(9.96923 0 0.128707)
(9.92556 0 0.190123)
(9.86252 0 0.251856)
(9.78127 0 0.315594)
(9.68243 0 0.382338)
(9.56599 0 0.452899)
(9.43168 0 0.52813)
(9.27916 0 0.608914)
(9.10801 0 0.696124)
(8.91771 0 0.790625)
(8.70767 0 0.893276)
(8.47719 0 1.00491)
(8.22557 0 1.12632)
(7.95203 0 1.25816)
(7.65575 0 1.40089)
(7.33587 0 1.55462)
(6.99146 0 1.71894)
(6.62148 0 1.89262)
(6.22478 0 2.07328)
(5.80004 0 2.2569)
(5.34579 0 2.43723)
(4.86045 0 2.60519)
(4.34244 0 2.74818)
(3.79014 0 2.84946)
(3.20234 0 2.88807)
(2.57637 0 2.83805)
(1.91331 0 2.67139)
(1.17265 0 2.37374)
(0.549922 0 1.89412)
(9.99297 0 0.0740782)
(9.96926 0 0.146321)
(9.92637 0 0.217494)
(9.86508 0 0.289306)
(9.78641 0 0.363373)
(9.69083 0 0.44085)
(9.57833 0 0.522688)
(9.44869 0 0.609844)
(9.30161 0 0.703295)
(9.13673 0 0.804011)
(8.95359 0 0.912953)
(8.75163 0 1.03107)
(8.53025 0 1.15929)
(8.28877 0 1.29847)
(8.02647 0 1.44938)
(7.74255 0 1.61257)
(7.43613 0 1.78828)
(7.10622 0 1.97625)
(6.7516 0 2.17549)
(6.37078 0 2.38389)
(5.96185 0 2.5978)
(5.52237 0 2.81142)
(5.04924 0 3.01615)
(4.53871 0 3.19992)
(3.98637 0 3.34659)
(3.38764 0 3.43581)
(2.73701 0 3.44309)
(2.03605 0 3.34122)
(1.24163 0 3.11324)
(0.563458 0 2.69279)
(9.99306 0 0.0825918)
(9.96981 0 0.163614)
(9.92807 0 0.244062)
(9.86884 0 0.325495)
(9.79312 0 0.409466)
(9.70124 0 0.497232)
(9.59321 0 0.58987)
(9.46885 0 0.688433)
(9.32792 0 0.793984)
(9.1701 0 0.907582)
(8.99497 0 1.03028)
(8.80204 0 1.1631)
(8.59073 0 1.30708)
(8.36041 0 1.46318)
(8.11033 0 1.63224)
(7.83967 0 1.81497)
(7.54745 0 2.01177)
(7.23249 0 2.22262)
(6.89329 0 2.44684)
(6.52793 0 2.68278)
(6.13382 0 2.92743)
(5.70756 0 3.17582)
(5.24466 0 3.42038)
(4.73945 0 3.65016)
(4.18515 0 3.85013)
(3.57443 0 4.00071)
(2.89922 0 4.07765)
(2.16187 0 4.05204)
(1.31596 0 3.90129)
(0.583147 0 3.5397)
(9.99326 0 0.0909325)
(9.97072 0 0.180417)
(9.93046 0 0.26968)
(9.87362 0 0.360259)
(9.80117 0 0.453669)
(9.71342 0 0.551238)
(9.61036 0 0.654146)
(9.49186 0 0.763537)
(9.35773 0 0.880554)
(9.20769 0 1.00634)
(9.0414 0 1.14202)
(8.85841 0 1.28874)
(8.6582 0 1.44761)
(8.44012 0 1.61968)
(8.20346 0 1.80597)
(7.94732 0 2.00732)
(7.67062 0 2.22437)
(7.37198 0 2.4574)
(7.04958 0 2.70618)
(6.70102 0 2.96969)
(6.32306 0 3.24576)
(5.91133 0 3.53061)
(5.46001 0 3.8181)
(4.96163 0 4.09896)
(4.40701 0 4.35977)
(3.786 0 4.58191)
(3.08719 0 4.74078)
(2.31239 0 4.80405)
(1.41043 0 4.74057)
(0.61421 0 4.44135)
(9.99352 0 0.0989966)
(9.9719 0 0.196588)
(9.9334 0 0.294209)
(9.87924 0 0.393435)
(9.81039 0 0.49578)
(9.72716 0 0.602619)
(9.62952 0 0.715219)
(9.51739 0 0.834806)
(9.39066 0 0.962597)
(9.24909 0 1.09981)
(9.09241 0 1.24766)
(8.92022 0 1.40738)
(8.73206 0 1.58016)
(8.52733 0 1.76721)
(8.30533 0 1.96968)
(8.06513 0 2.18861)
(7.80557 0 2.42493)
(7.52511 0 2.67932)
(7.22169 0 2.95207)
(6.89251 0 3.24297)
(6.53373 0 3.55092)
(6.14013 0 3.8736)
(5.70466 0 4.20677)
(5.21804 0 4.54339)
(4.66851 0 4.87235)
(4.04237 0 5.17676)
(3.3232 0 5.43197)
(2.50934 0 5.60147)
(1.54156 0 5.64285)
(0.663916 0 5.41729)
(9.99384 0 0.106709)
(9.9733 0 0.212009)
(9.93679 0 0.317517)
(9.88558 0 0.424875)
(9.82063 0 0.535614)
(9.74224 0 0.651153)
(9.65043 0 0.772827)
(9.54516 0 0.901933)
(9.42635 0 1.03976)
(9.29387 0 1.18758)
(9.14749 0 1.34671)
(8.98689 0 1.51844)
(8.81169 0 1.70409)
(8.62135 0 1.90499)
(8.41522 0 2.12244)
(8.1924 0 2.35775)
(7.95173 0 2.61213)
(7.6916 0 2.88671)
(7.40983 0 3.18246)
(7.10337 0 3.50004)
(6.76802 0 3.83965)
(6.39795 0 4.20069)
(5.98511 0 4.58129)
(5.51856 0 4.97737)
(4.98379 0 5.38126)
(4.36263 0 5.77936)
(3.63125 0 6.14876)
(2.77952 0 6.45007)
(1.73301 0 6.62769)
(0.74462 0 6.5021)
(9.9942 0 0.114011)
(9.97487 0 0.226585)
(9.94055 0 0.339488)
(9.89251 0 0.454444)
(9.83173 0 0.57301)
(9.7585 0 0.696643)
(9.67288 0 0.826735)
(9.57487 0 0.964643)
(9.46446 0 1.11171)
(9.3416 0 1.26929)
(9.20612 0 1.43873)
(9.05782 0 1.62143)
(8.89639 0 1.8188)
(8.7214 0 2.03229)
(8.53228 0 2.26338)
(8.32825 0 2.51361)
(8.10821 0 2.78453)
(7.87063 0 3.07776)
(7.61339 0 3.39494)
(7.33345 0 3.73771)
(7.02658 0 4.10768)
(6.68673 0 4.50624)
(6.30538 0 4.93429)
(5.87047 0 5.39156)
(5.36506 0 5.87536)
(4.76608 0 6.37809)
(4.03983 0 6.88284)
(3.1606 0 7.35281)
(2.02407 0 7.72215)
(0.880388 0 7.75572)
(9.99459 0 0.120858)
(9.97657 0 0.240234)
(9.94461 0 0.360023)
(9.89995 0 0.482021)
(9.84356 0 0.607823)
(9.77575 0 0.738917)
(9.69661 0 0.87674)
(9.60622 0 1.0227)
(9.50462 0 1.17818)
(9.39183 0 1.34459)
(9.26779 0 1.52334)
(9.13239 0 1.71589)
(8.98543 0 1.92373)
(8.82663 0 2.14843)
(8.65555 0 2.39164)
(8.47157 0 2.65512)
(8.27379 0 2.94074)
(8.06091 0 3.25057)
(7.83104 0 3.58694)
(7.58151 0 3.95245)
(7.30843 0 4.35012)
(7.00619 0 4.78344)
(6.66664 0 5.25637)
(6.27776 0 5.77317)
(5.82158 0 6.33781)
(5.27143 0 6.95236)
(4.58333 0 7.6133)
(3.70869 0 8.30016)
(2.48708 0 8.95686)
(1.12387 0 9.29123)
(9.99501 0 0.127216)
(9.97838 0 0.252895)
(9.94891 0 0.379036)
(9.90779 0 0.507508)
(9.85598 0 0.639936)
(9.79381 0 0.777837)
(9.72142 0 0.922682)
(9.63893 0 1.07591)
(9.54646 0 1.23896)
(9.44412 0 1.41325)
(9.33194 0 1.60025)
(9.20992 0 1.80147)
(9.07802 0 2.01846)
(8.9361 0 2.2529)
(8.78392 0 2.50656)
(8.62108 0 2.78138)
(8.44697 0 3.07952)
(8.26066 0 3.40345)
(8.06074 0 3.75607)
(7.84517 0 4.14083)
(7.61094 0 4.56204)
(7.3536 0 5.02509)
(7.06652 0 5.53692)
(6.73959 0 6.10652)
(6.35688 0 6.74555)
(5.89276 0 7.46907)
(5.29916 0 8.29616)
(4.50698 0 9.24726)
(3.26696 0 10.3402)
(1.60383 0 11.356)
(9.99545 0 0.133056)
(9.98026 0 0.264514)
(9.95339 0 0.396458)
(9.91596 0 0.53081)
(9.86888 0 0.669227)
(9.81253 0 0.813248)
(9.74708 0 0.964366)
(9.67271 0 1.12405)
(9.58963 0 1.29375)
(9.49801 0 1.47492)
(9.39801 0 1.66905)
(9.28976 0 1.87768)
(9.17335 0 2.10243)
(9.04883 0 2.345)
(8.91619 0 2.60728)
(8.77532 0 2.89133)
(8.62597 0 3.19952)
(8.46769 0 3.53461)
(8.29976 0 3.89988)
(8.12103 0 4.29945)
(7.92979 0 4.73853)
(7.72347 0 5.22395)
(7.49824 0 5.76494)
(7.24817 0 6.37431)
(6.96377 0 7.07047)
(6.62946 0 7.88122)
(6.21243 0 8.85191)
(5.66322 0 10.0654)
(4.68695 0 11.7292)
(2.68496 0 14.5864)
(0.121014 0 -0.119856)
(0.283979 0 -0.109076)
(0.450277 0 -0.0856757)
(0.588792 0 -0.0630205)
(0.693958 0 -0.0437538)
(0.769434 0 -0.0278041)
(0.819931 0 -0.0146017)
(0.849109 0 -0.00364068)
(0.859772 0 0.00527685)
(0.854533 0 0.0115091)
(0.835852 0 0.0158533)
(0.806618 0 0.0187166)
(0.769682 0 0.0202613)
(0.727787 0 0.0205688)
(0.683668 0 0.0197515)
(0.639971 0 0.0180019)
(0.599006 0 0.0155995)
(0.562509 0 0.0128891)
(0.531483 0 0.0102266)
(0.50612 0 0.00791582)
(0.485858 0 0.00613788)
(0.469631 0 0.00490252)
(0.456278 0 0.00408525)
(0.44489 0 0.00351701)
(0.434949 0 0.00305548)
(0.426275 0 0.00263422)
(0.418821 0 0.00226324)
(0.412468 0 0.00198523)
(0.406937 0 0.00179717)
(0.401203 0 0.00142718)
(0.10514 0 -0.282741)
(0.265428 0 -0.264823)
(0.422106 0 -0.214853)
(0.555717 0 -0.165289)
(0.662401 0 -0.12279)
(0.745688 0 -0.0873225)
(0.809665 0 -0.0576553)
(0.857387 0 -0.0326271)
(0.890847 0 -0.0113997)
(0.911693 0 0.00642887)
(0.918743 0 0.0204229)
(0.914224 0 0.0307828)
(0.90085 0 0.0376837)
(0.881385 0 0.041252)
(0.858645 0 0.0417517)
(0.835334 0 0.0396573)
(0.813774 0 0.0356124)
(0.795667 0 0.0303694)
(0.781949 0 0.0247402)
(0.772721 0 0.019492)
(0.767333 0 0.0151855)
(0.764692 0 0.0120074)
(0.763712 0 0.00979426)
(0.763626 0 0.00821308)
(0.764078 0 0.006932)
(0.765003 0 0.00576619)
(0.766407 0 0.00470983)
(0.768163 0 0.00386218)
(0.769921 0 0.00329242)
(0.771461 0 0.00285085)
(0.0848021 0 -0.449207)
(0.224938 0 -0.419925)
(0.352048 0 -0.343295)
(0.460344 0 -0.268163)
(0.547005 0 -0.204185)
(0.615709 0 -0.150954)
(0.669682 0 -0.106597)
(0.711232 0 -0.0693924)
(0.742143 0 -0.0379051)
(0.763677 0 -0.0106144)
(0.778746 0 0.0122734)
(0.784879 0 0.0299557)
(0.784243 0 0.0422249)
(0.778888 0 0.0490569)
(0.77098 0 0.0508538)
(0.762589 0 0.0484046)
(0.755426 0 0.0427467)
(0.750692 0 0.0350963)
(0.748985 0 0.0267869)
(0.75022 0 0.019108)
(0.753659 0 0.0130196)
(0.758201 0 0.00880387)
(0.762848 0 0.00614102)
(0.766985 0 0.00445027)
(0.770408 0 0.00319663)
(0.773202 0 0.00210823)
(0.775531 0 0.00120675)
(0.777476 0 0.000662628)
(0.778959 0 0.000609854)
(0.779722 0 0.00115488)
(0.064991 0 -0.583562)
(0.179183 0 -0.537769)
(0.269934 0 -0.436957)
(0.348118 0 -0.341702)
(0.409689 0 -0.261937)
(0.459145 0 -0.195892)
(0.498636 0 -0.140915)
(0.529583 0 -0.0947377)
(0.553097 0 -0.0557215)
(0.56964 0 -0.0229007)
(0.583114 0 0.00471037)
(0.589636 0 0.0268694)
(0.591476 0 0.042465)
(0.590505 0 0.0511038)
(0.588501 0 0.0533723)
(0.586868 0 0.05037)
(0.586539 0 0.0434736)
(0.588008 0 0.0342961)
(0.59133 0 0.0245807)
(0.596053 0 0.0159916)
(0.601145 0 0.00974746)
(0.605305 0 0.00600909)
(0.607621 0 0.00418358)
(0.607781 0 0.00339789)
(0.605953 0 0.00292847)
(0.602612 0 0.0024065)
(0.598282 0 0.00185855)
(0.593361 0 0.00151337)
(0.588071 0 0.00155264)
(0.581675 0 0.0022683)
(0.0444662 0 -0.687529)
(0.127478 0 -0.620433)
(0.176383 0 -0.498659)
(0.222132 0 -0.389671)
(0.255299 0 -0.300099)
(0.282436 0 -0.226314)
(0.304294 0 -0.165015)
(0.321686 0 -0.113503)
(0.335209 0 -0.0699204)
(0.344937 0 -0.0330838)
(0.351606 0 -0.00142285)
(0.356828 0 0.0238875)
(0.358145 0 0.0415046)
(0.357595 0 0.0508816)
(0.356973 0 0.0530046)
(0.357029 0 0.0493095)
(0.35779 0 0.0414617)
(0.358901 0 0.0313198)
(0.35979 0 0.0208451)
(0.35978 0 0.0120627)
(0.357813 0 0.00679635)
(0.352719 0 0.00461462)
(0.344322 0 0.00455256)
(0.333108 0 0.00541306)
(0.319728 0 0.00625543)
(0.304956 0 0.0066022)
(0.289458 0 0.00652909)
(0.273675 0 0.00646007)
(0.258098 0 0.00680761)
(0.241172 0 0.00690675)
(0.0227262 0 -0.755945)
(0.069391 0 -0.663796)
(0.0723943 0 -0.524455)
(0.0839548 0 -0.407772)
(0.0855945 0 -0.313211)
(0.0870513 0 -0.235923)
(0.087393 0 -0.172113)
(0.0875124 0 -0.118736)
(0.0880007 0 -0.0738273)
(0.088336 0 -0.0366695)
(0.0896778 0 -0.00553445)
(0.0871927 0 0.0223644)
(0.0843923 0 0.042393)
(0.0804532 0 0.0522262)
(0.0765183 0 0.0539886)
(0.0715307 0 0.0500511)
(0.0639699 0 0.0425318)
(0.0524304 0 0.0334383)
(0.0361651 0 0.0247106)
(0.0163743 0 0.0181359)
(-0.00548082 0 0.0149896)
(-0.027002 0 0.0148692)
(-0.0467355 0 0.0162117)
(-0.0647032 0 0.017544)
(-0.0815776 0 0.018122)
(-0.0975271 0 0.0178633)
(-0.112724 0 0.0172367)
(-0.127322 0 0.0167482)
(-0.141661 0 0.0159195)
(-0.154671 0 0.0132381)
(-0.00168892 0 -0.78234)
(0.00344346 0 -0.662942)
(-0.04067 0 -0.510535)
(-0.0667325 0 -0.39208)
(-0.0992296 0 -0.297358)
(-0.127642 0 -0.221391)
(-0.153301 0 -0.159758)
(-0.175343 0 -0.109064)
(-0.193858 0 -0.0663416)
(-0.211024 0 -0.0291642)
(-0.233267 0 0.00399908)
(-0.245492 0 0.0306246)
(-0.252442 0 0.0474646)
(-0.261147 0 0.0563784)
(-0.271384 0 0.0589341)
(-0.284327 0 0.0570702)
(-0.300345 0 0.0524278)
(-0.319218 0 0.0464375)
(-0.340245 0 0.0403354)
(-0.362394 0 0.0349918)
(-0.384771 0 0.0309079)
(-0.406049 0 0.0287123)
(-0.425558 0 0.0276878)
(-0.442825 0 0.0269525)
(-0.457868 0 0.0259052)
(-0.470798 0 0.024498)
(-0.481956 0 0.0230309)
(-0.491883 0 0.0216946)
(-0.500992 0 0.0200499)
(-0.507669 0 0.0178168)
(-0.031882 0 -0.759229)
(-0.0729207 0 -0.614088)
(-0.161526 0 -0.45927)
(-0.230738 0 -0.343144)
(-0.29958 0 -0.253137)
(-0.361128 0 -0.182576)
(-0.415789 0 -0.126046)
(-0.463411 0 -0.0795597)
(-0.504263 0 -0.0398778)
(-0.539961 0 -0.00594605)
(-0.568414 0 0.020722)
(-0.583872 0 0.040452)
(-0.597167 0 0.0552297)
(-0.608902 0 0.0643847)
(-0.62104 0 0.0682064)
(-0.634645 0 0.0678257)
(-0.650003 0 0.0643766)
(-0.666931 0 0.059019)
(-0.685058 0 0.0529879)
(-0.703986 0 0.0474171)
(-0.723235 0 0.0430412)
(-0.742027 0 0.040041)
(-0.759556 0 0.0378222)
(-0.775053 0 0.0356184)
(-0.788048 0 0.0330118)
(-0.798487 0 0.0301749)
(-0.806812 0 0.0275736)
(-0.813829 0 0.0254098)
(-0.82 0 0.023364)
(-0.823863 0 0.02152)
(-0.0686178 0 -0.684054)
(-0.157057 0 -0.517779)
(-0.294264 0 -0.365777)
(-0.408518 0 -0.257314)
(-0.514294 0 -0.17812)
(-0.60611 0 -0.118669)
(-0.684306 0 -0.072019)
(-0.75001 0 -0.0344891)
(-0.804842 0 -0.00409385)
(-0.844833 0 0.0196877)
(-0.871282 0 0.0383141)
(-0.892406 0 0.0535269)
(-0.908641 0 0.0654424)
(-0.921866 0 0.073297)
(-0.93398 0 0.0770552)
(-0.946325 0 0.0771706)
(-0.959533 0 0.0743151)
(-0.973692 0 0.0694136)
(-0.988674 0 0.0636377)
(-1.00436 0 0.0581295)
(-1.02058 0 0.0535929)
(-1.03691 0 0.0500249)
(-1.05257 0 0.0467857)
(-1.06662 0 0.043164)
(-1.07823 0 0.0389599)
(-1.08713 0 0.034644)
(-1.09377 0 0.0309154)
(-1.0991 0 0.0280614)
(-1.10362 0 0.0258693)
(-1.10616 0 0.0244432)
(-0.115426 0 -0.550807)
(-0.257483 0 -0.371366)
(-0.448372 0 -0.231584)
(-0.605581 0 -0.139732)
(-0.744169 0 -0.076663)
(-0.860293 0 -0.0334407)
(-0.952203 0 -0.00399605)
(-1.02132 0 0.0169663)
(-1.07155 0 0.0329111)
(-1.10992 0 0.0462463)
(-1.14016 0 0.0581303)
(-1.16359 0 0.068499)
(-1.18142 0 0.0767079)
(-1.19536 0 0.0823305)
(-1.20728 0 0.0852137)
(-1.21873 0 0.0853113)
(-1.23049 0 0.0827494)
(-1.24271 0 0.078115)
(-1.25533 0 0.0725126)
(-1.26843 0 0.0671446)
(-1.2822 0 0.0626861)
(-1.29656 0 0.0589361)
(-1.31089 0 0.0550372)
(-1.32403 0 0.050192)
(-1.33478 0 0.0443774)
(-1.34261 0 0.0384637)
(-1.34798 0 0.0335378)
(-1.35204 0 0.0300564)
(-1.35538 0 0.0278177)
(-1.35714 0 0.0267162)
(-0.182441 0 -0.356857)
(-0.398223 0 -0.179559)
(-0.663731 0 -0.0425064)
(-0.853319 0 0.0185801)
(-0.998327 0 0.0449353)
(-1.10685 0 0.0556788)
(-1.1898 0 0.0608346)
(-1.25497 0 0.0647954)
(-1.30611 0 0.0690138)
(-1.3463 0 0.073987)
(-1.37779 0 0.0793891)
(-1.4021 0 0.0844682)
(-1.42047 0 0.0885494)
(-1.43445 0 0.0914417)
(-1.44603 0 0.0930292)
(-1.45691 0 0.0928361)
(-1.46788 0 0.0903381)
(-1.47891 0 0.0856968)
(-1.48978 0 0.080015)
(-1.50075 0 0.0747114)
(-1.51247 0 0.0705183)
(-1.52532 0 0.0669704)
(-1.53885 0 0.0627924)
(-1.5516 0 0.0569122)
(-1.56189 0 0.049426)
(-1.56882 0 0.0417332)
(-1.57296 0 0.0355222)
(-1.57577 0 0.0314976)
(-1.57807 0 0.0293006)
(-1.57926 0 0.0284433)
(-0.298856 0 -0.0302663)
(-0.587093 0 0.151764)
(-0.860701 0 0.178182)
(-1.05684 0 0.172909)
(-1.20524 0 0.156545)
(-1.31733 0 0.138776)
(-1.40271 0 0.124209)
(-1.46838 0 0.113381)
(-1.51903 0 0.105945)
(-1.55825 0 0.102008)
(-1.58894 0 0.100799)
(-1.61278 0 0.100646)
(-1.63066 0 0.10044)
(-1.64387 0 0.100318)
(-1.6546 0 0.100481)
(-1.6649 0 0.100025)
(-1.67551 0 0.0975372)
(-1.68586 0 0.0926021)
(-1.69534 0 0.0864567)
(-1.70433 0 0.0810321)
(-1.71412 0 0.0772842)
(-1.72576 0 0.074379)
(-1.73897 0 0.0703476)
(-1.7519 0 0.0635885)
(-1.76208 0 0.0542448)
(-1.76815 0 0.044438)
(-1.77085 0 0.0367825)
(-1.7722 0 0.0323375)
(-1.77347 0 0.0303298)
(-1.7742 0 0.0296782)
(-0.387448 0 0.444238)
(-0.725204 0 0.481187)
(-1.05026 0 0.41166)
(-1.26572 0 0.338023)
(-1.41799 0 0.275356)
(-1.52681 0 0.22368)
(-1.60665 0 0.186006)
(-1.66723 0 0.159685)
(-1.7134 0 0.140646)
(-1.74858 0 0.128121)
(-1.77634 0 0.121007)
(-1.79852 0 0.116186)
(-1.81504 0 0.111596)
(-1.8265 0 0.108123)
(-1.83551 0 0.106936)
(-1.84494 0 0.106676)
(-1.85549 0 0.10448)
(-1.86564 0 0.0990149)
(-1.87389 0 0.0918727)
(-1.8807 0 0.0860324)
(-1.88835 0 0.08298)
(-1.8989 0 0.0813358)
(-1.91231 0 0.0780146)
(-1.92607 0 0.0705332)
(-1.93658 0 0.058984)
(-1.94172 0 0.0464927)
(-1.94251 0 0.0371094)
(-1.94201 0 0.0324446)
(-1.94218 0 0.0309142)
(-1.94253 0 0.0304748)
(-0.513957 0 0.970258)
(-0.946883 0 0.891713)
(-1.3124 0 0.67699)
(-1.51501 0 0.503305)
(-1.64851 0 0.386808)
(-1.7397 0 0.296994)
(-1.80297 0 0.238507)
(-1.85183 0 0.201726)
(-1.88974 0 0.172774)
(-1.91782 0 0.151308)
(-1.94055 0 0.138908)
(-1.96029 0 0.130399)
(-1.97497 0 0.12147)
(-1.98345 0 0.114301)
(-1.98931 0 0.112198)
(-1.99728 0 0.113296)
(-2.00821 0 0.112114)
(-2.01881 0 0.10575)
(-2.02589 0 0.096582)
(-2.02993 0 0.0896505)
(-2.03479 0 0.0875442)
(-2.04416 0 0.0880146)
(-2.05835 0 0.0861693)
(-2.07382 0 0.0781426)
(-2.08524 0 0.0638246)
(-2.08925 0 0.0477262)
(-2.08734 0 0.036129)
(-2.08432 0 0.0315917)
(-2.08329 0 0.0311007)
(-2.08341 0 0.0309526)
(-0.755248 0 2.02398)
(-1.29538 0 1.58193)
(-1.68834 0 0.977152)
(-1.8239 0 0.588449)
(-1.90052 0 0.455312)
(-1.95525 0 0.349527)
(-1.98583 0 0.281901)
(-2.01736 0 0.239816)
(-2.04725 0 0.196222)
(-2.06606 0 0.161581)
(-2.08058 0 0.148025)
(-2.097 0 0.141846)
(-2.10979 0 0.130721)
(-2.11382 0 0.118811)
(-2.11427 0 0.115063)
(-2.11993 0 0.118769)
(-2.13219 0 0.119519)
(-2.1445 0 0.111662)
(-2.15044 0 0.0989604)
(-2.15042 0 0.0901123)
(-2.15109 0 0.0897225)
(-2.15886 0 0.0940197)
(-2.17451 0 0.0950491)
(-2.19287 0 0.0868774)
(-2.20598 0 0.0690168)
(-2.20852 0 0.0478756)
(-2.20259 0 0.0332237)
(-2.19594 0 0.0293994)
(-2.19364 0 0.0310163)
(-2.1938 0 0.0314158)
(9.9959 0 0.138451)
(9.98225 0 0.275248)
(9.95811 0 0.41254)
(9.92453 0 0.552294)
(9.88242 0 0.696188)
(9.83216 0 0.845774)
(9.77399 0 1.00256)
(9.70815 0 1.16802)
(9.63492 0 1.34362)
(9.55458 0 1.53082)
(9.46739 0 1.73112)
(9.37363 0 1.94607)
(9.27354 0 2.17728)
(9.16741 0 2.42652)
(9.05545 0 2.69568)
(8.93791 0 2.98691)
(8.81497 0 3.30265)
(8.68676 0 3.64581)
(8.55335 0 4.0199)
(8.41473 0 4.42928)
(8.27084 0 4.87961)
(8.12154 0 5.37835)
(7.96677 0 5.93567)
(7.80677 0 6.56591)
(7.64272 0 7.29014)
(7.47955 0 8.14094)
(7.33038 0 9.17222)
(7.285 0 10.4774)
(7.74014 0 12.2012)
(7.91612 0 14.918)
(9.99638 0 0.14341)
(9.98434 0 0.285103)
(9.96305 0 0.427268)
(9.93352 0 0.571904)
(9.89657 0 0.720702)
(9.85262 0 0.875222)
(9.80197 0 1.03697)
(9.74493 0 1.20743)
(9.68184 0 1.38804)
(9.6131 0 1.58028)
(9.53907 0 1.78561)
(9.46019 0 2.00557)
(9.37688 0 2.24177)
(9.28963 0 2.49594)
(9.19895 0 2.76997)
(9.10543 0 3.06596)
(9.0097 0 3.38635)
(8.91254 0 3.73398)
(8.81483 0 4.11232)
(8.71776 0 4.52562)
(8.62293 0 4.9793)
(8.5327 0 5.4804)
(8.45077 0 6.03824)
(8.38337 0 6.66542)
(8.34165 0 7.37916)
(8.34762 0 8.20291)
(8.44 0 9.16683)
(8.67457 0 10.3043)
(9.31981 0 11.5604)
(9.80718 0 12.6522)
(9.99688 0 0.147847)
(9.98651 0 0.293914)
(9.96819 0 0.440418)
(9.94283 0 0.589373)
(9.91121 0 0.742475)
(9.87378 0 0.901275)
(9.83086 0 1.06727)
(9.78284 0 1.24192)
(9.73014 0 1.42666)
(9.67324 0 1.62291)
(9.61264 0 1.83212)
(9.54889 0 2.05578)
(9.48262 0 2.29543)
(9.41453 0 2.55274)
(9.3454 0 2.82951)
(9.27617 0 3.12774)
(9.20792 0 3.44971)
(9.14199 0 3.79804)
(9.08008 0 4.17587)
(9.02438 0 4.58695)
(8.97792 0 5.0359)
(8.94496 0 5.52839)
(8.93179 0 6.07142)
(8.94792 0 6.67339)
(9.00781 0 7.34377)
(9.13358 0 8.09125)
(9.35622 0 8.9178)
(9.68527 0 9.81248)
(10.2508 0 10.7242)
(10.9381 0 11.4436)
(9.9974 0 0.151709)
(9.98874 0 0.301575)
(9.97347 0 0.451824)
(9.95239 0 0.604471)
(9.92623 0 0.761204)
(9.89545 0 0.923558)
(9.86042 0 1.09301)
(9.82158 0 1.27098)
(9.77943 0 1.45886)
(9.73453 0 1.65804)
(9.68749 0 1.86989)
(9.639 0 2.09583)
(9.58985 0 2.33731)
(9.54093 0 2.59588)
(9.4933 0 2.87319)
(9.44819 0 3.17105)
(9.40708 0 3.49146)
(9.37179 0 3.83668)
(9.34463 0 4.20931)
(9.32857 0 4.61231)
(9.32753 0 5.0491)
(9.34681 0 5.52352)
(9.39365 0 6.03971)
(9.47796 0 6.60165)
(9.61293 0 7.21216)
(9.81543 0 7.87093)
(10.1082 0 8.57094)
(10.5001 0 9.29762)
(11.058 0 10.0408)
(11.8516 0 10.6876)
(9.99792 0 0.154948)
(9.99101 0 0.307994)
(9.97884 0 0.46135)
(9.96212 0 0.617021)
(9.9415 0 0.776672)
(9.91746 0 0.941811)
(9.8904 0 1.11387)
(9.86083 0 1.29424)
(9.82929 0 1.48425)
(9.79642 0 1.68521)
(9.76294 0 1.89842)
(9.72965 0 2.12518)
(9.69749 0 2.36683)
(9.66751 0 2.62476)
(9.64098 0 2.9004)
(9.61939 0 3.19529)
(9.6045 0 3.5111)
(9.5985 0 3.84959)
(9.60408 0 4.2127)
(9.62463 0 4.60247)
(9.66447 0 5.02101)
(9.72912 0 5.47035)
(9.82566 0 5.9521)
(9.96305 0 6.46698)
(10.1524 0 7.01392)
(10.4067 0 7.58909)
(10.7434 0 8.18438)
(11.1741 0 8.78512)
(11.722 0 9.37976)
(12.4761 0 9.89334)
(9.99845 0 0.157521)
(9.9933 0 0.313084)
(9.98427 0 0.46887)
(9.97194 0 0.626856)
(9.9569 0 0.788676)
(9.93962 0 0.955794)
(9.92055 0 1.1296)
(9.90023 0 1.31141)
(9.87926 0 1.50249)
(9.85834 0 1.70407)
(9.83827 0 1.91733)
(9.81995 0 2.14347)
(9.80441 0 2.38364)
(9.79287 0 2.63904)
(9.78672 0 2.91087)
(9.78762 0 3.20036)
(9.79754 0 3.50874)
(9.81884 0 3.83728)
(9.85439 0 4.18719)
(9.90768 0 4.5596)
(9.983 0 4.95542)
(10.0856 0 5.37513)
(10.2217 0 5.81846)
(10.3991 0 6.28398)
(10.6264 0 6.76844)
(10.9133 0 7.26608)
(11.2713 0 7.76768)
(11.7082 0 8.25769)
(12.2249 0 8.7194)
(12.9019 0 9.11126)
(9.99898 0 0.15939)
(9.9956 0 0.316769)
(9.98971 0 0.474272)
(9.98176 0 0.63383)
(9.97229 0 0.797034)
(9.96174 0 0.965296)
(9.9506 0 1.13994)
(9.93943 0 1.32222)
(9.92888 0 1.51331)
(9.9197 0 1.71433)
(9.91273 0 1.92636)
(9.90896 0 2.15042)
(9.90948 0 2.38752)
(9.9156 0 2.63861)
(9.9288 0 2.90464)
(9.95082 0 3.18649)
(9.98371 0 3.48498)
(10.0299 0 3.80084)
(10.0921 0 4.13462)
(10.1738 0 4.48664)
(10.279 0 4.85679)
(10.4121 0 5.24437)
(10.5785 0 5.64782)
(10.7843 0 6.06433)
(11.0357 0 6.48942)
(11.3393 0 6.9164)
(11.7011 0 7.33591)
(12.1253 0 7.73453)
(12.606 0 8.09766)
(13.2125 0 8.40474)
(9.99951 0 0.160521)
(9.99789 0 0.318982)
(9.9951 0 0.477456)
(9.99151 0 0.637817)
(9.98753 0 0.801596)
(9.98362 0 0.970145)
(9.98028 0 1.14472)
(9.97808 0 1.32647)
(9.97769 0 1.5165)
(9.9799 0 1.71581)
(9.98559 0 1.92533)
(9.99577 0 2.14594)
(10.0116 0 2.37844)
(10.0344 0 2.62358)
(10.0656 0 2.882)
(10.1071 0 3.15427)
(10.1608 0 3.44079)
(10.229 0 3.74182)
(10.3145 0 4.05732)
(10.4202 0 4.38693)
(10.5495 0 4.72979)
(10.7063 0 5.08438)
(10.8947 0 5.44831)
(11.1191 0 5.81805)
(11.3838 0 6.18872)
(11.6925 0 6.55374)
(12.0482 0 6.90483)
(12.4523 0 7.23165)
(12.8973 0 7.52303)
(13.4412 0 7.76762)
(10 0 0.160885)
(10.0001 0 0.319668)
(10.0004 0 0.478345)
(10.0011 0 0.638715)
(10.0025 0 0.802244)
(10.0051 0 0.970212)
(10.0093 0 1.14379)
(10.0158 0 1.32405)
(10.0252 0 1.51196)
(10.0384 0 1.70843)
(10.0561 0 1.91423)
(10.0795 0 2.13008)
(10.1097 0 2.35659)
(10.1479 0 2.59428)
(10.1957 0 2.84353)
(10.2548 0 3.10458)
(10.327 0 3.3775)
(10.4144 0 3.6621)
(10.5195 0 3.95791)
(10.6447 0 4.26402)
(10.793 0 4.57908)
(10.9673 0 4.90104)
(11.1707 0 5.22713)
(11.4061 0 5.55362)
(11.6761 0 5.87577)
(11.9826 0 6.18772)
(12.3264 0 6.48258)
(12.7073 0 6.7525)
(13.1176 0 6.98912)
(13.6061 0 7.18554)
(10.0005 0 0.160462)
(10.0023 0 0.318786)
(10.0056 0 0.476877)
(10.0104 0 0.636451)
(10.0171 0 0.798896)
(10.0259 0 0.965411)
(10.0375 0 1.13708)
(10.0523 0 1.31487)
(10.0711 0 1.49966)
(10.0946 0 1.6922)
(10.1237 0 1.89314)
(10.1594 0 2.10303)
(10.2028 0 2.3223)
(10.2552 0 2.55124)
(10.3179 0 2.79)
(10.3926 0 3.03856)
(10.4808 0 3.29666)
(10.5845 0 3.56379)
(10.7057 0 3.83912)
(10.8464 0 4.12142)
(11.009 0 4.409)
(11.1955 0 4.69961)
(11.4081 0 4.99035)
(11.6486 0 5.27766)
(11.9182 0 5.55723)
(12.2176 0 5.82407)
(12.5464 0 6.07264)
(12.9032 0 6.29703)
(13.2809 0 6.49117)
(13.7214 0 6.6509)
(10.001 0 0.159235)
(10.0044 0 0.316307)
(10.0106 0 0.473013)
(10.0194 0 0.630979)
(10.0311 0 0.791505)
(10.0459 0 0.955705)
(10.0645 0 1.12457)
(10.0872 0 1.29896)
(10.1148 0 1.47964)
(10.148 0 1.66724)
(10.1877 0 1.86228)
(10.2348 0 2.06513)
(10.2902 0 2.27606)
(10.3553 0 2.49517)
(10.4312 0 2.72241)
(10.5194 0 2.9575)
(10.6212 0 3.19996)
(10.7383 0 3.44905)
(10.8724 0 3.70369)
(11.0249 0 3.96246)
(11.1976 0 4.22352)
(11.392 0 4.48459)
(11.6093 0 4.7429)
(11.8505 0 4.99517)
(12.1158 0 5.2377)
(12.4052 0 5.46637)
(12.7174 0 5.67685)
(13.0506 0 5.86476)
(13.3985 0 6.02586)
(13.7978 0 6.15761)
(10.0015 0 0.157198)
(10.0065 0 0.312216)
(10.0154 0 0.466736)
(10.028 0 0.622282)
(10.0445 0 0.780064)
(10.065 0 0.941103)
(10.0901 0 1.10629)
(10.1203 0 1.27639)
(10.1561 0 1.45205)
(10.1983 0 1.63378)
(10.2476 0 1.82196)
(10.305 0 2.01684)
(10.3713 0 2.21851)
(10.4475 0 2.42691)
(10.5349 0 2.64182)
(10.6345 0 2.8628)
(10.7476 0 3.08918)
(10.8755 0 3.32005)
(11.0194 0 3.55422)
(11.1805 0 3.79019)
(11.3599 0 4.0261)
(11.5586 0 4.25976)
(11.777 0 4.48865)
(12.0157 0 4.70991)
(12.2742 0 4.92041)
(12.5518 0 5.11688)
(12.8471 0 5.29598)
(13.158 0 5.45454)
(13.4791 0 5.58964)
(13.843 0 5.69976)
(10.0019 0 0.15435)
(10.0084 0 0.306512)
(10.0199 0 0.458049)
(10.0362 0 0.610373)
(10.0571 0 0.764601)
(10.083 0 0.921659)
(10.1142 0 1.08234)
(10.1513 0 1.24731)
(10.1947 0 1.4171)
(10.2451 0 1.59212)
(10.3031 0 1.77261)
(10.3696 0 1.9587)
(10.4454 0 2.15036)
(10.5314 0 2.34739)
(10.6284 0 2.54943)
(10.7376 0 2.75592)
(10.8598 0 2.96607)
(10.996 0 3.1789)
(11.1471 0 3.39315)
(11.314 0 3.60734)
(11.4972 0 3.8197)
(11.6972 0 4.02823)
(11.9143 0 4.23068)
(12.1481 0 4.42463)
(12.3982 0 4.60753)
(12.6633 0 4.7768)
(12.942 0 4.92995)
(13.2322 0 5.0647)
(13.5295 0 5.17906)
(13.8628 0 5.27218)
(10.0024 0 0.150696)
(10.0102 0 0.299209)
(10.0241 0 0.446974)
(10.0438 0 0.595292)
(10.0689 0 0.745181)
(10.0998 0 0.897472)
(10.1366 0 1.05286)
(10.18 0 1.21192)
(10.2302 0 1.37507)
(10.288 0 1.54262)
(10.3538 0 1.71471)
(10.4284 0 1.89135)
(10.5124 0 2.07242)
(10.6066 0 2.2576)
(10.7117 0 2.44644)
(10.8285 0 2.6383)
(10.9578 0 2.83234)
(11.1001 0 3.02754)
(11.2562 0 3.22267)
(11.4264 0 3.41631)
(11.6111 0 3.60684)
(11.8104 0 3.79247)
(12.0241 0 3.97129)
(12.2516 0 4.14128)
(12.4923 0 4.3004)
(12.7448 0 4.44666)
(13.0076 0 4.57822)
(13.2789 0 4.69346)
(13.5548 0 4.79105)
(13.8616 0 4.87057)
(10.0027 0 0.146249)
(10.0119 0 0.290332)
(10.0281 0 0.433557)
(10.0508 0 0.577107)
(10.0798 0 0.721901)
(10.1152 0 0.86868)
(10.1572 0 1.01805)
(10.2063 0 1.17047)
(10.2627 0 1.3263)
(10.327 0 1.48572)
(10.3996 0 1.64881)
(10.4811 0 1.81548)
(10.5721 0 1.98552)
(10.6731 0 2.15855)
(10.7847 0 2.33406)
(10.9075 0 2.51136)
(11.042 0 2.6896)
(11.1886 0 2.86777)
(11.3477 0 3.04472)
(11.5194 0 3.21913)
(11.7037 0 3.38956)
(11.9006 0 3.55447)
(12.1095 0 3.71223)
(12.3299 0 3.86121)
(12.5607 0 3.99981)
(12.8008 0 4.12652)
(13.0486 0 4.23997)
(13.3026 0 4.33907)
(13.5594 0 4.42293)
(13.8433 0 4.49138)
(10.0031 0 0.141027)
(10.0134 0 0.27992)
(10.0317 0 0.417857)
(10.0573 0 0.555906)
(10.0898 0 0.694889)
(10.1293 0 0.835454)
(10.1759 0 0.978117)
(10.2301 0 1.12326)
(10.2919 0 1.27115)
(10.3619 0 1.4219)
(10.4404 0 1.57549)
(10.5278 0 1.73179)
(10.6245 0 1.89052)
(10.7311 0 2.05126)
(10.8478 0 2.21345)
(10.9751 0 2.37641)
(11.1132 0 2.5393)
(11.2624 0 2.70119)
(11.4228 0 2.86099)
(11.5944 0 3.01753)
(11.777 0 3.16955)
(11.9702 0 3.31573)
(12.1735 0 3.45476)
(12.3861 0 3.58532)
(12.6071 0 3.70616)
(12.8352 0 3.81615)
(13.0691 0 3.91432)
(13.3073 0 3.9999)
(13.5472 0 4.07234)
(13.8109 0 4.13165)
(10.0034 0 0.135055)
(10.0148 0 0.268022)
(10.035 0 0.399953)
(10.0632 0 0.531801)
(10.0988 0 0.664295)
(10.142 0 0.797995)