/*--------------------------------*- C++ -*----------------------------------*\
  =========                 |
  \\      /  F ield         | OpenFOAM: The Open Source CFD Toolbox
   \\    /   O peration     | Website:  https://openfoam.org
    \\  /    A nd           | Version:  dev
     \\/     M anipulation  |
\*---------------------------------------------------------------------------*/
FoamFile
{
    version     2.0;
    format      ascii;
    class       surfaceVectorField;
    location    "9";
    object      Uf;
}
// * * * * * * * * * * * * * * * * * * * * * * * * * * * * * * * * * * * * * //

dimensions      [0 1 -1 0 0 0 0];

internalField   nonuniform List<vector> 
5457
(
(9.92088 0 0.02511)
(9.97124 0 0.0387464)
(9.82401 0 0.0328276)
(9.92859 0 0.0485863)
(9.70961 0 0.0393131)
(9.85547 0 0.0587699)
(9.57542 0 0.046013)
(9.75679 0 0.0705958)
(9.42136 0 0.0529508)
(9.63752 0 0.0830166)
(9.24752 0 0.0601685)
(9.49859 0 0.0959405)
(9.05359 0 0.0678137)
(9.33927 0 0.109618)
(8.83888 0 0.0760379)
(9.1587 0 0.124295)
(8.60247 0 0.0849742)
(8.95605 0 0.140174)
(8.3432 0 0.0947495)
(8.73032 0 0.157441)
(8.05976 0 0.105493)
(8.48033 0 0.176279)
(7.7507 0 0.117334)
(8.20468 0 0.196868)
(7.41445 0 0.130402)
(7.90184 0 0.219374)
(7.04937 0 0.144818)
(7.57018 0 0.243937)
(6.65388 0 0.160681)
(7.20805 0 0.270647)
(6.22655 0 0.178053)
(6.81384 0 0.299516)
(5.76624 0 0.196937)
(6.38615 0 0.33043)
(5.27237 0 0.217242)
(5.92397 0 0.363099)
(4.74516 0 0.238744)
(5.42689 0 0.39699)
(4.18598 0 0.26104)
(4.89543 0 0.431249)
(3.59774 0 0.283494)
(4.33141 0 0.464628)
(2.98532 0 0.305205)
(3.73837 0 0.495429)
(2.35589 0 0.325069)
(3.12204 0 0.521511)
(1.71889 0 0.342545)
(2.49084 0 0.54055)
(1.08415 0 0.361877)
(1.85565 0 0.551661)
(0.45165 0 0.348633)
(1.2453 0 0.563008)
(-0.145952 0 0.102395)
(0.608706 0 0.544815)
(-0.423661 0 -0.2071)
(0.0946012 0 0.259301)
(-0.402169 0 -0.361236)
(-0.133773 0 -0.0205526)
(-0.119681 0 -0.3939)
(9.99641 0 0.0516737)
(9.99705 0 0.0405058)
(9.95878 0 0.0708637)
(9.9785 0 0.0674567)
(9.89824 0 0.08799)
(9.93377 0 0.0898735)
(9.81657 0 0.105989)
(9.86452 0 0.11356)
(9.71357 0 0.124927)
(9.77436 0 0.138521)
(9.58906 0 0.14486)
(9.66433 0 0.164654)
(9.44271 0 0.166098)
(9.53394 0 0.192342)
(9.27386 0 0.188977)
(9.38246 0 0.222042)
(9.08161 0 0.213794)
(9.20914 0 0.254163)
(8.86483 0 0.240829)
(9.0131 0 0.28908)
(8.62222 0 0.270352)
(8.79324 0 0.327172)
(8.35229 0 0.302624)
(8.54827 0 0.368808)
(8.05344 0 0.337876)
(8.27673 0 0.414341)
(7.72398 0 0.376283)
(7.97705 0 0.464073)
(7.36222 0 0.417925)
(7.64758 0 0.518218)
(6.96655 0 0.462731)
(7.28667 0 0.576837)
(6.53564 0 0.510409)
(6.89277 0 0.639757)
(6.06862 0 0.560354)
(6.46462 0 0.706458)
(5.56537 0 0.611539)
(6.00139 0 0.775937)
(5.02687 0 0.662399)
(5.50303 0 0.846548)
(4.45564 0 0.710717)
(4.97065 0 0.915823)
(3.85625 0 0.753541)
(4.40694 0 0.980315)
(3.23596 0 0.787188)
(3.8168 0 1.03545)
(2.60559 0 0.807484)
(3.20822 0 1.07547)
(1.98259 0 0.810441)
(2.59317 0 1.09312)
(1.40512 0 0.776851)
(1.99601 0 1.07704)
(0.929596 0 0.646334)
(1.41932 0 0.978331)
(0.43971 0 0.384249)
(0.937453 0 0.716717)
(0.0591012 0 -0.11869)
(0.443658 0 0.343426)
(0.174894 0 -0.336014)
(9.98903 0 0.059433)
(9.99481 0 0.0458792)
(9.95433 0 0.0894801)
(9.97368 0 0.0848576)
(9.89729 0 0.118037)
(9.92984 0 0.119179)
(9.82045 0 0.147905)
(9.86356 0 0.153983)
(9.72414 0 0.179431)
(9.77734 0 0.190417)
(9.60819 0 0.212786)
(9.67225 0 0.228648)
(9.47231 0 0.248406)
(9.54807 0 0.269143)
(9.31603 0 0.28679)
(9.40428 0 0.312514)
(9.13863 0 0.328416)
(9.2403 0 0.359346)
(8.93918 0 0.373743)
(9.05543 0 0.410198)
(8.71657 0 0.42323)
(8.84882 0 0.465625)
(8.46951 0 0.477323)
(8.61943 0 0.526183)
(8.19657 0 0.536428)
(8.36605 0 0.592406)
(7.8962 0 0.600873)
(8.0874 0 0.664774)
(7.56677 0 0.670843)
(7.78206 0 0.743656)
(7.20667 0 0.74629)
(7.44858 0 0.829229)
(6.81438 0 0.826815)
(7.08551 0 0.921359)
(6.38868 0 0.911514)
(6.69152 0 1.01944)
(5.92882 0 0.998785)
(6.26551 0 1.12221)
(5.43491 0 1.08611)
(5.8069 0 1.22745)
(4.90831 0 1.16984)
(5.31585 0 1.33177)
(4.3522 0 1.24489)
(4.79374 0 1.4302)
(3.77236 0 1.30454)
(4.24374 0 1.51587)
(3.17851 0 1.33981)
(3.67159 0 1.5794)
(2.58643 0 1.33807)
(3.08611 0 1.6077)
(2.01969 0 1.2729)
(2.50274 0 1.58151)
(1.4868 0 1.09532)
(1.92858 0 1.46415)
(0.958196 0 0.769065)
(1.38513 0 1.21029)
(0.479817 0 0.20232)
(0.829462 0 0.800902)
(0.433692 0 0.133937)
(9.98515 0 0.0716168)
(9.99367 0 0.0531501)
(9.95039 0 0.113635)
(9.97087 0 0.102295)
(9.89436 0 0.15414)
(9.9269 0 0.14796)
(9.81881 0 0.195583)
(9.86184 0 0.193731)
(9.7244 0 0.238823)
(9.77745 0 0.241289)
(9.6111 0 0.284339)
(9.67465 0 0.291179)
(9.47871 0 0.332739)
(9.5534 0 0.343974)
(9.32691 0 0.384696)
(9.41332 0 0.400394)
(9.15518 0 0.440872)
(9.25396 0 0.461166)
(8.96285 0 0.501912)
(9.07478 0 0.526992)
(8.74909 0 0.56846)
(8.87513 0 0.598571)
(8.51295 0 0.641148)
(8.65421 0 0.676601)
(8.25335 0 0.72057)
(8.41113 0 0.761764)
(7.96913 0 0.807233)
(8.14488 0 0.854684)
(7.65903 0 0.901482)
(7.85441 0 0.955869)
(7.32176 0 1.00339)
(7.5386 0 1.06562)
(6.95603 0 1.11262)
(7.19629 0 1.1839)
(6.56065 0 1.22818)
(6.82634 0 1.31013)
(6.13468 0 1.34821)
(6.42769 0 1.44296)
(5.67762 0 1.46963)
(5.99945 0 1.57994)
(5.18977 0 1.58779)
(5.54111 0 1.71711)
(4.67263 0 1.69603)
(5.05282 0 1.84855)
(4.12957 0 1.78513)
(4.53573 0 1.96582)
(3.56643 0 1.84248)
(3.9925 0 2.05727)
(2.99185 0 1.85065)
(3.42738 0 2.10708)
(2.41567 0 1.78239)
(2.84744 0 2.09439)
(1.8404 0 1.60033)
(2.25607 0 1.9886)
(1.25929 0 1.27828)
(1.66019 0 1.75288)
(0.666726 0 0.789378)
(1.02389 0 1.36758)
(0.523006 0 0.786955)
(9.98337 0 0.0844111)
(9.99316 0 0.0612941)
(9.94821 0 0.136843)
(9.96958 0 0.119932)
(9.89314 0 0.188041)
(9.92574 0 0.176248)
(9.81905 0 0.240181)
(9.86199 0 0.232709)
(9.72661 0 0.294482)
(9.77962 0 0.291102)
(9.61588 0 0.351677)
(9.67938 0 0.352292)
(9.48668 0 0.412492)
(9.56125 0 0.416999)
(9.33875 0 0.477702)
(9.42493 0 0.486035)
(9.17166 0 0.548081)
(9.27005 0 0.560235)
(8.98486 0 0.624389)
(9.09615 0 0.640422)
(8.77771 0 0.707383)
(8.90268 0 0.727409)
(8.54945 0 0.797808)
(8.68899 0 0.822003)
(8.29925 0 0.896375)
(8.45435 0 0.924993)
(8.02622 0 1.0037)
(8.19796 0 1.03711)
(7.72943 0 1.12026)
(7.91899 0 1.15897)
(7.40789 0 1.24622)
(7.61654 0 1.29099)
(7.06059 0 1.38133)
(7.28969 0 1.43321)
(6.6865 0 1.52464)
(6.93744 0 1.58517)
(6.28464 0 1.67424)
(6.55878 0 1.74556)
(5.85416 0 1.82683)
(6.15265 0 1.91193)
(5.39447 0 1.97728)
(5.71798 0 2.0802)
(4.90551 0 2.11805)
(5.25383 0 2.2441)
(4.38801 0 2.23858)
(4.75949 0 2.39459)
(3.84371 0 2.32449)
(4.2347 0 2.51915)
(3.27522 0 2.35686)
(3.67965 0 2.60116)
(2.68521 0 2.31046)
(3.09551 0 2.61958)
(2.07254 0 2.15484)
(2.48151 0 2.54715)
(1.42927 0 1.8672)
(1.83978 0 2.35351)
(0.742557 0 1.41935)
(1.13128 0 2.02429)
(0.543268 0 1.51424)
(9.98264 0 0.097502)
(9.99299 0 0.0697959)
(9.94744 0 0.159782)
(9.96925 0 0.137589)
(9.89354 0 0.221358)
(9.92596 0 0.203936)
(9.82133 0 0.284106)
(9.8638 0 0.270701)
(9.73132 0 0.349365)
(9.78384 0 0.339599)
(9.62365 0 0.41804)
(9.68663 0 0.411718)
(9.49816 0 0.490964)
(9.57216 0 0.487928)
(9.35461 0 0.569005)
(9.44018 0 0.569135)
(9.19264 0 0.65304)
(9.29039 0 0.65627)
(9.01177 0 0.743939)
(9.12237 0 0.750256)
(8.81144 0 0.842564)
(8.93565 0 0.852005)
(8.591 0 0.949762)
(8.72965 0 0.962421)
(8.34975 0 1.06634)
(8.50372 0 1.08238)
(8.08694 0 1.19303)
(8.25717 0 1.21271)
(7.80178 0 1.33037)
(7.98925 0 1.35412)
(7.49344 0 1.47867)
(7.69915 0 1.5071)
(7.16101 0 1.63776)
(7.386 0 1.67184)
(6.80352 0 1.80682)
(7.04884 0 1.848)
(6.41989 0 1.98403)
(6.68654 0 2.03443)
(6.00889 0 2.16619)
(6.29778 0 2.2289)
(5.56916 0 2.34814)
(5.88095 0 2.42753)
(5.09921 0 2.52221)
(5.43408 0 2.62428)
(4.59749 0 2.67754)
(4.95484 0 2.81029)
(4.06245 0 2.79943)
(4.44058 0 2.97318)
(3.49246 0 2.869)
(3.88826 0 3.09653)
(2.88562 0 2.86276)
(3.29499 0 3.15975)
(2.23784 0 2.75372)
(2.65669 0 3.13771)
(1.54232 0 2.52078)
(1.97468 0 3.00294)
(0.793585 0 2.13106)
(1.20714 0 2.7403)
(0.55669 0 2.29151)
(9.9825 0 0.110631)
(9.99302 0 0.0783649)
(9.9477 0 0.182332)
(9.96954 0 0.155044)
(9.89522 0 0.253829)
(9.92722 0 0.230896)
(9.82523 0 0.326782)
(9.86696 0 0.307523)
(9.73812 0 0.402575)
(9.78977 0 0.386541)
(9.63401 0 0.482258)
(9.69604 0 0.469171)
(9.51283 0 0.566787)
(9.58577 0 0.556426)
(9.37434 0 0.657128)
(9.45877 0 0.649305)
(9.21824 0 0.754255)
(9.31477 0 0.748828)
(9.04408 0 0.859133)
(9.15342 0 0.85601)
(8.85138 0 0.972718)
(8.97428 0 0.971856)
(8.63954 0 1.09595)
(8.77683 0 1.09736)
(8.40793 0 1.22971)
(8.56049 0 1.23349)
(8.15583 0 1.37483)
(8.32459 0 1.38116)
(7.88251 0 1.53195)
(8.0684 0 1.54117)
(7.58711 0 1.70147)
(7.79111 0 1.71414)
(7.26872 0 1.88339)
(7.49179 0 1.9004)
(6.92622 0 2.07706)
(7.16935 0 2.0998)
(6.55829 0 2.28094)
(6.82244 0 2.31149)
(6.16323 0 2.49212)
(6.44935 0 2.53358)
(5.73887 0 2.70588)
(6.04784 0 2.76272)
(5.28246 0 2.91501)
(5.61496 0 2.99351)
(4.79055 0 3.10914)
(5.14695 0 3.21785)
(4.25902 0 3.27413)
(4.63908 0 3.42423)
(3.68312 0 3.39173)
(4.08576 0 3.59705)
(3.05781 0 3.4395)
(3.48103 0 3.71637)
(2.37753 0 3.39155)
(2.81812 0 3.75789)
(1.63776 0 3.22587)
(2.09896 0 3.69368)
(0.839054 0 2.90051)
(1.27879 0 3.50411)
(0.573302 0 3.11331)
(9.98273 0 0.123587)
(9.99316 0 0.0868212)
(9.94873 0 0.204318)
(9.97026 0 0.1721)
(9.89794 0 0.285265)
(9.92926 0 0.256987)
(9.8305 0 0.367983)
(9.87123 0 0.343004)
(9.74669 0 0.453874)
(9.79714 0 0.431699)
(9.64666 0 0.544104)
(9.70733 0 0.524377)
(9.53036 0 0.639741)
(9.60179 0 0.622167)
(9.39759 0 0.741839)
(9.48036 0 0.726164)
(9.24809 0 0.851462)
(9.34283 0 0.83747)
(9.08148 0 0.969662)
(9.1889 0 0.957186)
(8.8973 0 1.09748)
(9.01819 0 1.0864)
(8.69502 0 1.23596)
(8.83023 0 1.22621)
(8.47403 0 1.38606)
(8.62446 0 1.37766)
(8.23365 0 1.54872)
(8.40026 0 1.54177)
(7.97309 0 1.7247)
(8.1569 0 1.71948)
(7.69146 0 1.91455)
(7.8935 0 1.91154)
(7.38768 0 2.11846)
(7.60904 0 2.11847)
(7.06042 0 2.33607)
(7.30223 0 2.34041)
(6.70798 0 2.56622)
(6.97143 0 2.57687)
(6.32811 0 2.80657)
(6.61447 0 2.82654)
(5.91783 0 3.05311)
(6.22844 0 3.08679)
(5.47316 0 3.29956)
(5.80945 0 3.35323)
(4.989 0 3.53664)
(5.35233 0 3.619)
(4.45902 0 3.75134)
(4.85054 0 3.87396)
(3.87591 0 3.92632)
(4.29608 0 4.10384)
(3.23204 0 4.03964)
(3.68022 0 4.2895)
(2.52059 0 4.06469)
(2.99321 0 4.4065)
(1.73819 0 3.97576)
(2.23713 0 4.42421)
(0.889376 0 3.71833)
(1.36319 0 4.31584)
(0.598678 0 3.9844)
(9.98321 0 0.136209)
(9.99339 0 0.0950445)
(9.95032 0 0.225582)
(9.97131 0 0.188597)
(9.9015 0 0.315511)
(9.93193 0 0.282061)
(9.83693 0 0.407522)
(9.87643 0 0.376977)
(9.75683 0 0.503036)
(9.80578 0 0.474863)
(9.66133 0 0.603307)
(9.72029 0 0.577078)
(9.55044 0 0.709495)
(9.61994 0 0.684849)
(9.42401 0 0.822745)
(9.50463 0 0.799358)
(9.2818 0 0.944197)
(9.37419 0 0.921784)
(9.12351 0 1.07499)
(9.22839 0 1.05331)
(8.94873 0 1.21626)
(9.06691 0 1.19511)
(8.75698 0 1.36912)
(8.88932 0 1.34835)
(8.54768 0 1.53467)
(8.69513 0 1.51421)
(8.32014 0 1.71394)
(8.48373 0 1.69381)
(8.07357 0 1.90785)
(8.25439 0 1.88821)
(7.80699 0 2.11714)
(8.00623 0 2.09839)
(7.51915 0 2.34228)
(7.7381 0 2.3251)
(7.20848 0 2.58328)
(7.44854 0 2.56882)
(6.87288 0 2.83951)
(7.13563 0 2.82958)
(6.50952 0 3.10937)
(6.79676 0 3.10676)
(6.11459 0 3.38989)
(6.4284 0 3.39873)
(5.683 0 3.67607)
(6.02573 0 3.70238)
(5.20804 0 3.96021)
(5.58233 0 4.01253)
(4.68129 0 4.23092)
(5.08984 0 4.32095)
(4.09282 0 4.47216)
(4.53776 0 4.61529)
(3.43206 0 4.66229)
(3.91418 0 4.87766)
(2.68974 0 4.77279)
(3.2052 0 5.08325)
(1.86155 0 4.77193)
(2.41086 0 5.19751)
(0.954016 0 4.58917)
(1.476 0 5.18372)
(0.639063 0 4.9188)
(9.98386 0 0.148375)
(9.99368 0 0.102948)
(9.95235 0 0.245982)
(9.9726 0 0.204403)
(9.90578 0 0.344415)
(9.9351 0 0.305983)
(9.84437 0 0.445219)
(9.88241 0 0.409289)
(9.76832 0 0.549837)
(9.81551 0 0.51584)
(9.67779 0 0.659592)
(9.7347 0 0.627041)
(9.57279 0 0.775727)
(9.63997 0 0.744195)
(9.45325 0 0.899465)
(9.53128 0 0.868561)
(9.31899 0 1.03202)
(9.40851 0 1.00139)
(9.16974 0 1.17462)
(9.27148 0 1.14394)
(9.00517 0 1.32847)
(9.11995 0 1.29746)
(8.82486 0 1.4948)
(8.95356 0 1.46321)
(8.62827 0 1.6748)
(8.77187 0 1.64246)
(8.41475 0 1.86965)
(8.57434 0 1.83647)
(8.18349 0 2.08045)
(8.36027 0 2.04647)
(7.93346 0 2.30819)
(8.12877 0 2.27363)
(7.66331 0 2.55364)
(7.87865 0 2.51903)
(7.37123 0 2.81732)
(7.60836 0 2.78355)
(7.05482 0 3.09926)
(7.31576 0 3.06785)
(6.71074 0 3.39878)
(6.99794 0 3.37212)
(6.33448 0 3.71419)
(6.65088 0 3.69592)
(5.91988 0 4.04217)
(6.26904 0 4.03778)
(5.45875 0 4.37709)
(5.84488 0 4.39459)
(4.94049 0 4.70983)
(5.3683 0 4.76073)
(4.35212 0 5.02638)
(4.82615 0 5.12665)
(3.67898 0 5.30589)
(4.2025 0 5.47684)
(2.90695 0 5.51773)
(3.47723 0 5.78709)
(2.02722 0 5.62241)
(2.64443 0 6.01893)
(1.04485 0 5.52872)
(1.63729 0 6.12316)
(0.704268 0 5.94217)
(9.98465 0 0.159988)
(9.99402 0 0.110467)
(9.95473 0 0.265393)
(9.97409 0 0.21941)
(9.91065 0 0.371837)
(9.93867 0 0.328627)
(9.85266 0 0.480906)
(9.88904 0 0.439796)
(9.78099 0 0.594074)
(9.82618 0 0.55446)
(9.6958 0 0.712717)
(9.75037 0 0.674058)
(9.59715 0 0.838151)
(9.66165 0 0.799957)
(9.485 0 0.971668)
(9.56001 0 0.933484)
(9.35925 0 1.11455)
(9.44541 0 1.07595)
(9.21969 0 1.2681)
(9.31773 0 1.22868)
(9.06608 0 1.4336)
(9.1768 0 1.393)
(8.89805 0 1.61238)
(9.02236 0 1.57025)
(8.71514 0 1.80574)
(8.85404 0 1.76179)
(8.51676 0 2.01502)
(8.67138 0 1.96903)
(8.30215 0 2.2415)
(8.47375 0 2.19335)
(8.07026 0 2.48646)
(8.26033 0 2.43616)
(7.81972 0 2.75106)
(8.02997 0 2.69888)
(7.54863 0 3.03636)
(7.78112 0 2.98286)
(7.25439 0 3.34315)
(7.51161 0 3.28941)
(6.93339 0 3.67187)
(7.21841 0 3.61968)
(6.58059 0 4.02233)
(6.8973 0 3.97459)
(6.18906 0 4.39327)
(6.54234 0 4.35452)
(5.7493 0 4.7817)
(6.14524 0 4.75895)
(5.24857 0 5.18173)
(5.69452 0 5.18564)
(4.67032 0 5.58269)
(5.17443 0 5.62921)
(3.99424 0 5.96627)
(4.56435 0 6.07865)
(3.19776 0 6.30122)
(3.83554 0 6.51321)
(2.26121 0 6.53994)
(2.97006 0 6.8934)
(1.18027 0 6.56414)
(1.87854 0 7.15688)
(0.812504 0 7.09817)
(9.98553 0 0.17097)
(9.9944 0 0.117551)
(9.95738 0 0.283711)
(9.97572 0 0.233529)
(9.916 0 0.397653)
(9.94258 0 0.349884)
(9.86169 0 0.514435)
(9.89623 0 0.468372)
(9.79468 0 0.635565)
(9.83764 0 0.590567)
(9.71516 0 0.762466)
(9.76713 0 0.717943)
(9.62324 0 0.896513)
(9.68475 0 0.851917)
(9.51893 0 1.03906)
(9.59054 0 0.99387)
(9.40219 0 1.19144)
(9.48454 0 1.14517)
(9.27291 0 1.35502)
(9.36671 0 1.30719)
(9.1309 0 1.53118)
(9.23696 0 1.48132)
(8.97591 0 1.7213)
(9.09511 0 1.66897)
(8.80757 0 1.92682)
(8.94091 0 1.87162)
(8.62538 0 2.14922)
(8.77401 0 2.09076)
(8.42866 0 2.38999)
(8.59392 0 2.32796)
(8.21648 0 2.65069)
(8.39991 0 2.58488)
(7.98753 0 2.9329)
(8.191 0 2.86323)
(7.73998 0 3.23825)
(7.96577 0 3.16486)
(7.47124 0 3.56837)
(7.72222 0 3.49176)
(7.17769 0 3.9249)
(7.45748 0 3.84607)
(6.85419 0 4.30934)
(7.1675 0 4.23011)
(6.49346 0 4.72282)
(6.84646 0 4.64634)
(6.08523 0 5.16566)
(6.48601 0 5.09719)
(5.61506 0 5.63635)
(6.07412 0 5.58462)
(5.06289 0 6.12973)
(5.59332 0 6.10911)
(4.40142 0 6.63348)
(5.01875 0 6.66744)
(3.59529 0 7.12063)
(4.31158 0 7.24814)
(2.60355 0 7.53968)
(3.43465 0 7.81941)
(1.39379 0 7.73913)
(2.25557 0 8.31377)
(1.00213 0 8.46331)
(9.9865 0 0.18126)
(9.9948 0 0.124161)
(9.96026 0 0.300844)
(9.97747 0 0.24669)
(9.92176 0 0.421751)
(9.94676 0 0.369662)
(9.87133 0 0.545674)
(9.90387 0 0.494906)
(9.80923 0 0.674153)
(9.84977 0 0.624031)
(9.73567 0 0.808652)
(9.78478 0 0.75854)
(9.6508 0 0.95059)
(9.70902 0 0.899889)
(9.5547 0 1.10137)
(9.62257 0 1.0495)
(9.44741 0 1.26238)
(9.52554 0 1.20878)
(9.32889 0 1.43503)
(9.41797 0 1.37916)
(9.19905 0 1.62076)
(9.29986 0 1.56206)
(9.05776 0 1.82105)
(9.17116 0 1.75898)
(8.90475 0 2.03742)
(9.03173 0 1.97144)
(8.73968 0 2.27149)
(8.88136 0 2.20106)
(8.56201 0 2.52495)
(8.71973 0 2.44955)
(8.37099 0 2.79963)
(8.54633 0 2.71876)
(8.1655 0 3.09751)
(8.36038 0 3.01074)
(7.94396 0 3.42077)
(8.16078 0 3.32774)
(7.70407 0 3.77188)
(7.94589 0 3.67239)
(7.44255 0 4.15366)
(7.71334 0 4.04776)
(7.15465 0 4.56937)
(7.45968 0 4.45751)
(6.83349 0 5.02273)
(7.1799 0 4.90615)
(6.46901 0 5.51786)
(6.86658 0 5.39918)
(6.04633 0 6.05886)
(6.50868 0 5.94329)
(5.54323 0 6.64876)
(6.08923 0 6.54637)
(4.92608 0 7.28678)
(5.58209 0 7.21679)
(4.14387 0 7.96083)
(4.94124 0 7.96125)
(3.12062 0 8.63243)
(4.10784 0 8.77484)
(1.75542 0 9.12604)
(2.87702 0 9.61932)
(1.36385 0 10.1826)
(9.98754 0 0.190806)
(9.99523 0 0.130265)
(9.96332 0 0.316719)
(9.97932 0 0.258834)
(9.92785 0 0.44404)
(9.95115 0 0.387883)
(9.88148 0 0.574513)
(9.91188 0 0.519306)
(9.82448 0 0.70971)
(9.86243 0 0.654741)
(9.75712 0 0.851125)
(9.80317 0 0.795718)
(9.67958 0 1.00021)
(9.73425 0 0.943719)
(9.592 0 1.15841)
(9.65582 0 1.1002)
(9.4945 0 1.32714)
(9.56805 0 1.26659)
(9.38714 0 1.50787)
(9.47106 0 1.44436)
(9.26993 0 1.70206)
(9.36498 0 1.63496)
(9.14286 0 1.91126)
(9.24984 0 1.83992)
(9.00583 0 2.13708)
(9.12569 0 2.06084)
(8.85865 0 2.38125)
(8.99246 0 2.2994)
(8.701 0 2.64561)
(8.85005 0 2.55743)
(8.53237 0 2.93223)
(8.6982 0 2.83695)
(8.35199 0 3.24342)
(8.53647 0 3.14023)
(8.15868 0 3.58187)
(8.36417 0 3.46987)
(7.9507 0 3.95075)
(8.18025 0 3.829)
(7.72549 0 4.35395)
(7.9831 0 4.22144)
(7.47932 0 4.79633)
(7.77036 0 4.65196)
(7.20661 0 5.28406)
(7.53854 0 5.12677)
(6.89896 0 5.82512)
(7.28238 0 5.65408)
(6.54341 0 6.42985)
(6.99388 0 6.245)
(6.11922 0 7.11163)
(6.66032 0 6.91504)
(5.59164 0 7.88755)
(6.26111 0 7.68641)
(4.89921 0 8.77739)
(5.7558 0 8.59252)
(3.92502 0 9.80023)
(5.0851 0 9.68445)
(2.43166 0 10.8541)
(3.97695 0 11.0474)
(2.1444 0 12.5643)
(9.98862 0 0.19957)
(9.99567 0 0.13584)
(9.96652 0 0.331274)
(9.98124 0 0.269916)
(9.9342 0 0.464437)
(9.9557 0 0.404487)
(9.89202 0 0.600846)
(9.92017 0 0.541497)
(9.8403 0 0.742098)
(9.87552 0 0.68261)
(9.77932 0 0.88971)
(9.82216 0 0.829374)
(9.70932 0 1.04516)
(9.76028 0 0.983287)
(9.6305 0 1.20991)
(9.6901 0 1.14582)
(9.54306 0 1.38541)
(9.61185 0 1.31844)
(9.44716 0 1.57314)
(9.52576 0 1.50259)
(9.34293 0 1.77461)
(9.43205 0 1.69978)
(9.23049 0 1.9914)
(9.33091 0 1.91155)
(9.10991 0 2.22516)
(9.22251 0 2.13951)
(8.9812 0 2.47771)
(9.107 0 2.3854)
(8.84431 0 2.751)
(8.98451 0 2.65112)
(8.69904 0 3.04727)
(8.85509 0 2.93877)
(8.54504 0 3.36907)
(8.71869 0 3.25077)
(8.3817 0 3.71943)
(8.57517 0 3.58996)
(8.20807 0 4.10205)
(8.42417 0 3.95975)
(8.02268 0 4.52161)
(8.26512 0 4.36441)
(7.82335 0 4.98414)
(8.09711 0 4.80941)
(7.60677 0 5.49768)
(7.91877 0 5.30198)
(7.3679 0 6.07327)
(7.7281 0 5.85199)
(7.0988 0 6.72655)
(7.52222 0 6.47335)
(6.7863 0 7.48069)
(7.29687 0 7.18664)
(6.40682 0 8.37237)
(7.04652 0 8.02419)
(5.91332 0 9.46589)
(6.7609 0 9.04243)
(5.19321 0 10.9072)
(6.45887 0 10.3568)
(3.88125 0 13.1749)
(6.18486 0 12.3021)
(5.2514 0 16.3657)
(0.192123 0 -0.11453)
(0.113077 0 -0.188173)
(0.375453 0 -0.0975158)
(0.274704 0 -0.17532)
(0.526601 0 -0.0744835)
(0.436192 0 -0.14113)
(0.64438 0 -0.0535023)
(0.572254 0 -0.107375)
(0.732393 0 -0.0358743)
(0.67818 0 -0.078344)
(0.794527 0 -0.0212818)
(0.757561 0 -0.0540007)
(0.834072 0 -0.0091867)
(0.814798 0 -0.0335577)
(0.853815 0 0.0007648)
(0.853248 0 -0.0163579)
(0.85669 0 0.00835573)
(0.87531 0 -0.00232564)
(0.844463 0 0.0136552)
(0.883113 0 0.0096576)
(0.820509 0 0.0172678)
(0.877298 0 0.0184735)
(0.78754 0 0.0194797)
(0.860421 0 0.024826)
(0.748228 0 0.0204132)
(0.835266 0 0.0289025)
(0.705328 0 0.020165)
(0.804586 0 0.0307958)
(0.661565 0 0.0188871)
(0.771157 0 0.0306731)
(0.619404 0 0.016815)
(0.737652 0 0.0288527)
(0.580833 0 0.0142605)
(0.70639 0 0.0257718)
(0.547201 0 0.0115738)
(0.679088 0 0.0219414)
(0.519104 0 0.00908503)
(0.656716 0 0.0178975)
(0.496352 0 0.00703747)
(0.63942 0 0.0141507)
(0.478107 0 0.00552758)
(0.626595 0 0.0110789)
(0.463252 0 0.00449877)
(0.617162 0 0.00880818)
(0.450776 0 0.00380452)
(0.609995 0 0.00722233)
(0.440005 0 0.003289)
(0.604258 0 0.00608792)
(0.430627 0 0.00284737)
(0.599513 0 0.00517579)
(0.422543 0 0.00245095)
(0.595639 0 0.00435609)
(0.415658 0 0.0021259)
(0.592614 0 0.00362212)
(0.409742 0 0.00189233)
(0.590316 0 0.00303937)
(0.40448 0 0.00161439)
(0.588429 0 0.00263881)
(0.586332 0 0.00205732)
(0.178446 0 -0.273889)
(0.0949712 0 -0.362949)
(0.349867 0 -0.240137)
(0.245183 0 -0.339251)
(0.494375 0 -0.190367)
(0.387077 0 -0.27606)
(0.611421 0 -0.144293)
(0.50803 0 -0.214082)
(0.704607 0 -0.105268)
(0.604703 0 -0.161292)
(0.777525 0 -0.0726662)
(0.680698 0 -0.117375)
(0.833132 0 -0.0452908)
(0.739673 0 -0.0807453)
(0.873699 0 -0.0221403)
(0.78431 0 -0.0499691)
(0.900272 0 -0.00259197)
(0.816495 0 -0.0238229)
(0.914501 0 0.0133423)
(0.837685 0 -0.00158103)
(0.915761 0 0.025541)
(0.848744 0 0.0175017)
(0.906902 0 0.0341921)
(0.849551 0 0.0314967)
(0.890579 0 0.0394465)
(0.842546 0 0.0409038)
(0.86959 0 0.0414989)
(0.830136 0 0.0458623)
(0.846711 0 0.040717)
(0.814812 0 0.0467089)
(0.824433 0 0.037659)
(0.798961 0 0.0440987)
(0.804739 0 0.0330222)
(0.7846 0 0.0389308)
(0.788931 0 0.0275885)
(0.77318 0 0.0322546)
(0.777531 0 0.0221475)
(0.765467 0 0.025159)
(0.770263 0 0.0173645)
(0.76147 0 0.0186707)
(0.766235 0 0.0136155)
(0.760496 0 0.0135249)
(0.764361 0 0.0109141)
(0.761446 0 0.00991984)
(0.763743 0 0.00901312)
(0.76328 0 0.00757974)
(0.763851 0 0.0075802)
(0.765305 0 0.0060271)
(0.764499 0 0.00635607)
(0.767243 0 0.00481809)
(0.765662 0 0.00524432)
(0.769103 0 0.00372923)
(0.767267 0 0.00429107)
(0.770969 0 0.00277801)
(0.769087 0 0.00358071)
(0.772819 0 0.00210426)
(0.770754 0 0.00307428)
(0.77444 0 0.00180257)
(0.775592 0 0.00188209)
(0.151861 0 -0.434741)
(0.0748966 0 -0.511688)
(0.293222 0 -0.382068)
(0.202061 0 -0.474435)
(0.410582 0 -0.306178)
(0.310991 0 -0.385641)
(0.505575 0 -0.236556)
(0.404231 0 -0.300683)
(0.581945 0 -0.177888)
(0.478347 0 -0.229271)
(0.642687 0 -0.129041)
(0.537427 0 -0.170166)
(0.690145 0 -0.0882171)
(0.584159 0 -0.121018)
(0.726167 0 -0.0538369)
(0.620408 0 -0.0798148)
(0.75241 0 -0.0244228)
(0.64762 0 -0.0450526)
(0.770236 0 0.000692721)
(0.666658 0 -0.0156612)
(0.780839 0 0.0210089)
(0.68093 0 0.00932497)
(0.783748 0 0.036017)
(0.687258 0 0.0293062)
(0.780835 0 0.0456001)
(0.687859 0 0.0430451)
(0.774328 0 0.0499446)
(0.684696 0 0.0505335)
(0.766365 0 0.0496438)
(0.679741 0 0.0522902)
(0.758783 0 0.0456095)
(0.674729 0 0.0492875)
(0.752997 0 0.0389672)
(0.670982 0 0.0427964)
(0.749914 0 0.0309913)
(0.66935 0 0.0342658)
(0.749794 0 0.0229934)
(0.670157 0 0.0252358)
(0.752211 0 0.0161002)
(0.673136 0 0.0171677)
(0.756185 0 0.0109369)
(0.677402 0 0.0111111)
(0.760686 0 0.00748836)
(0.681753 0 0.00725145)
(0.764963 0 0.00530575)
(0.685234 0 0.00510399)
(0.768644 0 0.00383094)
(0.687383 0 0.00394605)
(0.771717 0 0.00265893)
(0.68818 0 0.00312205)
(0.774301 0 0.00166287)
(0.687907 0 0.00233725)
(0.77649 0 0.000937939)
(0.686906 0 0.0016261)
(0.778263 0 0.000636556)
(0.685418 0 0.0011937)
(0.779424 0 0.000879112)
(0.683515 0 0.00122001)
(0.680699 0 0.00191211)
(0.122585 0 -0.560939)
(0.0547286 0 -0.631752)
(0.228501 0 -0.487965)
(0.153331 0 -0.575723)
(0.312768 0 -0.389899)
(0.223159 0 -0.464322)
(0.380388 0 -0.302296)
(0.285125 0 -0.36233)
(0.435082 0 -0.229309)
(0.332494 0 -0.277956)
(0.479056 0 -0.168732)
(0.370791 0 -0.208385)
(0.513931 0 -0.118102)
(0.401465 0 -0.150612)
(0.540877 0 -0.0754627)
(0.425635 0 -0.102141)
(0.560925 0 -0.0395072)
(0.444153 0 -0.0612711)
(0.575416 0 -0.00926014)
(0.457289 0 -0.027107)
(0.585178 0 0.0156575)
(0.46736 0 0.00179648)
(0.589459 0 0.034574)
(0.473232 0 0.026083)
(0.589944 0 0.0467328)
(0.47481 0 0.0426884)
(0.588643 0 0.0522245)
(0.47405 0 0.0514674)
(0.587089 0 0.0518891)
(0.472737 0 0.0533795)
(0.586358 0 0.046963)
(0.471949 0 0.0497877)
(0.587153 0 0.0389397)
(0.472164 0 0.0422649)
(0.589761 0 0.0294965)
(0.473454 0 0.0325644)
(0.593988 0 0.0203375)
(0.47556 0 0.0225432)
(0.599062 0 0.0129068)
(0.477916 0 0.0140121)
(0.603652 0 0.00790061)
(0.479479 0 0.00832418)
(0.606726 0 0.00510724)
(0.479012 0 0.00542869)
(0.607765 0 0.00379543)
(0.475971 0 0.00450212)
(0.606779 0 0.00316598)
(0.470444 0 0.00450357)
(0.604158 0 0.0026706)
(0.46284 0 0.00456835)
(0.600383 0 0.0021358)
(0.453784 0 0.00437152)
(0.595851 0 0.00168802)
(0.44387 0 0.0040106)
(0.590821 0 0.00153277)
(0.433518 0 0.00377736)
(0.585442 0 0.00190619)
(0.423085 0 0.00391816)
(0.411424 0 0.00436787)
(0.0886495 0 -0.654382)
(0.0335962 0 -0.718579)
(0.155118 0 -0.560274)
(0.0984346 0 -0.639288)
(0.202771 0 -0.444816)
(0.124389 0 -0.508817)
(0.239933 0 -0.34542)
(0.153044 0 -0.396209)
(0.269777 0 -0.263647)
(0.170447 0 -0.304522)
(0.293778 0 -0.196031)
(0.184744 0 -0.229245)
(0.312995 0 -0.139567)
(0.195843 0 -0.166919)
(0.328077 0 -0.0919722)
(0.204599 0 -0.114637)
(0.339372 0 -0.0517222)
(0.211605 0 -0.0704077)
(0.347115 0 -0.0174425)
(0.216637 0 -0.0332235)
(0.353017 0 0.0110811)
(0.220642 0 -0.00275521)
(0.355795 0 0.0325908)
(0.22201 0 0.0239917)
(0.356179 0 0.0461371)
(0.221268 0 0.0424056)
(0.355982 0 0.0519304)
(0.219024 0 0.0516093)
(0.356115 0 0.0511791)
(0.216746 0 0.0532857)
(0.356882 0 0.0454325)
(0.21428 0 0.049263)
(0.358164 0 0.0364513)
(0.21088 0 0.0414084)
(0.359531 0 0.026145)
(0.205666 0 0.0316727)
(0.360354 0 0.0165064)
(0.197977 0 0.0220186)
(0.359728 0 0.00946101)
(0.188077 0 0.0144014)
(0.3561 0 0.00571852)
(0.176166 0 0.0105276)
(0.349071 0 0.00458396)
(0.162859 0 0.00959622)
(0.338861 0 0.00497767)
(0.148793 0 0.0104125)
(0.326263 0 0.00582921)
(0.134202 0 0.0116248)
(0.312102 0 0.00642674)
(0.119075 0 0.0123834)
(0.297093 0 0.00656608)
(0.103714 0 0.0124591)
(0.281671 0 0.00649499)
(0.0883672 0 0.0121245)
(0.266047 0 0.00663176)
(0.0731769 0 0.0118035)
(0.250853 0 0.00685659)
(0.0582188 0 0.0115388)
(0.0432501 0 0.0101691)
(0.0500772 0 -0.710421)
(0.0105186 0 -0.767626)
(0.0727938 0 -0.594958)
(0.0364172 0 -0.661012)
(0.0815752 0 -0.466811)
(0.0158622 0 -0.517016)
(0.0859238 0 -0.361056)
(0.00861115 0 -0.400173)
(0.0876293 0 -0.275029)
(-0.00681756 0 -0.30604)
(0.0879853 0 -0.2044)
(-0.0202952 0 -0.229554)
(0.087669 0 -0.145743)
(-0.0329542 0 -0.16665)
(0.0871857 0 -0.0965499)
(-0.0439152 0 -0.114237)
(0.08719 0 -0.0554704)
(-0.0529285 0 -0.0704111)
(0.0883618 0 -0.021288)
(-0.0613442 0 -0.0341491)
(0.0863738 0 0.00824828)
(-0.0717946 0 -0.00122201)
(0.0836999 0 0.032259)
(-0.0791498 0 0.0260051)
(0.0803026 0 0.0472509)
(-0.0840249 0 0.0449033)
(0.0768601 0 0.0530969)
(-0.0903468 0 0.0540805)
(0.072832 0 0.0520434)
(-0.097433 0 0.056109)
(0.0669743 0 0.0463364)
(-0.106398 0 0.0532717)
(0.0578982 0 0.0380394)
(-0.118188 0 0.0474728)
(0.0446108 0 0.0291266)
(-0.133394 0 0.0403414)
(0.0269237 0 0.0214625)
(-0.15204 0 0.0332851)
(0.00593607 0 0.0165815)
(-0.17301 0 0.0274544)
(-0.0153451 0 0.0149301)
(-0.195126 0 0.0234506)
(-0.0360411 0 0.0155325)
(-0.216525 0 0.0218671)
(-0.0554139 0 0.0168699)
(-0.236147 0 0.0216276)
(-0.0733918 0 0.0178295)
(-0.253764 0 0.0217865)
(-0.0899721 0 0.0179942)
(-0.269723 0 0.0215338)
(-0.105402 0 0.0175537)
(-0.284162 0 0.0207734)
(-0.120012 0 0.0169954)
(-0.29734 0 0.0198112)
(-0.133989 0 0.0163388)
(-0.309602 0 0.0189835)
(-0.146757 0 0.0145948)
(-0.321326 0 0.0179429)
(-0.33117 0 0.0155423)
(0.00261255 0 -0.723354)
(-0.0167855 0 -0.770185)
(-0.0189096 0 -0.587649)
(-0.0347386 0 -0.64043)
(-0.050097 0 -0.452015)
(-0.101098 0 -0.487896)
(-0.0815269 0 -0.345285)
(-0.148735 0 -0.37152)
(-0.11186 0 -0.259828)
(-0.199405 0 -0.279039)
(-0.139568 0 -0.190943)
(-0.244385 0 -0.205473)
(-0.163958 0 -0.134714)
(-0.284545 0 -0.145954)
(-0.184928 0 -0.0879583)
(-0.319377 0 -0.096862)
(-0.203752 0 -0.047975)
(-0.34906 0 -0.0551826)
(-0.22312 0 -0.0127807)
(-0.375493 0 -0.0188511)
(-0.239762 0 0.0171528)
(-0.400841 0 0.0116127)
(-0.251167 0 0.038944)
(-0.414682 0 0.034593)
(-0.259052 0 0.0518682)
(-0.424804 0 0.0507008)
(-0.267719 0 0.057641)
(-0.435024 0 0.0603018)
(-0.278769 0 0.0580133)
(-0.446212 0 0.0638541)
(-0.292815 0 0.0547768)
(-0.459486 0 0.0628836)
(-0.309847 0 0.0494685)
(-0.475174 0 0.0588533)
(-0.329367 0 0.0434229)
(-0.493075 0 0.0530757)
(-0.350584 0 0.0376955)
(-0.512651 0 0.0468003)
(-0.37256 0 0.0329743)
(-0.53319 0 0.0411222)
(-0.394564 0 0.0298232)
(-0.554003 0 0.0368129)
(-0.415275 0 0.0282061)
(-0.574038 0 0.0341469)
(-0.434055 0 0.0273245)
(-0.592557 0 0.0324996)
(-0.450459 0 0.0264351)
(-0.608939 0 0.0310582)
(-0.464512 0 0.02521)
(-0.622958 0 0.0292898)
(-0.476494 0 0.0237732)
(-0.634642 0 0.0272297)
(-0.486857 0 0.0223707)
(-0.644384 0 0.0252634)
(-0.495887 0 0.0208821)
(-0.652856 0 0.0236222)
(-0.503694 0 0.0189467)
(-0.660496 0 0.0218589)
(-0.665766 0 0.0197611)
(-0.0454855 0 -0.687526)
(-0.0502499 0 -0.725635)
(-0.11736 0 -0.537604)
(-0.114989 0 -0.571696)
(-0.191342 0 -0.401901)
(-0.227895 0 -0.418817)
(-0.263077 0 -0.298678)
(-0.319628 0 -0.306121)
(-0.328873 0 -0.218278)
(-0.406937 0 -0.220472)
(-0.387717 0 -0.154649)
(-0.483619 0 -0.154332)
(-0.439398 0 -0.103081)
(-0.550048 0 -0.102098)
(-0.484147 0 -0.0599559)
(-0.606711 0 -0.0597853)
(-0.522779 0 -0.0231147)
(-0.654553 0 -0.0239304)
(-0.554336 0 0.00722865)
(-0.692397 0 0.00607457)
(-0.576508 0 0.0304692)
(-0.719848 0 0.0287119)
(-0.591899 0 0.0477526)
(-0.738139 0 0.0461828)
(-0.604285 0 0.0597525)
(-0.752904 0 0.059807)
(-0.615848 0 0.0662727)
(-0.765384 0 0.068602)
(-0.62836 0 0.0680183)
(-0.77751 0 0.0726238)
(-0.642565 0 0.0661218)
(-0.790485 0 0.0726047)
(-0.658478 0 0.0617298)
(-0.804768 0 0.069486)
(-0.675782 0 0.0560395)
(-0.820311 0 0.0643646)
(-0.694089 0 0.0502358)
(-0.836866 0 0.0584616)
(-0.713019 0 0.0452553)
(-0.854173 0 0.0528958)
(-0.732081 0 0.041559)
(-0.871909 0 0.0483881)
(-0.750411 0 0.0389449)
(-0.889467 0 0.0450151)
(-0.767152 0 0.0367335)
(-0.906065 0 0.0421908)
(-0.781583 0 0.0343307)
(-0.920837 0 0.0392155)
(-0.793392 0 0.0316103)
(-0.933141 0 0.0358071)
(-0.802763 0 0.0288898)
(-0.942809 0 0.0322794)
(-0.810229 0 0.0265046)
(-0.95029 0 0.0291913)
(-0.816347 0 0.0243991)
(-0.956463 0 0.0267648)
(-0.821942 0 0.022453)
(-0.96181 0 0.0246652)
(-0.965012 0 0.0230317)
(-0.101491 0 -0.60191)
(-0.0920221 0 -0.626231)
(-0.224335 0 -0.442686)
(-0.20727 0 -0.454221)
(-0.346289 0 -0.312193)
(-0.371318 0 -0.304946)
(-0.459197 0 -0.21819)
(-0.50705 0 -0.203186)
(-0.558916 0 -0.14875)