/*--------------------------------*- C++ -*----------------------------------*\
  =========                 |
  \\      /  F ield         | OpenFOAM: The Open Source CFD Toolbox
   \\    /   O peration     | Website:  https://openfoam.org
    \\  /    A nd           | Version:  dev
     \\/     M anipulation  |
\*---------------------------------------------------------------------------*/
FoamFile
{
    version     2.0;
    format      ascii;
    class       volScalarField;
    location    "0.6";
    object      p;
}
// * * * * * * * * * * * * * * * * * * * * * * * * * * * * * * * * * * * * * //

dimensions      [0 2 -2 0 0 0 0];

internalField   nonuniform List<scalar> 
2790
(
107.516
107.427
107.704
108.288
109.085
110.062
111.217
112.548
114.052
115.721
117.549
119.529
121.652
123.905
126.273
128.734
131.261
133.822
136.373
138.866
141.242
143.439
145.393
147.043
148.342
149.266
149.834
150.058
150.183
150.366
107.312
107.334
107.635
108.216
109.009
109.983
111.134
112.459
113.955
115.616
117.435
119.405
121.518
123.76
126.117
128.568
131.088
133.643
136.194
138.69
141.078
143.293
145.271
146.951
148.28
149.23
149.803
150.068
150.275
150.497
107.111
107.203
107.523
108.094
108.874
109.835
110.971
112.278
113.753
115.389
117.181
119.12
121.198
123.402
125.719
128.129
130.606
133.121
135.635
138.103
140.475
142.691
144.693
146.423
147.833
148.901
149.642
150.132
150.508
150.83
106.883
107.005
107.338
107.9
108.665
109.61
110.726
112.01
113.456
115.059
116.812
118.708
120.737
122.889
125.147
127.494
129.906
132.356
134.808
137.224
139.558
141.759
143.778
145.566
147.087
148.327
149.302
150.062
150.662
151.16
106.617
106.754
107.095
107.65
108.398
109.322
110.412
111.665
113.074
114.634
116.338
118.179
120.146
122.229
124.413
126.68
129.008
131.374
133.745
136.088
138.366
140.537
142.561
144.403
146.037
147.453
148.659
149.673
150.492
151.167
106.311
106.453
106.796
107.341
108.07
108.967
110.026
111.24
112.605
114.114
115.76
117.535
119.429
121.43
123.525
125.697
127.926
130.19
132.461
134.712
136.912
139.031
141.038
142.911
144.631
146.19
147.584
148.808
149.808
150.64
105.961
106.104
106.444
106.976
107.682
108.55
109.571
110.742
112.055
113.505
115.084
116.783
118.592
120.5
122.493
124.556
126.669
128.813
130.966
133.103
135.201
137.237
139.194
141.055
142.811
144.455
145.977
147.352
148.484
149.445
105.569
105.709
106.042
106.558
107.237
108.071
109.051
110.172
111.428
112.811
114.313
115.927
117.641
119.444
121.322
123.261
125.244
127.251
129.263
131.261
133.227
135.145
137.004
138.797
140.522
142.176
143.746
145.203
146.416
147.483
105.133
105.27
105.592
106.088
106.739
107.534
108.468
109.534
110.726
112.035
113.454
114.973
116.582
118.269
120.021
121.822
123.657
125.507
127.356
129.186
130.984
132.738
134.443
136.097
137.705
139.273
140.793
142.244
143.477
144.634
104.656
104.788
105.097
105.57
106.189
106.943
107.826
108.832
109.954
111.184
112.512
113.929
115.424
116.984
118.597
120.246
121.916
123.59
125.251
126.882
128.471
130.008
131.489
132.917
134.302
135.658
136.994
138.316
139.482
140.706
104.14
104.265
104.558
105.006
105.59
106.3
107.129
108.071
109.118
110.262
111.493
112.8
114.173
115.597
117.06
118.544
120.034
121.511
122.957
124.355
125.691
126.951
128.13
129.229
130.256
131.235
132.195
133.191
134.129
135.369
103.585
103.703
103.979
104.4
104.947
105.609
106.381
107.255
108.223
109.276
110.404
111.595
112.838
114.119
115.421
116.728
118.022
119.282
120.489
121.621
122.658
123.581
124.372
125.023
125.531
125.914
126.213
126.546
126.926
128.026
102.995
103.105
103.363
103.754
104.261
104.874
105.585
106.388
107.274
108.232
109.252
110.323
111.43
112.558
113.692
114.811
115.896
116.923
117.868
118.703
119.4
119.925
120.244
120.323
120.127
119.636
118.862
117.946
117.046
117.498
102.371
102.473
102.711
103.071
103.537
104.098
104.747
105.476
106.276
107.136
108.045
108.99
109.957
110.928
111.886
112.81
113.675
114.455
115.12
115.634
115.956
116.034
115.809
115.203
114.12
112.444
110.049
106.916
103.126
101.112
101.716
101.809
102.027
102.355
102.779
103.286
103.871
104.524
105.236
105.996
106.791
107.607
108.43
109.24
110.018
110.74
111.379
111.904
112.277
112.455
112.38
111.982
111.165
109.8
107.698
104.578
99.9949
93.2983
83.2385
71.347
-10.4751
-11.6888
-13.8755
-17.1333
-21.4441
-26.7467
-32.9456
-39.9175
-47.5154
-55.5696
-63.8877
-72.2531
-80.4235
-88.1299
-95.0794
-100.961
-105.46
-108.266
-109.079
-107.618
-103.673
-97.086
-87.8267
-75.9405
-61.5454
-44.8256
-26.124
-6.65066
9.77683
15.918
-10.476
-11.8309
-14.0966
-17.4278
-21.805
-27.1688
-33.4242
-40.4484
-48.0954
-56.1966
-64.5607
-72.9719
-81.1879
-88.9397
-95.9331
-101.856
-106.392
-109.235
-110.096
-108.707
-104.824
-98.3389
-89.2422
-77.5977
-63.5487
-47.3524
-29.4933
-11.0546
5.1829
11.1013
-11.6419
-13.1961
-15.5902
-19.024
-23.4652
-28.8605
-35.1218
-42.1333
-49.7562
-57.8285
-66.1648
-74.5538
-82.7564
-90.5044
-97.5027
-103.436
-107.985
-110.838
-111.705
-110.32
-106.467
-100.043
-91.0709
-79.6381
-65.9132
-50.2172
-33.1414
-15.6609
0.112876
6.68863
-14.0114
-15.6556
-18.0959
-21.5755
-26.033
-31.4178
-37.6473
-44.6138
-52.1865
-60.2115
-68.5098
-76.8748
-85.0699
-92.8269
-99.8484
-105.815
-110.399
-113.285
-114.179
-112.816
-108.996
-102.648
-93.8238
-82.6343
-69.263
-54.0524
-37.6073
-20.7963
-5.29836
2.88364
-17.2835
-18.9078
-21.3138
-24.7801
-29.2085
-34.5476
-40.7162
-47.6127
-55.1136
-63.0723
-71.3164
-79.6439
-87.8205
-95.578
-102.616
-108.61
-113.225
-116.137
-117.045
-115.69
-111.891
-105.608
-96.9274
-85.9813
-72.961
-58.1984
-42.2535
-25.8901
-10.4273
-0.247856
-21.0813
-22.6289
-24.9592
-28.3722
-32.7374
-38.0059
-44.0969
-50.9132
-58.338
-66.2313
-74.4268
-82.7267
-90.8986
-98.6735
-105.747
-111.787
-116.448
-119.391
-120.303
-118.931
-115.119
-108.867
-100.295
-89.5526
-76.8273
-62.4155
-46.8045
-30.6561
-14.9757
-2.78281
-25.0359
-26.4841
-28.7268
-32.0681
-36.3545
-41.5437
-47.5549
-54.2947
-61.6509
-69.489
-77.6471
-85.9309
-94.1093
-101.912
-109.03
-115.125
-119.837
-122.811
-123.716
-122.309
-118.458
-112.205
-103.71
-93.1324
-80.6423
-66.4833
-51.0566
-34.9246
-18.8345
-4.81318
-28.804
-30.1512
-32.3145
-35.5872
-39.8002
-44.9204
-50.866
-57.5463
-64.8522
-72.6532
-80.7912
-89.0749
-97.2743
-105.118
-112.295
-118.457
-123.231
-126.237
-127.126
-125.662
-121.741
-115.455
-107.001
-96.5479
-84.2346
-70.2412
-54.8778
-38.6147
-22.0006
-6.41902
-32.0848
-33.3456
-35.4528
-38.6784
-42.8427
-47.9214
-53.8299
-60.4787
-67.7607
-75.5479
-83.6859
-91.9863
-100.221
-108.118
-115.363
-121.602
-126.449
-129.493
-130.357
-128.821
-124.805
-118.458
-110.017
-99.6536
-87.4687
-73.5739
-58.1891
-41.7048
-24.5256
-7.66908
-34.6354
-35.8365
-37.9218
-41.1362
-45.2911
-50.3693
-56.2796
-62.9327
-70.2214
-78.0191
-86.1764
-94.5075
-102.787
-110.744
-118.064
-124.387
-129.315
-132.404
-133.243
-131.632
-127.506
-121.079
-112.63
-102.331
-90.2413
-76.4036
-60.9532
-44.2124
-26.49
-8.62727
-36.2841
-37.4553
-39.5598
-42.8094
-47.0058
-52.1339
-58.092
-64.7882
-72.1139
-79.9427
-88.1339
-96.5033
-104.83
-112.847
-120.239
-126.646
-131.659
-134.805
-135.626
-133.948
-129.712
-123.201
-114.737
-104.488
-92.4766
-78.6834
-63.1669
-46.1852
-27.9877
-9.35315
-36.9447
-38.1071
-40.2838
-43.6204
-47.9179
-53.1491
-59.1981
-65.9686
-73.3519
-81.2311
-89.4627
-97.8676
-106.232
-114.294
-121.743
-128.218
-133.306
-136.513
-137.337
-135.613
-131.297
-124.732
-116.267
-106.072
-94.1374
-80.3942
-64.8414
-47.6814
-29.0991
-9.88851
-36.579
-37.7796
-40.0732
-43.554
-48.0219
-53.4155
-59.6012
-66.4778
-73.9404
-81.8747
-90.1355
-98.5544
-106.925
-114.996
-122.462
-128.963
-134.088
-137.348
-138.207
-136.488
-132.165
-125.614
-117.197
-107.085
-95.2482
-81.5702
-66.0026
-48.7113
-29.8455
-10.2448
-35.2122
-36.5266
-38.9742
-42.6646
-47.3853
-53.002
-59.362
-66.3633
-73.906
-81.8814
-90.1513
-98.5562
-106.899
-114.936
-122.374
-128.859
-133.987
-137.263
-138.154
-136.488
-132.233
-125.772
-117.476
-107.502
-95.7916
-82.1975
-66.6381
-49.2569
-30.2268
-10.4381
-32.8947
-34.5192
-37.0779
-41.0721
-46.1561
-52.0537
-58.6097
-65.7366
-73.3457
-81.3376
-89.5852
-97.9375
-106.206
-114.157
-121.506
-127.909
-132.966
-136.191
-137.082
-135.489
-131.389
-125.133
-117.058
-107.287
-95.7406
-82.2554
-66.7455
-49.3551
-30.2906
-10.5122
101.02
101.104
101.3
101.595
101.974
102.426
102.943
103.518
104.139
104.795
105.472
106.156
106.83
107.475
108.067
108.581
108.988
109.249
109.322
109.153
108.67
107.783
106.361
104.22
101.071
96.4386
89.4379
78.2182
56.9388
-1.04911
100.275
100.349
100.522
100.782
101.114
101.508
101.956
102.449
102.976
103.524
104.079
104.627
105.148
105.621
106.023
106.325
106.493
106.486
106.256
105.738
104.852
103.488
101.495
98.6506
94.6141
88.8299
80.3195
67.4506
49.0641
22.6893
99.4857
99.5498
99.6989
99.9224
100.206
100.541
100.917
101.326
101.756
102.194
102.625
103.033
103.399
103.7
103.909
103.998
103.929
103.657
103.13
102.278
101.014
99.2209
96.7418
93.358
88.7615
82.528
74.1209
62.9944
49.861
35.0319
98.654
98.7078
98.8324
99.0184
99.2528
99.526
99.8293
100.153
100.484
100.811
101.117
101.385
101.595
101.724
101.743
101.622
101.321
100.795
99.9876
98.8277
97.2274
95.0735
92.2206
88.482
83.6249
77.3801
69.4867
59.6633
47.9152
33.8196
97.7816
97.8247
97.9245
98.0723
98.2565
98.4678
98.6971
98.9342
99.1672
99.3821
99.5632
99.6923
99.7486
99.708
99.5424
99.2188
98.698
97.9336
96.8693
95.4367
93.552
91.1125
87.9931
84.0444
79.0943
72.9547
65.4387
56.3142
45.4173
32.8928
96.8707
96.9031
96.9777
97.087
97.2206
97.3695
97.5247
97.6757
97.8104
97.9146
97.9722
97.9648
97.8713
97.6672
97.3241
96.8091
96.0836
95.1019
93.8104
92.1451
90.0304
87.3772
84.0822
80.0284
75.088
69.1275
62.023
53.6659
44.0318
33.4786
95.9241
95.9458
95.9951
96.0658
96.1488
96.2356
96.3172
96.3829
96.4206
96.4161
96.3533
96.2136
95.976
95.616
95.106
94.4136
93.5017
92.3274
90.8407
88.9843
86.6924
83.8906
80.4966
76.4222
71.5774
65.8782
59.2609
51.6982
43.2109
34.0856
94.9449
94.9559
94.9801
95.0124
95.0454
95.0708
95.0799
95.062
95.0051
94.8952
94.7161
94.4498
94.0755
93.5695
92.9051
92.0515
90.974
89.6331
87.9843
85.9775
83.5576
80.6646
77.2355
73.2069
68.5198
63.126
56.9977
50.1365
42.5656
34.5174
93.9369
93.9373
93.9368
93.9314
93.9151
93.8805
93.8188
93.7198
93.5715
93.3603
93.0705
92.6846
92.1826
91.5419
90.7372
89.7401
88.5189
87.0383
85.2596
83.1406
80.6366
77.7008
74.287
70.3518
65.8585
60.7821
55.1143
48.8699
42.0778
34.9377
92.9041
92.8942
92.8695
92.8273
92.7631
92.6703
92.5404
92.3633
92.1277
91.8204
91.4265
90.9291
90.3094
89.5464
88.6167
87.4946
86.1518
84.5577
82.6796
80.483
77.9326
74.9935
71.6331
67.8231
63.5429
58.7825
53.5461
47.8558
41.7439
35.3775
91.8513
91.8314
91.7833
91.7055
91.5952
91.4464
91.2512
90.9999
90.6818
90.2844
89.7936
89.1938
88.4675
87.5953
86.5564
85.3278
83.885
82.2022
80.2525
78.0084
75.4433
72.532
69.2526
65.5885
61.5301
57.0775
52.2419
47.0485
41.5287
35.8203
90.7834
90.7539
90.6834
90.5715
90.4171
90.2152
89.9582
89.6371
89.2419
88.761
88.1815
87.4889
86.6673
85.6996
84.5671
83.2501
81.7279
79.9791
77.9824
75.7167
73.1625
70.3027
67.1237
63.6174
59.7818
55.6231
51.1562
46.4065
41.403
36.2594
89.706
89.6674
89.5755
89.4314
89.2354
88.9834
88.6685
88.2825
87.8162
87.259
86.5991
85.8237
84.9185
83.8686
82.6578
81.2696
79.6869
77.8926
75.8701
73.6042
71.0811
68.2902
65.2243
61.881
58.2636
54.3818
50.252
45.8983
41.3473
36.6927
88.6251
88.5778
88.4659
88.2915
88.0565
87.7579
87.3894
86.9438
86.4125
85.7864
85.0549
84.2067
83.2295
82.1104
80.8359
79.3924
77.7662
75.9442
73.914
71.665
69.1885
66.4786
63.5328
60.353
56.9456
53.322
49.4992
45.4992
41.3459
37.1167
87.5468
87.4915
87.361
87.1584
86.8873
86.5457
86.1283
85.6284
85.0387
84.3513
83.5569
82.6458
81.6077
80.4318
79.1071
77.6226
75.968
74.1334
72.1103
69.8918
67.473
64.8518
62.0292
59.0097
55.8016
52.4172
48.8728
45.1885
41.3856
37.5281
86.4778
86.4151
86.2674
86.0389
85.7349
85.3542
84.8924
84.3439
83.7023
82.961
82.1123
81.1479
80.0595
78.8382
77.4755
75.9629
74.2928
72.4583
70.454
68.2761
65.9227
63.3944
60.6947
57.8297
54.8088
51.6445
48.3519
44.9494
41.4556
37.9236
85.4251
85.3557
85.1923
84.9403
84.6064
84.1906
83.6891
83.0975
82.4105
81.6227
80.7277
79.7192
78.5902
77.334
75.9441
74.4144
72.7397
70.9156
68.9391
66.809
64.5256
62.0917
59.5121
56.7942
53.9476
50.9845
47.9191
44.7677
41.5468
38.3005
84.3959
84.3204
84.1429
83.8698
83.5091
83.062
82.5256
81.8963
81.1702
80.3428
79.4094
78.365
77.2044
75.9226
74.515
72.9775
71.307
69.5012
67.5593
65.4816
63.2706
60.9301
58.466
55.8864
53.2008
50.4209
47.5597
44.6317
41.6517
38.6561
83.3977
83.3167
83.1266
82.8348
82.4505
81.9759
81.4091
80.7474
79.988
79.1276
78.1629
77.0902
75.9058
74.6065
73.1892
71.6517
69.9924
68.211
66.308
64.2854
62.1468
59.897
57.5426
55.0917
52.5538
49.9397
47.2614
44.5319
41.7641
38.9884
82.4381
82.3523
82.1511
81.8428
81.4379
80.9395
80.3466
79.6575
78.8702
77.9829
76.9933
75.8991
74.6979
73.3878
71.9675
70.436
68.7933
67.0403
65.1788
63.2121
61.1444
58.9814
56.7297
54.3975
51.994
49.5292
47.0141
44.4601
41.879
39.2959
81.5251
81.4351
81.2242
80.9016
80.4788
79.96
79.3451
78.6331
77.8231
76.9143
75.9055
74.7955
73.5833
72.2683
70.8501
69.3293
67.7068
65.9847
64.166
62.2543
60.2548
58.1733
56.0167
53.793
51.5108
49.1795
46.8092
44.41
41.9924
39.5774
80.6669
80.5731
80.3539
80.0188
79.5809
79.0449
78.4115
77.6807
76.8525
75.9269
74.9038
73.7831
72.5648
71.2492
69.8373
68.3303
66.7305
65.0405
63.264
61.4055
59.4702
57.4643
55.3947
53.269
51.0954
48.8827
46.64
44.3764
42.1014
39.8325
79.8717
79.7747
79.5482
79.2025
78.7516
78.2012
77.5528
76.8069
75.9643
75.0261
73.9928
72.8654
71.6447
70.332
68.9291
67.4381
65.8618
64.2038
62.4681
60.6595
58.7838
56.8469
54.8557
52.8176
50.7403
48.6319
46.5006
44.355
42.2033
40.0604
79.1482
79.0484
78.8154
78.4605
77.9987
77.4364
76.7758
76.018
75.1645
74.217
73.1771
72.0462
70.826
69.5186
68.1264
66.6523
65.0996
63.4723
61.7749
60.0125
58.1907
56.3158
54.3944
52.4334
50.4402
48.4224
46.3876
44.3435
42.2976
40.2623
78.5055
78.403
78.164
77.801
77.3298
76.7578
76.0873
75.3202
74.4585
73.5045
72.4603
71.3283
70.1106
68.8099
67.4292
65.9718
64.4416
62.8429
61.1804
59.4594
57.6856
55.8651
54.0043
52.1101
50.1892
48.2489
46.2961
44.3378
42.381
40.4362
77.9528
77.8475
77.6025
77.2319
76.7529
76.1732
75.4952
74.7212
73.8537
72.8955
71.8493
70.7178
69.5039
68.2105
66.8412
65.3996
63.89
62.3169
60.6852
59.0003
57.2679
55.494
53.6849
51.847
49.9869
48.1114
46.2269
44.3401
42.4573
40.5875
77.5008
77.3918
77.1392
76.7605
76.2743
75.688
75.0039
74.2245
73.3528
72.3919
71.345
70.2151
69.0053
67.7192
66.3603
64.9329
63.4412
61.89
60.2843
58.6295
56.9314
55.1958
53.4288
51.6366
49.8257
48.0022
46.1724
44.3424
42.5182
40.7074
77.1614
77.0463
76.7846
76.399
75.9077
75.3166
74.628
73.8447
72.9701
72.0077
70.9608
69.8327
68.6268
67.347
65.9971
64.5813
63.1042
61.5707
59.9858
58.355
56.6839
54.9783
53.2442
51.4876
49.7146
47.9313
46.1436
44.3575
42.5786
40.8137
76.95
76.8111
76.5321
76.1406
75.6468
75.053
74.3616
73.5762
72.7005
71.7379
70.6919
69.5659
68.3635
67.0887
65.7455
64.3383
62.8718
61.3507
59.7803
58.166
56.5133
54.8281
53.1161
51.3833
49.6357
47.8791
46.1193
44.3619
42.6124
40.8765
76.9263
76.7237
76.4167
76.0185
75.5217
74.9246
74.2303
73.443
72.5663
71.6037
70.5585
69.4342
68.2346
66.9636
65.6252
64.224
62.7645
61.2517
59.6906
58.0867
56.4455
54.7727
53.074
51.3554
49.6225
47.8813
46.1373
44.396
42.6628
40.9427
-83.2107
-63.8876
-44.0739
5.14058
0.369256
-7.09319
20.1219
10.1208
1.16132
18.8398
9.31599
2.01711
20.8809
12.9597
6.42607
23.5803
16.7351
10.7775
25.4627
19.4226
14.1176
26.9228
21.6014
16.9352
28.2307
23.5289
19.4201
29.4181
25.2383
21.6029
30.4939
26.7586
23.5258
31.4765
28.1235
25.2343
32.3798
29.3577
26.7632
33.2126
30.4786
28.1382
33.9811
31.4989
29.3789
34.6897
32.4285
30.5002
35.3414
33.2744
31.5132
35.9386
34.0423
32.427
36.483
34.7367
33.2486
36.9763
35.3615
33.9841
37.42
35.92
34.6388
37.8161
36.4158
35.2177
38.1655
36.8513
35.7246
38.4715
37.2307
36.1646
38.7326
37.5536
36.5386
38.9566
37.8286
36.8551
39.1331
38.0458
37.1059
39.2847
38.2282
37.3125
39.3758
38.3409
37.4433
39.4661
38.4482
37.5596
-29.7836
-32.2306
-34.6241
-39.0392
-44.5785
-50.7729
-57.511
-64.7365
-72.3759
-80.3416
-88.5194
-96.7671
-104.905
-112.708
-119.901
-126.15
-131.063
-134.183
-135.059
-133.56
-129.694
-123.741
-115.969
-106.458
-95.108
-81.7594
-66.346
-49.0338
-30.0728
-10.495
-17.1486
-25.3899
-31.0139
-36.8502
-42.9852
-49.4287
-56.2677
-63.51
-71.1041
-78.9727
-87.0114
-95.0858
-103.023
-110.608
-117.572
-123.598
-128.31
-131.294
-132.156
-130.791
-127.219
-121.634
-114.218
-104.999
-93.8656
-80.6804
-65.4186
-48.2859
-29.5803
-10.4029
-11.4482
-22.0434
-28.6592
-34.9513
-41.4983
-48.1918
-55.0814
-62.2455
-69.6912
-77.3664
-85.1783
-92.9983
-100.66
-107.954
-114.626
-120.373
-124.849
-127.687
-128.554
-127.357
-124.103
-118.901
-111.844
-102.913
-91.9968
-78.9979
-63.9508
-47.1115
-28.8231
-10.2462
-8.18995
-18.9718
-26.723
-33.5636
-40.2841
-47.0278
-53.8956
-60.9543
-68.2115
-75.6321
-83.1435
-90.6328
-97.9452
-104.883
-111.206
-116.631
-120.848
-123.537
-124.428
-123.421
-120.472
-115.614
-108.869
-100.185
-89.4688
-76.6823
-61.9281
-45.5126
-27.8141
-10.0358
-2.95408
-13.688
-22.7673
-30.8185
-38.2655
-45.3633
-52.3423
-59.3603
-66.4741
-73.6691
-80.8866
-88.0303
-94.9641
-101.51
-107.451
-112.53
-116.474
-119.012
-119.931
-119.1
-116.39
-111.78
-105.253
-96.7521
-86.2242
-73.6974
-59.3404
-43.4988
-26.571
-9.7809
2.39324
-7.69988
-17.4042
-26.398
-34.6561
-42.3624
-49.7316
-56.9301
-64.0529
-71.1295
-78.1341
-84.9942
-91.5943
-97.7789
-103.356
-108.103
-111.78
-114.162
-115.076
-114.339
-111.744
-107.257
-100.854
-92.4985
-82.1881
-70.0137
-56.1941
-41.0956
-25.1196
-9.48656
6.91226
-2.13669
-11.714
-21.0186
-29.708
-37.8661
-45.6402
-53.1348
-60.4165
-67.5182
-74.434
-81.1155
-87.4714
-93.371
-98.6484
-103.11
-106.55
-108.766
-109.588
-108.804
-106.204
-101.764
-95.4665
-87.3008
-77.3135
-65.6413
-52.5321
-38.3533
-23.4957
-9.15097
10.7657
2.8055
-6.19377
-15.2904
-23.9775
-32.258
-40.2192
-47.9027
-55.3253
-62.4923
-69.3895
-75.9733
-82.166
-87.8556
-92.8984
-97.1252
-100.351
-102.389
-103.021
-102.078
-99.4485
-95.0936
-88.9893
-81.1498
-71.6555
-60.6706
-48.4517
-35.3527
-21.7451
-8.76583
14.0883
7.11583
-1.09881
-9.65537
-17.9984
-26.0801
-33.9461
-41.5944
-48.9998
-56.1359
-62.9683
-69.4446
-75.4875
-80.993
-85.8308
-89.8469
-92.8682
-94.7065
-95.141
-94.0784
-91.4916
-87.3323
-81.5682
-74.2267
-65.4069
-55.2823
-44.1037
-32.2009
-19.9211
-8.32083
16.9465
10.8284
3.4475
-4.40304
-12.1854
-19.828
-27.3538
-34.7369
-41.9263
-48.8705
-55.5168
-61.8004
-67.6392
-72.9307
-77.5512
-81.3568
-84.1842
-85.8492
-86.1653
-85.1011
-82.6738
-78.8363
-73.5533
-66.858
-58.8545
-49.7121
-39.6653
-29.0142
-18.0778
-7.81052
19.4218
14.0285
7.44014
0.337665
-6.78603
-13.8533
-20.877
-27.8229
-34.6281
-41.2278
-47.5568
-53.5418
-59.0966
-64.1191
-68.4914
-72.0793
-74.7334
-76.2883
-76.5951
-75.652
-73.4903
-70.072
-65.3672
-59.41
-52.3
-44.1939
-35.3041
-25.8981
-16.2641
-7.23972
21.5895
16.8082
10.9327
4.54705
-1.90608
-8.35127
-14.7979
-21.212
-27.529
-33.6798
-39.5945
-45.197
-50.4007
-55.1069
-59.2051
-62.5733
-65.0801
-66.5869
-66.9738
-66.2396
-64.4129
-61.4679
-57.3846
-52.1964
-45.9932
-38.9152
-31.1501
-22.9328
-14.519
-6.62415
23.5055
19.2425
13.9919
8.25896
2.43934
-3.3965
-9.2573
-15.1127
-20.9017
-26.557
-32.0101
-37.1867
-42.0041
-46.3704
-50.1848
-53.3396
-55.7224
-57.2213
-57.7384
-57.2567
-55.7936
-53.3343
-49.8702
-45.433
-40.1015
-33.998
-27.2861
-20.1689
-12.8699
-5.98655
25.2101
21.3883
16.6802
11.5266
6.28191
1.01104
-4.29482
-9.60978
-14.8787
-20.0392
-25.027
-29.7733
-34.202
-38.23
-41.768
-44.7222
-46.9979
-48.5042
-49.1616
-48.9442
-47.8411
-45.8494
-42.9709
-39.2354
-34.7109
-29.5025
-23.7509
-17.6302
-11.3333
-5.35087
26.7333
23.2888
19.0502
14.4048
9.67085
4.90814
0.107626
-4.70919
-9.49345
-14.1887
-18.7367
-23.0752
-27.1362
-30.8459
-34.1265
-36.8973
-39.0787
-40.596
-41.3861
-41.4096
-40.6418
-39.0822
-36.7393
-33.6411
-29.8456
-25.4424
-20.5516
-15.3215
-9.9172
-4.73743
28.0977
24.9766
21.1442
16.9422
12.6572
8.34405
3.99374
-0.376238
-4.72305
-8.99643
-13.1444
-17.1115
-20.8379
-24.259
-27.3071
-29.9134
-32.0104
-33.5355
-34.4369
-34.6706
-34.2032
-33.0322
-31.1686
-28.6387
-25.4917
-21.8036
-17.6765
-13.2361
-8.6232
-4.1605
29.3205
26.4774
22.9964
19.1801
15.2872
11.3683
7.41418
3.43896
-0.520118
-4.41863
-8.21057
-11.8472
-15.276
-18.4407
-21.2828
-23.7432
-25.7641
-27.2925
-28.2837
-28.6947
-28.4894
-27.6613
-26.221
-24.1921
-21.6166
-18.5588
-15.105
-11.3618
-7.44909
-3.62821
30.4154
27.8113
24.6341
21.1529
17.6013
14.026
10.4181
6.78843
3.16945
-0.399839
-3.87894
-7.22514
-10.3925
-13.3321
-15.9933
-18.3249
-20.2772
-21.8044
-22.8674
-23.4263
-23.4463
-22.9171
-21.847
-20.2566
-18.1817
-15.6764
-12.8139
-9.68434
-6.39034
-3.14391
31.3935
28.9948
26.0801
22.8892
19.6338
16.357
13.0498
9.72086
6.39814
3.11587
-0.090412
-3.18331
-6.12271
-8.86599
-11.369
-13.5875
-15.4781
-17.0009
-18.1211
-18.8031
-19.0152
-18.7443
-17.9958
-16.787
-15.1484
-13.1256
-10.7804
-8.18964
-5.44118
-2.70778
32.2641
30.0418
27.3535
24.4136
21.4144
18.3956
15.3486
12.28
9.21396
6.18046
3.21073
0.337514
-2.40411
-4.97691
-7.34236
-9.46168
-11.2971
-12.8134
-13.9794
-14.7641
-15.1392
-15.09
-14.6189
-13.7406
-12.4805
-10.8772
-8.98327
-6.86404
-4.5952
-2.31825
33.035
30.964
28.4704
25.7468
22.9682
20.1716
17.3487
14.5044
11.6595
8.84043
6.07468
3.39097
0.820047
-1.60543
-3.85166
-5.88458
-7.67095
-9.17951
-10.3824
-11.2527
-11.7656
-11.9054
-11.6725
-11.0788
-10.1455
-8.9055
-7.40331
-5.69501
-3.84608
-1.97303
33.7137
31.7718
29.4449
26.9067
24.3174
21.7112
19.0801
16.4278
13.7723
11.1371
8.54615
6.02494
3.60051
1.30163
-0.841882
-2.79993
-4.54304
-6.04338
-7.27587
-8.21759
-8.84662
-9.14655
-9.11673
-8.76651
-8.1139
-7.18659
-6.02276
-4.67069
-3.18736
-1.66938
34.3056
32.4735
30.2885
27.9084
25.4802
23.0359
20.568
18.0789
15.5845
13.1055
10.6633
8.28041
5.98073
3.78981
1.73412
-0.159597
-1.86505
-3.35731
-4.61372
-5.61483
-6.34054
-6.7753
-6.91733
-6.77405
-6.36057
-5.70053
-4.82677
-3.7812
-2.61372
-1.40505
34.8174
33.0776
31.0124
28.7657
26.4735
24.1657
21.8352
19.4837
17.1249
14.7775
12.4606
10.1942
7.99969
5.89994
3.91856
2.07955
0.406493
-1.07813
-2.35382
-3.40297
-4.20865
-4.75604
-5.04232
-5.0733
-4.86174
-4.428
-3.80064
-3.0163
-2.11904
-1.17703
35.2517
33.5887
31.6232
29.4876
27.3085
25.1142
22.8979
20.6604
18.4143
16.1761
13.9632
11.7936
9.68662
7.66271
5.7433
3.95004
2.30433
0.826575
-0.464557
-1.553
-2.42324
-3.0632
-3.46895
-3.64463
-3.60116
-3.35631
-2.93517
-2.37018
-1.70056
-0.984435
35.6166
34.0161
32.132
30.0872
28.0004
25.8985
23.7751
21.6305
19.476
17.3267
15.1984
13.1076
11.0717
9.10962
7.24078
5.48502
3.86191
2.3902
1.08712
-0.0324316
-0.95504
-1.66972
-2.17224
-2.4657
-2.55955
-2.46948
-2.21786
-1.83371
-1.35237
-0.824101
35.9073
34.3561
32.5362
30.5629
28.5488
26.5198
24.4696
22.3982
20.3158
18.2365
16.1748
14.1459
12.1662
10.2529
8.42398
6.69794
5.09291
3.62632
2.31422
1.17055
0.20747
-0.565193
-1.14324
-1.52909
-1.73103
-1.76323
-1.64598
-1.40571
-1.07464
-0.696657
36.141
34.6262
32.8544
30.9347
28.9749
27.0001
25.0043
22.9873
20.9585
18.931
16.9187
14.9358
12.9976
11.1203
9.32093
7.61682
6.02509
4.56221
3.24338
2.08183
1.08851
0.27223
-0.362927
-0.818762
-1.10268
-1.2277
-1.21267
-1.08224
-0.866352
-0.603635
36.2933
34.8018
33.0618
31.1784
29.2552
27.3168
25.3575
23.3769
21.384
19.3914
17.4123
15.4603
13.5501
11.6973
9.9181
8.22911
6.6468
5.18703
3.86462
2.69286
1.68207
0.839199
0.167902
-0.333277
-0.67117
-0.858091
-0.912047
-0.856797
-0.721655
-0.543888
36.4114
34.9232
33.1989
31.3351
29.4307
27.5102
25.5686
23.6057
21.6299
19.6537
17.6901
15.7524
13.855
12.0131
10.2427
8.56011
6.98129
5.52163
4.19512
3.01373
1.98849
1.12798
0.435319
-0.0913647
-0.458816
-0.679062
-0.769758
-0.754397
-0.662518
-0.531406
)
;

boundaryField
{
    inlet
    {
        type            zeroGradient;
    }
    outlet
    {
        type            fixedValue;
        value           uniform 0;
    }
    flap
    {
        type            zeroGradient;
    }
    upperWall
    {
        type            zeroGradient;
    }
    lowerWall
    {
        type            zeroGradient;
    }
    frontAndBack
    {
        type            empty;
    }
}


// ************************************************************************* //
