/*--------------------------------*- C++ -*----------------------------------*\
  =========                 |
  \\      /  F ield         | OpenFOAM: The Open Source CFD Toolbox
   \\    /   O peration     | Website:  https://openfoam.org
    \\  /    A nd           | Version:  dev
     \\/     M anipulation  |
\*---------------------------------------------------------------------------*/
FoamFile
{
    version     2.0;
    format      ascii;
    class       surfaceScalarField;
    location    "0.6";
    object      phi;
}
// * * * * * * * * * * * * * * * * * * * * * * * * * * * * * * * * * * * * * //

dimensions      [0 3 -1 0 0 0 0];

internalField   nonuniform List<scalar> 
5457
(
0.198409
0.00159102
0.196456
0.001953
0.194147
0.00230944
0.191437
0.00270942
0.188327
0.00311046
0.184818
0.00350842
0.180907
0.00391165
0.176579
0.00432757
0.171818
0.00476127
0.166601
0.00521672
0.160904
0.0056973
0.154698
0.00620582
0.147954
0.00674428
0.14064
0.00731346
0.132728
0.00791247
0.12419
0.00853802
0.115006
0.00918352
0.105168
0.00983801
0.0946833
0.0104849
0.0835828
0.0111005
0.0719299
0.0116529
0.0598293
0.0121007
0.0474381
0.0123912
0.0349797
0.0124584
0.0227652
0.0122145
0.0112416
0.0115236
0.00112828
0.0101133
-0.00507974
0.00620802
-0.0055868
0.000507056
-0.0055868
0.19992
0.00167151
0.199151
0.00272118
0.197919
0.00354181
0.19626
0.00436854
0.19417
0.00519986
0.191649
0.00603022
0.188688
0.00687178
0.185278
0.00773804
0.1814
0.00863927
0.177033
0.00958364
0.172152
0.0105782
0.166729
0.0116289
0.160733
0.0127402
0.154132
0.0139143
0.146895
0.0151501
0.138991
0.0164419
0.130397
0.0177778
0.121098
0.0191368
0.111096
0.020487
0.100414
0.0217819
0.0891094
0.0229577
0.0772804
0.0239296
0.0650837
0.0245879
0.0527522
0.02479
0.0406244
0.0243423
0.0291971
0.0229509
0.0191993
0.020111
0.0104519
0.0149555
0.0032889
0.00767004
-0.0022979
0.199772
0.00189947
0.199063
0.00343055
0.197901
0.00470385
0.196338
0.00593069
0.194383
0.0071549
0.192033
0.00838058
0.189283
0.00962203
0.186124
0.010897
0.182543
0.0122204
0.178522
0.0136046
0.17404
0.0150602
0.169072
0.0165966
0.163592
0.0182208
0.157569
0.0199373
0.150973
0.0217461
0.143773
0.0236413
0.135943
0.0256082
0.12746
0.0276201
0.118312
0.0296344
0.108506
0.0315879
0.0980721
0.0333916
0.0870766
0.0349251
0.0756343
0.0360302
0.0639222
0.0365021
0.0521897
0.0360748
0.0407429
0.0343977
0.0298341
0.0310198
0.0193665
0.0254231
0.00946902
0.0175675
0.00717113
0.199695
0.0022049
0.198984
0.00414131
0.197842
0.00584543
0.196306
0.00746706
0.194389
0.00907187
0.192092
0.0106779
0.189411
0.0123026
0.186341
0.0139666
0.182873
0.0156885
0.178994
0.017484
0.174688
0.0193665
0.169936
0.0213478
0.16472
0.0234374
0.159016
0.0256415
0.1528
0.0279615
0.146049
0.0303922
0.138739
0.0329184
0.130848
0.0355112
0.122359
0.0381232
0.113265
0.0406822
0.103572
0.0430847
0.0933084
0.0451886
0.0825327
0.0468059
0.0713387
0.0476961
0.059853
0.0475606
0.0482078
0.0460428
0.0364802
0.0427474
0.0246049
0.0372984
0.0124633
0.0297092
0.0196344
0.199659
0.00254595
0.19894
0.00485997
0.197818
0.00696772
0.196311
0.00897415
0.194433
0.0109495
0.192187
0.0129239
0.18957
0.0149195
0.186578
0.0169593
0.183202
0.0190646
0.179432
0.0212536
0.175256
0.0235421
0.17066
0.0259437
0.165629
0.0284692
0.160144
0.0311261
0.154189
0.0339168
0.147744
0.0368366
0.140792
0.0398711
0.133311
0.0429914
0.125285
0.0461493
0.116697
0.0492709
0.107533
0.0522484
0.097789
0.0549325
0.0874703
0.0571246
0.0765951
0.0585713
0.0651905
0.0589652
0.0532791
0.0579542
0.0408535
0.0551729
0.0278481
0.0503038
0.0141866
0.0433706
0.033821
0.199644
0.00290157
0.198925
0.00557934
0.197826
0.00806656
0.196357
0.0104437
0.194528
0.0127783
0.192343
0.0151089
0.1898
0.0174625
0.186894
0.0198647
0.18362
0.022339
0.179968
0.0249059
0.175927
0.0275831
0.171485
0.0303855
0.166629
0.0333254
0.161344
0.0364109
0.155615
0.0396454
0.149427
0.0430252
0.142761
0.0465368
0.135599
0.0501533
0.12792
0.0538289
0.119698
0.0574929
0.110904
0.0610417
0.101507
0.0643301
0.0914678
0.0671636
0.0807469
0.0692922
0.0693006
0.0704115
0.0570814
0.0701734
0.0440365
0.0682179
0.0301174
0.0642229
0.0153328
0.0581552
0.0491538
0.199642
0.00325987
0.198931
0.00629052
0.19786
0.00913695
0.196435
0.0118686
0.194664
0.0145494
0.192551
0.0172225
0.190093
0.0199197
0.187289
0.0226694
0.184131
0.025497
0.180611
0.0284251
0.176721
0.0314732
0.172449
0.0346578
0.167782
0.0379922
0.162707
0.0414859
0.157209
0.0451434
0.151272
0.0489625
0.144877
0.0529319
0.138002
0.057028
0.130621
0.0612103
0.122698
0.0654153
0.11419
0.0695496
0.105039
0.0734809
0.0951742
0.0770287
0.084509
0.0799575
0.0729477
0.0819727
0.060394
0.0827271
0.0467676
0.0818443
0.0320415
0.078949
0.016301
0.0738957
0.0654549
0.199646
0.00361349
0.198951
0.0069857
0.197915
0.0101733
0.196541
0.0132425
0.194836
0.0162541
0.192804
0.0192546
0.190444
0.0222796
0.187754
0.0253601
0.184727
0.0285236
0.181357
0.0317947
0.177636
0.0351947
0.173552
0.0387415
0.169095
0.04245
0.164249
0.0463314
0.159001
0.050392
0.153331
0.0546321
0.147219
0.0590441
0.140637
0.0636095
0.133552
0.0682955
0.125917
0.0730497
0.117674
0.0777935
0.108741
0.0824139
0.0990163
0.086753
0.0883762
0.0905976
0.0766791
0.0936698
0.063784
0.0956222
0.0495815
0.0960469
0.0340511
0.0944794
0.0173348
0.0906119
0.0827897
0.199656
0.00395749
0.198983
0.00765839
0.197987
0.0111699
0.19667
0.0145588
0.19504
0.0178847
0.193098
0.0211959
0.190847
0.0245314
0.188282
0.0279245
0.185401
0.031405
0.182197
0.0349991
0.178661
0.0387298
0.174786
0.0426171
0.170558
0.0466774
0.165965
0.0509242
0.160991
0.0553665
0.155615
0.060008
0.149813
0.0648463
0.143552
0.06987
0.136792
0.0750564
0.129474
0.0803676
0.121523
0.0857443
0.112838
0.0910987
0.103288
0.096303
0.0927094
0.101176
0.0809126
0.105467
0.0677016
0.108833
0.0529148
0.110834
0.0365031
0.110891
0.0186354
0.10848
0.101425
0.199669
0.00428832
0.199024
0.00830331
0.198073
0.0121214
0.19682
0.0158117
0.195271
0.0194339
0.193429
0.0230379
0.191295
0.0266651
0.188868
0.0303513
0.186145
0.0341282
0.18312
0.0380236
0.179788
0.0420624
0.176139
0.0462662
0.172162
0.0506538
0.167846
0.055241
0.163172
0.0600401
0.15812
0.0650597
0.152663
0.0703032
0.146765
0.0757683
0.140377
0.0814449
0.133432
0.0873122
0.125842
0.0933347
0.117485
0.0994555
0.108202
0.105586
0.0977889
0.111589
0.0859976
0.117258
0.0725525
0.122278
0.0571947
0.126191
0.0397798
0.128306
0.0204407
0.127819
0.121866
0.199685
0.00460331
0.199072
0.00891611
0.198171
0.0130228
0.196987
0.0169956
0.195526
0.0208953
0.193791
0.0247728
0.191784
0.0286719
0.189505
0.0326304
0.186951
0.0366816
0.18412
0.040855
0.181005
0.0451772
0.1776
0.0496717
0.173894
0.0543594
0.169876
0.0592588
0.16553
0.0643861
0.160835
0.0697548
0.155763
0.0753756
0.150275
0.0812562
0.144319
0.0874006
0.137824
0.0938075
0.13069
0.100469
0.122782
0.107364
0.113915
0.114453
0.103844
0.12166
0.0922518
0.12885
0.078752
0.135778
0.0629189
0.142025
0.044391
0.146834
0.0231128
0.149097
0.144979
0.199703
0.00490036
0.199126
0.00949323
0.198279
0.0138698
0.197169
0.0181057
0.195801
0.022263
0.19418
0.0263939
0.192308
0.0305439
0.190186
0.0347526
0.187812
0.0390549
0.185186
0.0434817
0.182302
0.048061
0.179156
0.0528181
0.175739
0.0577761
0.172042
0.0629562
0.168049
0.0683785
0.163742
0.0740615
0.159095
0.0800235
0.154068
0.0862824
0.148612
0.0928568
0.142654
0.0997659
0.136092
0.107031
0.128785
0.114671
0.120533
0.122705
0.111058
0.131135
0.0999737
0.139934
0.0867581
0.148994
0.0707337
0.158049
0.0511204
0.166447
0.0273102
0.172907
0.172289
0.199723
0.00517783
0.199184
0.0100318
0.198395
0.0146587
0.197363
0.0191376
0.196094
0.0235319
0.194593
0.0278952
0.192862
0.0322744
0.190905
0.0367103
0.18872
0.0412393
0.186309
0.0458934
0.183668
0.050702
0.180794
0.0556919
0.177682
0.060888
0.174324
0.0663142
0.170709
0.0719937
0.16682
0.0779502
0.162635
0.0842087
0.15812
0.0907966
0.153231
0.0977462
0.147901
0.105096
0.142036
0.112896
0.135502
0.121205
0.128103
0.130103
0.119553
0.139685
0.109424
0.150063
0.0970685
0.161349
0.081505
0.173612
0.0612676
0.186685
0.0344056
0.199769
0.206694
0.199743
0.00543443
0.199246
0.0105293
0.198518
0.0153865
0.197568
0.0200877
0.196402
0.024698
0.195025
0.029272
0.193442
0.0338577
0.191655
0.0384971
0.189667
0.0432275
0.187478
0.0480819
0.18509
0.0530908
0.182499
0.0582819
0.179706
0.0636819
0.176703
0.0693164
0.173485
0.0752117
0.17004
0.0813953
0.166351
0.0878975
0.162394
0.0947538
0.158133
0.102007
0.153516
0.109713
0.148469
0.117943
0.142883
0.126792
0.136593
0.136393
0.12935
0.146928
0.120755
0.158658
0.11014
0.171965
0.0963199
0.187432
0.0770346
0.20597
0.0476642
0.22914
0.254359
0.199765
0.00566918
0.19931
0.0109841
0.198646
0.0160506
0.197781
0.0209531
0.196721
0.0257578
0.195473
0.0305203
0.194041
0.0352893
0.19243
0.0401079
0.190644
0.0450138
0.188685
0.0500408
0.186556
0.0552199
0.184259
0.0605796
0.181793
0.0661475
0.179159
0.0719506
0.176354
0.0780169
0.173373
0.0843764
0.170207
0.0910633
0.166843
0.098118
0.163259
0.105591
0.159427
0.113546
0.155299
0.12207
0.150811
0.13128
0.145864
0.14134
0.140304
0.152488
0.133879
0.165084
0.126139
0.179704
0.116188
0.197383
0.101865
0.220293
0.0760833
0.254921
0.330442
-0.0162463
0.0162463
-0.0358806
0.0196342
-0.0565802
0.0206996
-0.0777325
0.0211523
-0.0989544
0.0212219
-0.119978
0.0210232
-0.140592
0.020614
-0.16062
0.0200281
-0.179905
0.019285
-0.198298
0.0183934
-0.215652
0.0173538
-0.231811
0.0161591
-0.246608
0.014797
-0.259859
0.0132513
-0.271363
0.0115035
-0.280899
0.00953648
-0.288235
0.00733568
-0.293127
0.00489225
-0.295324
0.0021966
-0.294522
-0.000801677
-0.290469
-0.00405304
-0.282828
-0.00764132
-0.271248
-0.01158
-0.255231
-0.0160169
-0.234033
-0.0211981
-0.206573
-0.0274596
-0.171115
-0.0354579
-0.123667
-0.0474478
-0.0549495
-0.0687179
-0.093949
-0.0199941
0.0362404
-0.0403096
0.0399497
-0.061001
0.041391
-0.081883
0.0420343
-0.102705
0.0420441
-0.123248
0.041566
-0.143325
0.0406909
-0.162775
0.039478
-0.181452
0.0379623
-0.199218
0.0361592
-0.215931
0.0340671
-0.231443
0.0316705
-0.245588
0.0289429
-0.258188
0.0258506
-0.269041
0.0223565
-0.27793
0.0184261
-0.284627
0.0140321
-0.288892
0.0091576
-0.290485
0.00378967
-0.289211
-0.00207567
-0.284838
-0.00842616
-0.277181
-0.0152989
-0.265962
-0.0227984
-0.250803
-0.0311756
-0.231153
-0.0408481
-0.206184
-0.0524292
-0.174602
-0.0670394
-0.134916
-0.087134
-0.0878941
-0.11574
-0.15019
-0.0201449
0.0563853
-0.0401426
0.0599474
-0.0600636
0.061312
-0.0798913
0.061862
-0.0994977
0.0616505
-0.118745
0.0608128
-0.137501
0.0594469
-0.155645
0.0576222
-0.173062
0.0553799
-0.189638
0.0527353
-0.205251
0.0496798
-0.219766
0.0461848
-0.233028
0.0422058
-0.244866
0.0376882
-0.255084
0.032574
-0.263466
0.026809
-0.269786
0.0203518
-0.273809
0.0131806
-0.275309
0.0052897
-0.274093
-0.00329177
-0.269989
-0.0125301
-0.262839
-0.022449
-0.252466
-0.0331713
-0.238623
-0.0450191
-0.220944
-0.0585272
-0.198888
-0.0744845
-0.171806
-0.0941213
-0.139629
-0.119311
-0.103517
-0.151852
-0.190246
-0.0189267
0.075312
-0.0377207
0.0787414
-0.0562849
0.0798762
-0.074614
0.0801911
-0.0926465
0.079683
-0.110312
0.0784788
-0.127535
0.0766695
-0.144234
0.074321
-0.160323
0.071469
-0.175706
0.0681181
-0.19027
0.0642439
-0.203882
0.0597969
-0.216384
0.0547084
-0.227594
0.0488983
-0.237304
0.0422838
-0.245286
0.0347903
-0.251297
0.0263631
-0.255097
0.0169811
-0.256472
0.006664
-0.255247
-0.00451596
-0.2513
-0.0164771
-0.244562
-0.0291875
-0.234949
-0.0427844
-0.222331
-0.0576368
-0.206501
-0.0743569
-0.187178
-0.0938075
-0.164187
-0.117113
-0.137987
-0.145511
-0.109885
-0.179954
-0.218164
-0.0170582
0.0923702
-0.0340369
0.09572
-0.050791
0.0966303
-0.0673049
0.096705
-0.0835478
0.0959259
-0.0994908
0.0944218
-0.115093
0.0922714
-0.1303
0.0895285
-0.145044
0.0862123
-0.159233
0.0823074
-0.172754
0.0777652
-0.185467
0.0725094
-0.197201
0.0664427
-0.20776
0.059457
-0.21692
0.0514447
-0.224442
0.0423118
-0.230073
0.0319939
-0.233571
0.020479
-0.234732
0.00782508
-0.233416
-0.00583166
-0.229557
-0.0203363
-0.223159
-0.0355854
-0.214234
-0.0517094
-0.202755
-0.0691157
-0.188645
-0.0884671
-0.17183
-0.110622
-0.15244
-0.136503
-0.131151
-0.1668
-0.109409
-0.201697
-0.237836
-0.0147721
0.107142
-0.0295549
0.110503
-0.0441843
0.11126
-0.0586464
0.111167
-0.0729294
0.110209
-0.0870268
0.108519
-0.100917
0.106161
-0.114559
0.103171
-0.12789
0.0995434
-0.140821
0.0952382
-0.153233
0.0901777
-0.164979
0.0842552
-0.17588
0.0773434
-0.185728
0.069305
-0.19429
0.0600069
-0.201313
0.0493352
-0.206535
0.0372153
-0.209703
0.0236475
-0.210621
0.00874236
-0.209176
-0.00727589
-0.205365
-0.0241477
-0.199276
-0.0416742
-0.191011
-0.0599745
-0.180626
-0.0795011
-0.168135
-0.100958
-0.153604
-0.125153
-0.137341
-0.152766
-0.120132
-0.184009
-0.103438
-0.218391
-0.251812
-0.0121979
0.11934
-0.0245322
0.122837
-0.0368144
0.123542
-0.0490397
0.123393
-0.0612126
0.122382
-0.0733404
0.120647
-0.0854107
0.118231
-0.0973885
0.115148
-0.109212
0.111367
-0.12079
0.106816
-0.132002
0.101389
-0.142694
0.0949474
-0.152683
0.0873322
-0.161754
0.0783758
-0.169664
0.0679176
-0.176151
0.0558218
-0.180937
0.0420011
-0.183758
0.0264685
-0.184414
0.0093985
-0.18283
-0.00885923
-0.179059
-0.0279193
-0.173279
-0.0474536
-0.165681
-0.0675724
-0.156384
-0.0887986
-0.145451
-0.111891
-0.133018
-0.137586
-0.119478
-0.166305
-0.105672
-0.197816
-0.0929804
-0.231082
-0.261665
-0.00942506
0.128765
-0.0191308
0.132543
-0.0288971
0.133308
-0.0387346
0.13323
-0.0486626
0.13231
-0.0586994
0.130684
-0.0688365
0.128369
-0.0790404
0.125352
-0.0892476
0.121574
-0.099365
0.116934
-0.10927
0.111295
-0.11881
0.104488
-0.127801
0.0963229
-0.136027
0.0866012
-0.14324
0.0751311
-0.149169
0.0617504
-0.153521
0.0463537
-0.15601
0.0289571
-0.156416
0.00980451
-0.154695
-0.0105804
-0.150961
-0.031653
-0.1455
-0.0529143
-0.13859
-0.0744832
-0.130389
-0.0969995
-0.120971
-0.121309
-0.11048
-0.148076
-0.09933
-0.177456
-0.0883669
-0.208779
-0.0788654
-0.240584
-0.268388
-0.00651298
0.135278
-0.0134581
0.139488
-0.0205761
0.140426
-0.0279008
0.140555
-0.0354665
0.139875
-0.0433016
0.138519
-0.0513986
0.136466
-0.0597218
0.133675
-0.0682043
0.130057
-0.0767501
0.12548
-0.0852397
0.119784
-0.093525
0.112773
-0.101428
0.104226
-0.10874
0.0939133
-0.115217
0.0816072
-0.120577
0.067111
-0.124514
0.0502907
-0.12671
0.0311525
-0.126883
0.00997775
-0.125045
-0.0124179
-0.121367
-0.0353316
-0.116253
-0.0580284
-0.110059
-0.0806768
-0.102965
-0.104093
-0.0950219
-0.129253
-0.0863389
-0.156759
-0.0773037
-0.186491
-0.0687247
-0.217358
-0.061786
-0.247523
-0.272638
-0.00350694
0.138785
-0.00759224
0.143573
-0.011957
0.144791
-0.0166673
0.145265
-0.0217747
0.144983
-0.0273174
0.144062
-0.0332855
0.142434
-0.0396373
0.140027
-0.0462991
0.136719
-0.0531681
0.132349
-0.0601322
0.126748
-0.067052
0.119693
-0.0737632
0.110937
-0.0800723
0.100222
-0.0857464
0.0872812
-0.0905064
0.0718711
-0.0940361
0.0538205
-0.0959921
0.0331085
-0.0959938
0.00997943
-0.0940987
-0.0143131
-0.0905392
-0.0388911
-0.0858449
-0.0627227
-0.0804217
-0.0861
-0.0744423
-0.110073
-0.0679192
-0.135776
-0.0609115
-0.163767
-0.0537584
-0.193644
-0.0471927
-0.223923
-0.0423284
-0.252387
-0.274894
-0.000487463
0.139273
-0.00159403
0.14468
-0.00313003
0.146327
-0.0051409
0.147276
-0.00772081
0.147563
-0.0109086
0.147249
-0.014689
0.146214
-0.0190083
0.144347
-0.0237803
0.141491
-0.0288809
0.137449
-0.0342155
0.132083
-0.0396514
0.125129
-0.0450403
0.116326
-0.0502135
0.105396
-0.0549644
0.0920321
-0.059031
0.0759377
-0.062114
0.0569034
-0.0638816
0.0348762
-0.0638112
0.00990899
-0.0619524
-0.0161719
-0.0586726
-0.0421709
-0.0545637
-0.0668316
-0.0500143
-0.0906494
-0.045162
-0.114925
-0.0399851
-0.140953
-0.0345097
-0.169243
-0.0290235
-0.19913
-0.0241759
-0.228771
-0.0209925
-0.25557
-0.27555
0.00260574
0.136667
0.0044972
0.142788
0.00582525
0.144999
0.00654781
0.146553
0.0065239
0.147587
0.00571975
0.148054
0.0041634
0.14777
0.0019226
0.146587
-0.000924178
0.144337
-0.00420565
0.140731
-0.00783112
0.135708
-0.0116747
0.128972
-0.0156005
0.120252
-0.0194644
0.10926
-0.0231018
0.0956695
-0.0262892
0.0791251
-0.0287597
0.0593739
-0.0302336
0.0363501
-0.0302737
0.00994902
-0.0285868
-0.0178588
-0.0259038
-0.0448539
-0.0226625
-0.0700729
-0.019155
-0.0941569
-0.0154676
-0.118612
-0.0115515
-0.144869
-0.00741012
-0.173384
-0.00339438
-0.203146
-3.71228e-05
-0.232128
0.00179626
-0.257404
-0.275052
0.00577671
0.13089
0.0106986
0.137866
0.0149026
0.140795
0.0183453
0.143111
0.0208255
0.145107
0.0223333
0.146546
0.0229372
0.147166
0.0227434
0.146781
0.0218682
0.145213
0.0204146
0.142184
0.0185432
0.13758
0.0163734
0.131142
0.0140301
0.122595
0.0116428
0.111647
0.00934028
0.097972
0.00724974
0.0812156
0.00560542
0.0610182
0.00487238
0.0370831
0.00502712
0.00979428
0.00604871
-0.0188804
0.00762402
-0.0464292
0.00962699
-0.0720758
0.0118768
-0.0964067
0.0143408
-0.121076
0.0170563
-0.147584
0.0199533
-0.176281
0.0227576
-0.20595
0.0249125
-0.234283
0.0257142
-0.258205
-0.273822
0.0092486
0.121642
0.0170336
0.130082
0.0241419
0.133687
0.030274
0.136979
0.0351452
0.140235
0.0388293
0.142862
0.04147
0.144526
0.0432137
0.145037
0.0442005
0.144226
0.0445439
0.141841
0.0443976
0.137726
0.0438909
0.131649
0.0431461
0.12334
0.0422851
0.112508
0.0414287
0.0988285
0.0407034
0.0819409
0.0402872
0.0614345
0.0403055
0.0370648
0.0404224
0.00967736
0.0407743
-0.0192323
0.0412083
-0.0468631
0.0417943
-0.0726619
0.042659
-0.0972714
0.0438984
-0.122316
0.0455446
-0.149231
0.0474651
-0.178201
0.0493181
-0.207803
0.0505475
-0.235512
0.0505206
-0.258179
-0.272049
0.0134335
0.108208
0.0233505
0.120165
0.0336537
0.123383
0.0424164
0.128216
0.0494699
0.133182
0.0551171
0.137214
0.0596022
0.140041
0.0631163
0.141523
0.0658252
0.141517
0.0678558
0.13981
0.0693522
0.13623
0.0704437
0.130557
0.0712487
0.122535
0.0718803
0.111876
0.072446
0.0982628
0.07304
0.081347
0.0737056
0.0607688
0.0743126
0.0364578
0.0746318
0.00935818
0.0744015
-0.019002
0.0737977
-0.0462593
0.0731185
-0.0719827
0.0727415
-0.0968944
0.0729305
-0.122505
0.0737336
-0.150034
0.0749308
-0.179399
0.0760744
-0.208947
0.0765774
-0.236016
0.0758624
-0.257464
-0.269796
0.20744
0.00588895
0.207014
0.0114095
0.206394
0.0166708
0.205588
0.0217592
0.204604
0.0267424
0.203448
0.0316763
0.202126
0.0366105
0.200646
0.0415883
0.199012
0.0466479
0.197229
0.0518236
0.195303
0.0571462
0.193238
0.0626447
0.191038
0.0683469
0.188708
0.0742803
0.186252
0.0804735
0.183671
0.0869576
0.180966
0.0937677
0.178138
0.100946
0.175184
0.108545
0.172099
0.116631
0.168876
0.125292
0.165508
0.134648
0.161987
0.14486
0.158313
0.156162
0.154509
0.168888
0.150674
0.183539
0.147191
0.200867
0.145769
0.221714
0.157233
0.243457
0.255143
0.232532
0.212484
0.00608819
0.212098
0.0117947
0.211538
0.0172314
0.210811
0.0224862
0.209926
0.0276275
0.20889
0.0327116
0.207712
0.0377884
0.206399
0.0429014
0.204958
0.0480888
0.203397
0.0533846
0.201724
0.0588194
0.199947
0.0644218
0.198075
0.0702192
0.196116
0.0762386
0.194082
0.0825077
0.191983
0.0890568
0.189831
0.0959196
0.187641
0.103136
0.185431
0.110755
0.183225
0.118837
0.181058
0.127459
0.178986
0.13672
0.1771
0.146747
0.17556
0.157702
0.174674
0.169774
0.175076
0.183137
0.17815
0.197794
0.186442
0.213422
0.200858
0.229041
0.243677
0.212323
0.217651
0.00626469
0.21731
0.0121357
0.216815
0.0177266
0.216175
0.0231262
0.215399
0.0284036
0.214496
0.033615
0.213474
0.0388104
0.212342
0.0440329
0.211111
0.0493203
0.209789
0.0547059
0.208389
0.0602197
0.206922
0.0658891
0.205401
0.0717403
0.203841
0.0777986
0.202259
0.0840898
0.200674
0.0906412
0.199111
0.0974829
0.197598
0.104649
0.196174
0.11218
0.194888
0.120122
0.193814
0.128534
0.193054
0.13748
0.192766
0.147035
0.193196
0.157272
0.194728
0.168242
0.19793
0.179935
0.203503
0.192221
0.211982
0.204943
0.222865
0.218159
0.229438
0.237103
0.222945
0.00641638
0.222652
0.0124283
0.222229
0.0181503
0.221683
0.0236718
0.221025
0.0290616
0.220264
0.034376
0.21941
0.0396643
0.218474
0.0449691
0.217467
0.0503273
0.216402
0.0557711
0.215292
0.0613292
0.214154
0.0670273
0.213005
0.0728896
0.211865
0.0789387
0.210757
0.0851971
0.209711
0.0916878
0.208759
0.0984348
0.207944
0.105464
0.20732
0.112804
0.206957
0.120485
0.206951
0.12854
0.207431
0.137
0.208576
0.14589
0.210628
0.15522
0.213902
0.164967
0.218773
0.175063
0.225622
0.185373
0.23492
0.195645
0.247461
0.205617
0.213119
0.26378
0.228368
0.00654133
0.228128
0.0126689
0.227781
0.0184974
0.227336
0.024116
0.226805
0.0295933
0.226196
0.0349848
0.225521
0.0403391
0.224793
0.0456978
0.224023
0.0510965
0.223229
0.0565659
0.222425
0.0621328
0.221632
0.0678208
0.22087
0.0736511
0.220166
0.0796431
0.219548
0.0858149
0.219052
0.0921839
0.21872
0.0987668
0.218604
0.10558
0.218769
0.112639
0.219297
0.119956
0.220294
0.127543
0.221894
0.1354
0.224268
0.143516
0.227629
0.15186
0.23223
0.160366
0.238367
0.168926
0.246379
0.177361
0.256668
0.185356
0.26967
0.192615
0.198106
0.284684
0.233924
0.00663778
0.233739
0.0128541
0.233473
0.0187629
0.233137
0.0244526
0.232739
0.029991
0.232291
0.0354328
0.231805
0.0408252
0.231294
0.0462085
0.230774
0.0516167
0.230261
0.0570786
0.229775
0.0626187
0.229338
0.0682578
0.228975
0.074014
0.228716
0.0799026
0.228594
0.0859368
0.22865
0.0921278
0.228932
0.0984844
0.229499
0.105013
0.230421
0.111717
0.231784
0.118593
0.233694
0.125633
0.236278
0.132816
0.239689
0.140105
0.244107
0.147441
0.249737
0.154736
0.256804
0.161859
0.265533
0.168632
0.276091
0.174798
0.288573
0.180133
0.184163
0.302516
0.239615
0.00670415
0.239488
0.0129808
0.239309
0.0189425
0.239085
0.0246762
0.238828
0.0302485
0.238548
0.0357126
0.238258
0.0411146
0.237974
0.0464927
0.237712
0.0518792
0.23749
0.0573006
0.23733
0.0627788
0.237256
0.0683316
0.237296
0.0739734
0.237484
0.0797153
0.237856
0.0855652
0.238455
0.0915281
0.239334
0.0976053
0.240553
0.103794
0.242184
0.110086
0.244309
0.116468
0.247029
0.122913
0.250457
0.129388
0.254723
0.135839
0.259969
0.142195
0.266345
0.148359
0.273999
0.154206
0.283048
0.159583
0.293547
0.164299
0.305507
0.168173
0.170957
0.318713
0.245444
0.00673908
0.245378
0.0130465
0.245289
0.0190325
0.245183
0.024782
0.245071
0.0303602
0.244965
0.0358184
0.244879
0.041201
0.244827
0.0465442
0.244828
0.0518781
0.244902
0.0572266
0.245072
0.062609
0.245364
0.0680399
0.245807
0.0735298
0.246437
0.0790857
0.247292
0.0847104
0.248417
0.0904029
0.249864
0.096158
0.251693
0.101965
0.253973
0.107807
0.25678
0.113661
0.260202
0.119491
0.264335
0.125254
0.269283
0.130891
0.275152
0.136327
0.282042
0.141469
0.290039
0.146208
0.299203
0.150419
0.309542
0.15396
0.321024
0.156691
0.158483
0.333497
0.251415
0.00674147
0.251412
0.0130491
0.251415
0.0190299
0.25143
0.0247666
0.251468
0.0303221
0.251541
0.0357459
0.251662
0.0410801
0.251847
0.046359
0.252115
0.0516101
0.252487
0.0568548
0.252986
0.0621094
0.253641
0.0673854
0.254481
0.0726898
0.255541
0.0780252
0.256862
0.0833901
0.258486
0.0887784
0.260465
0.0941792
0.262854
0.0995758
0.265716
0.104945
0.269119
0.110258
0.273136
0.115474
0.277845
0.120546
0.283323
0.125413
0.289643
0.130006
0.29687
0.134243
0.305048
0.13803
0.314196
0.141271
0.324295
0.143861
0.335283
0.145703
0.146735
0.347032
0.25753
0.00671049
0.257592
0.0129869
0.257689
0.0189326
0.257829
0.0246272
0.258019
0.0301314
0.258273
0.0354923
0.258603
0.0407498
0.259026
0.0459357
0.259561
0.0510751
0.26023
0.0561868
0.261055
0.0612841
0.262065
0.0663756
0.26329
0.0714649
0.264764
0.076551
0.266525
0.0816285
0.268617
0.0866872
0.271084
0.091712
0.273978
0.096682
0.277352
0.101571
0.281265
0.106345
0.285776
0.110964
0.290942
0.11538
0.296818
0.119537
0.303453
0.123372
0.31088
0.126816
0.319116
0.129794
0.328153
0.132234
0.337952
0.134062
0.348442
0.135213
0.13566
0.359517
0.263792
0.00664557
0.26392
0.012859
0.264114
0.0187392
0.264378
0.0243626
0.264723
0.0297868
0.265159
0.0350569
0.265698
0.0402099
0.266359
0.0452754
0.267158
0.0502758
0.268117
0.0552275
0.26926
0.060141
0.270614
0.0650221
0.272207
0.0698715
0.274073
0.0746852
0.276247
0.0794547
0.278767
0.0841668
0.281676
0.0888035
0.285016
0.0933417
0.288834
0.0977531
0.293174
0.102004
0.298083
0.106055
0.303602
0.109861
0.309766
0.113373
0.316602
0.116536
0.324122
0.119295
0.332324
0.121593
0.341182
0.123375
0.35065
0.124594
0.360656
0.125207
0.125207
0.371108
0.270206
0.00654647
0.2704
0.0126648
0.27069
0.0184492
0.271081
0.0239722
0.271579
0.0292885
0.272195
0.0344403
0.272943
0.0394623
0.273837
0.0443815
0.274895
0.0492177
0.276137
0.053985
0.277587
0.0586915
0.279269
0.0633403
0.28121
0.0679299
0.283442
0.0724538
0.285995
0.0769015
0.288904
0.0812577
0.292204
0.085503
0.295933
0.0896135
0.300125
0.0935609
0.304816
0.0973128
0.310038
0.100833
0.315818
0.104081
0.322176
0.107015
0.329121
0.10959
0.336653
0.111764
0.344753
0.113493
0.353388
0.11474
0.362509
0.115473
0.372046
0.11567
0.115333
0.381919
0.276774
0.00641322
0.277034
0.0124047
0.27742
0.0180631
0.277936
0.023457
0.278586
0.0286379
0.279381
0.0336452
0.280333
0.038511
0.281454
0.0432597
0.282763
0.047909
0.284278
0.0524703
0.286019
0.0569499
0.288011
0.0613489
0.290277
0.0656635
0.292845
0.0698861
0.295742
0.0740043
0.298997
0.0780024
0.30264
0.0818603
0.306699
0.0855546
0.311202
0.0890585
0.316172
0.0923423
0.321631
0.0953735
0.327594
0.0981181
0.334068
0.100541
0.341051
0.102608
0.34853
0.104285
0.35648
0.105543
0.364863
0.106356
0.373629
0.106708
0.382714
0.106585
0.105999
0.392048
0.2835
0.00624613
0.283825
0.0120791
0.284306
0.017582
0.284945
0.0228188
0.285745
0.027838
0.286714
0.0326758
0.287863
0.0373618
0.289205
0.041918
0.290754
0.0463598
0.292528
0.0506968
0.294544
0.0549332
0.296825
0.0590686
0.29939
0.0630981
0.302264
0.0670127
0.305468
0.0707998
0.309027
0.0744432
0.312964
0.0779238
0.317299
0.0812195
0.322052
0.0843058
0.327238
0.0871563
0.332868
0.0897434
0.338947
0.0920389
0.345473
0.094015
0.352435
0.0956454
0.359814
0.0969062
0.367579
0.0977774
0.375691
0.098244
0.384102
0.0982972
0.392753
0.0979341
0.097169
0.401583
0.290387
0.00604579
0.290776
0.0116893
0.291351
0.0170077
0.292109
0.0220605
0.293054
0.0268926
0.294193
0.0315375
0.295532
0.036022
0.297085
0.0403658
0.298862
0.0445824
0.300879
0.0486796
0.303152
0.0526601
0.305699
0.0565224
0.308536
0.0602606
0.311683
0.0638654
0.315159
0.0673243
0.31898
0.0706219
0.323164
0.07374
0.327724
0.0766589
0.332673
0.0793568
0.338018
0.0818114
0.343762
0.0839996
0.349902
0.085899
0.356429
0.0874885
0.363325
0.0887487
0.370568
0.0896636
0.378124
0.090221
0.385955
0.0904132
0.394014
0.090238
0.40225
0.0896983
0.0888106
0.410608
0.297439
0.00581304
0.297891
0.011237
0.298556
0.016343
0.29943
0.0211859
0.300516
0.0258071
0.301816
0.0302371
0.303338
0.0345003
0.305089
0.0386142
0.307081
0.0425905
0.309325
0.0464354
0.311835
0.0501506
0.314624
0.0537336
0.317706
0.0571785
0.321095
0.0604759
0.324806
0.0636138
0.32885
0.066578
0.333238
0.0693522
0.337977
0.071919
0.343074
0.07426
0.348529
0.0763565
0.354339
0.0781903
0.360494
0.079744
0.36698
0.0810023
0.373776
0.081952
0.380857
0.0825831
0.388189
0.0828892
0.395734
0.0828683
0.403449
0.0825227
0.411288
0.081859
0.0808946
0.419204
0.304659
0.00554892
0.305172
0.0107243
0.305924
0.0155911
0.30691
0.0201995
0.30813
0.0245874
0.309585
0.0287824
0.311278
0.0328066
0.313217
0.0366753
0.315409
0.0403986
0.317863
0.0439816
0.320588
0.0474251
0.323596
0.0507263
0.326895
0.053879
0.330496
0.0568746
0.334408
0.059702
0.338638
0.0623484
0.34319
0.0647997
0.348068
0.067041
0.353271
0.0690571
0.358794
0.0708332
0.36463
0.0723552
0.370763
0.0736105
0.377177
0.0745883
0.383849
0.0752805
0.39075
0.0756819
0.397848
0.0757906
0.405108
0.0756084
0.41249
0.0751407
0.419953
0.0743964
0.0733929
0.427454
0.312053
0.00525465
0.312623
0.0101536
0.313459
0.0147557
0.314552
0.0191064
0.315899
0.0232402
0.3175
0.0271819
0.319355
0.0309513
0.321468
0.0345617
0.323845
0.038022
0.326491
0.041336
0.329411
0.0445043
0.332614
0.0475236
0.336105
0.0503884
0.339889
0.0530906
0.343971
0.0556203
0.348352
0.0579666
0.353035
0.0601174
0.358015
0.0620605
0.363288
0.0637838
0.368846
0.0652759
0.374675
0.0665264
0.380759
0.0675266
0.387077
0.0682698
0.393606
0.0687516
0.400317
0.0689706
0.40718
0.0689281
0.41416
0.0686284
0.421222
0.068079
0.428328
0.0672901
0.0662784
0.435442
0.319623
0.00493155
0.320249
0.00952752
0.321164
0.0138407
0.322358
0.0179121
0.323826
0.0217726
0.325563
0.0254446
0.327569
0.0289452
0.329844
0.0322865
0.33239
0.0354757
0.33521
0.0385162
0.338307
0.0414079
0.341682
0.0441479
0.34534
0.0467311
0.34928
0.0491502
0.353503
0.051397
0.358008
0.053462
0.36279
0.0553354
0.367843
0.0570076
0.373157
0.0584692
0.378721
0.0597118
0.38452
0.0607283
0.390533
0.061513
0.39674
0.0620626
0.403116
0.0623757
0.409634
0.0624533
0.416263
0.062299
0.422972
0.061919
0.429729
0.0613218
0.436501
0.0605179
0.0595235
0.443256
0.327374
0.00458102
0.328053
0.0088488
0.329043
0.0128503
0.330333
0.0166222
0.331913
0.0201921
0.333778
0.0235794
0.335924
0.0267994
0.338348
0.0298624
0.341049
0.0327747
0.344027
0.0355389
0.34728
0.0381548
0.350808
0.0406198
0.35461
0.0429293
0.358683
0.0450772
0.363023
0.0470566
0.367625
0.0488598
0.372482
0.050479
0.377582
0.0519068
0.382915
0.0531363
0.388465
0.0541617
0.394215
0.0549785
0.400145
0.0555836
0.406231
0.0559761
0.41245
0.0561567
0.418775
0.0561284
0.425178
0.0558963
0.43163
0.0554673
0.438101
0.0548505
0.444562
0.0540566
0.0531002
0.450985
0.33531
0.00420446
0.336039
0.00812021
0.337101
0.0117888
0.33848
0.0152426
0.340166
0.0185058
0.342151
0.0215954
0.344426
0.0245244
0.346986
0.0273018
0.349828
0.0299328
0.352947
0.0324197
0.35634
0.0347621
0.360002
0.0369577
0.363929
0.0390027
0.368114
0.040892
0.37255
0.0426201
0.377229
0.0441807
0.38214
0.0455682
0.38727
0.0467768
0.392605
0.047802
0.398126
0.0486399
0.403817
0.0492881
0.409655
0.0497456
0.415618
0.0500131
0.421681
0.0500931
0.42782
0.0499895
0.434008
0.0497082
0.440219
0.0492568
0.446425
0.0486442
0.452601
0.0478806
0.0469795
0.458722
0.343437
0.00380318
0.344213
0.00734433
0.345342
0.01066
0.346806
0.0137786
0.348591
0.0167208
0.350685
0.019501
0.353079
0.0221303
0.355765
0.0246162
0.358735
0.026963
0.361982
0.0291727
0.365499
0.0312449
0.369279
0.0331777
0.373314
0.0349678
0.377594
0.0366114
0.38211
0.038104