/*--------------------------------*- C++ -*----------------------------------*\
  =========                 |
  \\      /  F ield         | OpenFOAM: The Open Source CFD Toolbox
   \\    /   O peration     | Website:  https://openfoam.org
    \\  /    A nd           | Version:  dev
     \\/     M anipulation  |
\*---------------------------------------------------------------------------*/
FoamFile
{
    version     2.0;
    format      ascii;
    class       volVectorField;
    location    "0.6";
    object      U;
}
// * * * * * * * * * * * * * * * * * * * * * * * * * * * * * * * * * * * * * //

dimensions      [0 1 -1 0 0 0 0];

internalField   nonuniform List<vector> 
2790
(
(9.94381 0 0.0206253)
(9.87498 0 0.0297829)
(9.77354 0 0.0362655)
(9.64657 0 0.0429005)
(9.49983 0 0.0497869)
(9.33427 0 0.0568754)
(9.14911 0 0.0642968)
(8.94351 0 0.0722135)
(8.71667 0 0.0807637)
(8.46766 0 0.0900718)
(8.19532 0 0.100261)
(7.89833 0 0.111459)
(7.57524 0 0.123788)
(7.22452 0 0.13737)
(6.84465 0 0.152308)
(6.4342 0 0.168677)
(5.992 0 0.186504)
(5.51728 0 0.205735)
(5.00994 0 0.226201)
(4.47087 0 0.247567)
(3.9023 0 0.269264)
(3.30822 0 0.290403)
(2.69488 0 0.309629)
(2.07117 0 0.324821)
(1.4491 0 0.332296)
(0.843576 0 0.324361)
(0.289652 0 0.281393)
(-0.213384 0 0.0883579)
(-0.348171 0 -0.151441)
(-0.136265 0 -0.267507)
(9.99832 0 0.0410166)
(9.98071 0 0.0629706)
(9.93407 0 0.0799626)
(9.86128 0 0.0976442)
(9.76669 0 0.116306)
(9.65133 0 0.135797)
(9.5146 0 0.156375)
(9.35571 0 0.178397)
(9.17389 0 0.202174)
(8.96822 0 0.227981)
(8.73754 0 0.256083)
(8.48054 0 0.286741)
(8.19573 0 0.32019)
(7.88154 0 0.356626)
(7.53636 0 0.396167)
(7.15863 0 0.438812)
(6.74699 0 0.484376)
(6.30043 0 0.532406)
(5.81854 0 0.582081)
(5.30184 0 0.632087)
(4.75218 0 0.680481)
(4.1732 0 0.724526)
(3.57094 0 0.760489)
(2.95459 0 0.783314)
(2.33749 0 0.785896)
(1.73811 0 0.757188)
(1.18278 0 0.677709)
(0.695492 0 0.497584)
(0.327394 0 0.195975)
(0.0706228 0 -0.305867)
(9.99542 0 0.043736)
(9.97483 0 0.0762567)
(9.93015 0 0.104721)
(9.86206 0 0.134075)
(9.77357 0 0.165036)
(9.66581 0 0.197588)
(9.53853 0 0.232087)
(9.39112 0 0.269041)
(9.22295 0 0.308932)
(9.03329 0 0.352214)
(8.82117 0 0.399332)
(8.58546 0 0.450723)
(8.32486 0 0.506801)
(8.03794 0 0.567917)
(7.72319 0 0.634311)
(7.37908 0 0.70604)
(7.00413 0 0.782871)
(6.59706 0 0.864146)
(6.15698 0 0.948608)
(5.68362 0 1.03418)
(5.17775 0 1.11773)
(4.64158 0 1.19477)
(4.07933 0 1.25907)
(3.49787 0 1.30223)
(2.90735 0 1.31275)
(2.32116 0 1.27431)
(1.75459 0 1.16309)
(1.21767 0 0.943828)
(0.712701 0 0.607342)
(0.329522 0 0.126754)
(9.99385 0 0.0502363)
(9.97108 0 0.0945781)
(9.92624 0 0.135486)
(9.85942 0 0.176581)
(9.77273 0 0.219183)
(9.66726 0 0.26371)
(9.54298 0 0.310698)
(9.39948 0 0.36082)
(9.23632 0 0.414741)
(9.05295 0 0.473096)
(8.84868 0 0.536512)
(8.62268 0 0.605606)
(8.37397 0 0.68097)
(8.1015 0 0.763131)
(7.80411 0 0.852492)
(7.4806 0 0.949243)
(7.12975 0 1.05323)
(6.75041 0 1.16378)
(6.34157 0 1.27947)
(5.90255 0 1.39784)
(5.43319 0 1.515)
(4.93421 0 1.6253)
(4.40756 0 1.72077)
(3.85682 0 1.79061)
(3.28738 0 1.82047)
(2.70606 0 1.79158)
(2.11966 0 1.68047)
(1.53212 0 1.4614)
(0.928999 0 1.12957)
(0.425408 0 0.667032)
(9.99314 0 0.0581585)
(9.96922 0 0.112718)
(9.92429 0 0.16456)
(9.85864 0 0.216391)
(9.7738 0 0.269888)
(9.67064 0 0.325832)
(9.54921 0 0.384908)
(9.40919 0 0.447879)
(9.25022 0 0.515519)
(9.07186 0 0.588579)
(8.87356 0 0.667795)
(8.65464 0 0.753894)
(8.41435 0 0.847578)
(8.15189 0 0.949483)
(7.86638 0 1.06012)
(7.55692 0 1.17979)
(7.22256 0 1.30842)
(6.86233 0 1.4454)
(6.47528 0 1.58931)
(6.06048 0 1.73758)
(5.61716 0 1.88607)
(5.14477 0 2.02858)
(4.64322 0 2.15632)
(4.11302 0 2.25739)
(3.55535 0 2.31634)
(2.97183 0 2.3141)
(2.36378 0 2.22889)
(1.73271 0 2.03946)
(1.05656 0 1.74101)
(0.474045 0 1.30728)
(9.99285 0 0.0666905)
(9.96851 0 0.130847)
(9.92393 0 0.193108)
(9.85972 0 0.255555)
(9.77711 0 0.319888)
(9.67675 0 0.387105)
(9.55868 0 0.458021)
(9.42268 0 0.533486)
(9.26841 0 0.614373)
(9.09551 0 0.701541)
(8.90347 0 0.795832)
(8.69173 0 0.898075)
(8.45965 0 1.00907)
(8.20652 0 1.12955)
(7.93161 0 1.26011)
(7.63414 0 1.40115)
(7.31328 0 1.55271)
(6.96812 0 1.71429)
(6.59765 0 1.88458)
(6.20073 0 2.06114)
(5.77598 0 2.23992)
(5.32185 0 2.41477)
(4.83656 0 2.57688)
(4.31815 0 2.71425)
(3.7646 0 2.81142)
(3.17387 0 2.84968)
(2.54377 0 2.80826)
(1.87542 0 2.667)
(1.1418 0 2.41918)
(0.503025 0 2.02387)
(9.9928 0 0.0754322)
(9.96855 0 0.148842)
(9.92475 0 0.221013)
(9.8623 0 0.293671)
(9.78227 0 0.368443)
(9.68517 0 0.446485)
(9.57103 0 0.528755)
(9.43968 0 0.616205)
(9.29083 0 0.709804)
(9.12414 0 0.810508)
(8.93918 0 0.919254)
(8.73543 0 1.03696)
(8.51229 0 1.16452)
(8.26912 0 1.30273)
(8.00519 0 1.45231)
(7.71974 0 1.61373)
(7.4119 0 1.78717)
(7.08068 0 1.97229)
(6.72487 0 2.16802)
(6.34296 0 2.37221)
(5.933 0 2.58124)
(5.49248 0 2.78945)
(5.0182 0 2.9886)
(4.50626 0 3.16731)
(3.95215 0 3.3107)
(3.35118 0 3.40047)
(2.69866 0 3.41591)
(1.99633 0 3.33561)
(1.21283 0 3.14883)
(0.526206 0 2.79732)
(9.99289 0 0.0841491)
(9.9691 0 0.166514)
(9.92647 0 0.248112)
(9.86608 0 0.330522)
(9.789 0 0.41531)
(9.69562 0 0.503737)
(9.58595 0 0.596887)
(9.45986 0 0.695812)
(9.31712 0 0.801567)
(9.15744 0 0.915196)
(8.98043 0 1.03773)
(8.78559 0 1.17017)
(8.57238 0 1.31349)
(8.34016 0 1.46862)
(8.0882 0 1.63635)
(7.81568 0 1.8173)
(7.52162 0 2.01181)
(7.20483 0 2.21979)
(6.86382 0 2.44049)
(6.49662 0 2.67225)
(6.10066 0 2.91207)
(5.67248 0 3.15516)
(5.2076 0 3.3943)
(4.7004 0 3.61923)
(4.14424 0 3.81603)
(3.53208 0 3.96684)
(2.85685 0 4.05028)
(2.12083 0 4.04194)
(1.28799 0 3.92472)
(0.551884 0 3.62077)
(9.99309 0 0.092691)
(9.97002 0 0.183693)
(9.92888 0 0.274257)
(9.87089 0 0.365942)
(9.79709 0 0.460284)
(9.70784 0 0.558612)
(9.60314 0 0.662118)
(9.48289 0 0.771946)
(9.34693 0 0.889233)
(9.195 0 1.01511)
(9.02675 0 1.15068)
(8.84176 0 1.29706)
(8.63949 0 1.45531)
(8.41933 0 1.62647)
(8.18053 0 1.81146)
(7.92221 0 2.01108)
(7.64327 0 2.22589)
(7.34232 0 2.45611)
(7.01753 0 2.70145)
(6.6665 0 2.96086)
(6.28597 0 3.23221)
(5.87162 0 3.51185)
(5.4177 0 3.79397)
(4.91694 0 4.06985)
(4.36049 0 4.32702)
(3.73869 0 4.54829)
(3.04126 0 4.71133)
(2.26973 0 4.78747)
(1.38222 0 4.75081)
(0.586683 0 4.50032)
(9.99336 0 0.100954)
(9.97122 0 0.200234)
(9.93184 0 0.299305)
(9.87654 0 0.399769)
(9.80637 0 0.50316)
(9.72163 0 0.610859)
(9.62236 0 0.724149)
(9.50849 0 0.844255)
(9.3799 0 0.972391)
(9.23639 0 1.10977)
(9.07769 0 1.25758)
(8.9034 0 1.41702)
(8.71306 0 1.58927)
(8.50606 0 1.77548)
(8.28168 0 1.97673)
(8.039 0 2.19404)
(7.77683 0 2.42824)
(7.49361 0 2.67994)
(7.18727 0 2.9494)
(6.855 0 3.23634)
(6.49302 0 3.5397)
(6.09615 0 3.85724)
(5.65753 0 4.18494)
(5.16814 0 4.51621)
(4.61671 0 4.84068)
(3.99015 0 5.1426)
(3.27331 0 5.39916)
(2.46418 0 5.57703)
(1.51197 0 5.6389)
(0.638466 0 5.45428)
(9.99368 0 0.108861)
(9.97263 0 0.21602)
(9.93526 0 0.323126)
(9.88293 0 0.431852)
(9.81666 0 0.543752)
(9.7368 0 0.660255)
(9.64336 0 0.782712)
(9.53634 0 0.912426)
(9.41567 0 1.05068)
(9.28122 0 1.19876)
(9.13276 0 1.35793)
(8.96998 0 1.52948)
(8.79247 0 1.7147)
(8.5997 0 1.91487)
(8.39098 0 2.13125)
(8.16539 0 2.36507)
(7.92176 0 2.6175)
(7.65844 0 2.8896)
(7.37324 0 3.18226)
(7.06313 0 3.49609)
(6.72395 0 3.83126)
(6.34996 0 4.18721)
(5.93333 0 4.56219)
(5.46348 0 4.95238)
(4.92647 0 5.35064)
(4.30488 0 5.74423)
(3.57629 0 6.11176)
(2.73038 0 6.41661)
(1.70049 0 6.60822)
(0.71972 0 6.51596)
(9.99404 0 0.116355)
(9.97421 0 0.230953)
(9.93905 0 0.3456)
(9.88992 0 0.462052)
(9.82784 0 0.581895)
(9.75315 0 0.706598)
(9.66592 0 0.837572)
(9.56617 0 0.976182)
(9.4539 0 1.12378)
(9.32905 0 1.2817)
(9.19146 0 1.45129)
(9.04091 0 1.63393)
(8.87707 0 1.831)
(8.6995 0 2.04391)
(8.50759 0 2.2741)
(8.30054 0 2.52305)
(8.07721 0 2.79225)
(7.83604 0 3.08325)
(7.57489 0 3.39761)
(7.29073 0 3.73689)
(6.97936 0 4.10264)
(6.63487 0 4.49619)
(6.24894 0 4.91845)
(5.80994 0 5.36924)
(5.30153 0 5.84612)
(4.70156 0 6.34205)
(3.97791 0 6.84125)
(3.1051 0 7.30931)
(1.98636 0 7.68529)
(0.854238 0 7.74378)
(9.99444 0 0.123389)
(9.97592 0 0.244953)
(9.94315 0 0.366627)
(9.89742 0 0.490249)
(9.83976 0 0.617443)
(9.77052 0 0.749712)
(9.6898 0 0.888518)
(9.59769 0 1.03528)
(9.49423 0 1.19139)
(9.37944 0 1.35825)
(9.25327 0 1.53727)
(9.11556 0 1.72989)
(8.96612 0 1.93759)
(8.80462 0 2.1619)
(8.63059 0 2.40442)
(8.44337 0 2.66687)
(8.24201 0 2.95105)
(8.02517 0 3.25898)
(7.79093 0 3.59287)
(7.53661 0 3.95525)
(7.25834 0 4.349)
(6.95062 0 4.77749)
(6.6055 0 5.24456)
(6.21135 0 5.75434)
(5.75087 0 6.31079)
(5.19837 0 6.91612)
(4.5117 0 7.56743)
(3.64321 0 8.24596)
(2.44047 0 8.9001)
(1.09372 0 9.24827)
(9.99486 0 0.129929)
(9.97775 0 0.257953)
(9.94749 0 0.38612)
(9.90534 0 0.516339)
(9.85229 0 0.650273)
(9.78873 0 0.789456)
(9.71479 0 0.935387)
(9.6306 0 1.08952)
(9.5363 0 1.2533)
(9.43197 0 1.42817)
(9.31765 0 1.61557)
(9.19331 0 1.81701)
(9.05887 0 2.03404)
(8.91416 0 2.2683)
(8.7589 0 2.52152)
(8.59263 0 2.7956)
(8.4147 0 3.09266)
(8.2241 0 3.41507)
(8.01938 0 3.76565)
(7.79846 0 4.14773)
(7.55831 0 4.56546)
(7.29454 0 5.02404)
(7.00067 0 5.53015)
(6.66691 0 6.09246)
(6.27789 0 6.72228)
(5.80897 0 7.43431)
(5.2141 0 8.24748)
(4.42595 0 9.18272)
(3.2048 0 10.2605)
(1.56443 0 11.2716)
(9.9953 0 0.135944)
(9.97966 0 0.269901)
(9.95202 0 0.404004)
(9.91359 0 0.540226)
(9.86532 0 0.68026)
(9.80761 0 0.825668)
(9.74065 0 0.977975)
(9.66464 0 1.13867)
(9.57976 0 1.30921)
(9.48618 0 1.49108)
(9.38406 0 1.68576)
(9.27348 0 1.89478)
(9.15451 0 2.11975)
(9.02715 0 2.36238)
(8.89135 0 2.6245)
(8.74692 0 2.90816)
(8.59355 0 3.21566)
(8.43072 0 3.54969)
(8.2576 0 3.91346)
(8.07299 0 4.31093)
(7.87511 0 4.74715)
(7.66136 0 5.2287)
(7.42793 0 5.76445)
(7.16906 0 6.36672)
(6.87561 0 7.05325)
(6.53275 0 7.85093)
(6.10939 0 8.80393)
(5.55825 0 9.99358)
(4.59606 0 11.6256)
(2.6242 0 14.4376)
(-0.455062 0 0.53968)
(-1.2911 0 0.635226)
(-2.32272 0 0.628466)
(-3.37337 0 0.605278)
(-4.43492 0 0.575131)
(-5.49241 0 0.541399)
(-6.53438 0 0.505432)
(-7.55136 0 0.467918)
(-8.53512 0 0.429224)
(-9.47812 0 0.389523)
(-10.373 0 0.348843)
(-11.2122 0 0.307119)
(-11.9877 0 0.264224)
(-12.6906 0 0.220003)
(-13.3113 0 0.174301)
(-13.8391 0 0.126975)
(-14.2627 0 0.0779092)
(-14.5704 0 0.0269561)
(-14.7494 0 -0.0262324)
(-14.7857 0 -0.0827465)
(-14.6652 0 -0.144958)
(-14.3745 0 -0.213041)
(-13.8968 0 -0.28887)
(-13.212 0 -0.376275)
(-12.2903 0 -0.481495)
(-11.0818 0 -0.614729)
(-9.49778 0 -0.797166)
(-7.38825 0 -1.07866)
(-4.50137 0 -1.53984)
(0.572758 0 -2.17371)
(-0.624033 0 1.28471)
(-1.4987 0 1.41206)
(-2.54414 0 1.43456)
(-3.5861 0 1.42596)
(-4.63109 0 1.39583)
(-5.66687 0 1.3508)
(-6.68363 0 1.2949)
(-7.67288 0 1.23074)
(-8.62711 0 1.16005)
(-9.5393 0 1.08382)
(-10.4025 0 1.00254)
(-11.2096 0 0.916268)
(-11.9527 0 0.824761)
(-12.6231 0 0.727623)
(-13.2113 0 0.624413)
(-13.7066 0 0.514762)
(-14.098 0 0.39849)
(-14.3739 0 0.275627)
(-14.5222 0 0.146183)
(-14.53 0 0.00963663)
(-14.3875 0 -0.13426)
(-14.0878 0 -0.28282)
(-13.6178 0 -0.438022)
(-12.9615 0 -0.605381)
(-12.0958 0 -0.794026)
(-10.9846 0 -1.01815)
(-9.56944 0 -1.30713)
(-7.75023 0 -1.7296)
(-5.36753 0 -2.3784)
(-2.4582 0 -3.11442)
(-0.643529 0 2.24875)
(-1.49958 0 2.37483)
(-2.51966 0 2.39012)
(-3.51304 0 2.36548)
(-4.5005 0 2.30845)
(-5.47307 0 2.22745)
(-6.42415 0 2.12832)
(-7.34755 0 2.01517)
(-8.23751 0 1.89072)
(-9.08839 0 1.75655)
(-9.89433 0 1.61337)
(-10.6489 0 1.46118)
(-11.3451 0 1.29954)
(-11.9744 0 1.12782)
(-12.5277 0 0.945394)
(-12.9946 0 0.751923)
(-13.364 0 0.547579)
(-13.6244 0 0.333178)
(-13.7639 0 0.110126)
(-13.7699 0 -0.119629)
(-13.6351 0 -0.355369)
(-13.3538 0 -0.598684)
(-12.9165 0 -0.851966)
(-12.3123 0 -1.12222)
(-11.5252 0 -1.42105)
(-10.5323 0 -1.76525)
(-9.3022 0 -2.18258)
(-7.78182 0 -2.72316)
(-5.89441 0 -3.44302)
(-3.9248 0 -4.26325)
(-0.605807 0 3.2158)
(-1.40516 0 3.31566)
(-2.36711 0 3.30094)
(-3.28641 0 3.24562)
(-4.1963 0 3.15445)
(-5.08939 0 3.03612)
(-5.96223 0 2.89698)
(-6.81094 0 2.74168)
(-7.63145 0 2.57331)
(-8.41928 0 2.39358)
(-9.16926 0 2.20307)
(-9.87528 0 2.00148)
(-10.5301 0 1.78793)
(-11.125 0 1.56124)
(-11.6503 0 1.32019)
(-12.0947 0 1.06385)
(-12.4465 0 0.791779)
(-12.6937 0 0.504313)
(-12.8241 0 0.20261)
(-12.8253 0 -0.111312)
(-12.6931 0 -0.434087)
(-12.4252 0 -0.763153)
(-12.0163 0 -1.10184)
(-11.4602 0 -1.45908)
(-10.7477 0 -1.84936)
(-9.86655 0 -2.29243)
(-8.80478 0 -2.81431)
(-7.54169 0 -3.44735)
(-6.05007 0 -4.2185)
(-4.63226 0 -5.05597)
(-0.543939 0 4.10956)
(-1.26172 0 4.17914)
(-2.13877 0 4.13078)
(-2.96503 0 4.04341)
(-3.78448 0 3.91968)
(-4.58927 0 3.76805)
(-5.37824 0 3.59442)
(-6.14903 0 3.40315)
(-6.89864 0 3.19694)
(-7.62312 0 2.97694)
(-8.31741 0 2.74304)
(-8.97515 0 2.49416)
(-9.58855 0 2.22865)
(-10.1483 0 1.94465)
(-10.6439 0 1.64054)
(-11.0634 0 1.31535)
(-11.3943 0 0.969202)
(-11.6244 0 0.603744)
(-11.7413 0 0.222413)
(-11.7331 0 -0.169741)
(-11.5998 0 -0.568275)
(-11.3419 0 -0.970815)
(-10.9579 0 -1.38036)
(-10.4466 0 -1.80678)
(-9.80425 0 -2.26601)
(-9.02691 0 -2.77839)
(-8.11586 0 -3.36588)
(-7.07281 0 -4.04642)
(-5.89941 0 -4.82599)
(-4.85122 0 -5.61857)
(-0.469653 0 4.89815)
(-1.08855 0 4.94429)
(-1.86148 0 4.86718)
(-2.58107 0 4.75209)
(-3.30039 0 4.60099)
(-4.00977 0 4.42231)
(-4.70968 0 4.22131)
(-5.39852 0 4.00173)
(-6.07378 0 3.76556)
(-6.73167 0 3.5132)
(-7.36701 0 3.24377)
(-7.97313 0 2.95544)
(-8.54181 0 2.64587)
(-9.0633 0 2.31265)
(-9.52643 0 1.95376)
(-9.91882 0 1.56799)
(-10.2274 0 1.15544)
(-10.439 0 0.718284)
(-10.5408 0 0.261378)
(-10.5209 0 -0.207827)
(-10.3848 0 -0.681196)
(-10.1352 0 -1.15334)
(-9.77495 0 -1.62726)
(-9.3071 0 -2.11409)
(-8.73202 0 -2.63093)
(-8.05115 0 -3.19718)
(-7.27401 0 -3.82926)
(-6.41744 0 -4.53269)
(-5.49914 0 -5.2964)
(-4.71827 0 -6.01964)
(-0.388337 0 5.56516)
(-0.895584 0 5.59752)
(-1.55084 0 5.49917)
(-2.15368 0 5.36331)
(-2.76484 0 5.19209)
(-3.37207 0 4.99408)
(-3.97725 0 4.7737)
(-4.57907 0 4.53385)
(-5.17516 0 4.27557)
(-5.76172 0 3.9983)
(-6.33342 0 3.70021)
(-6.8834 0 3.37858)
(-7.40319 0 3.03027)
(-7.88274 0 2.65218)
(-8.3105 0 2.24182)
(-8.67364 0 1.79781)
(-8.95832 0 1.32053)
(-9.15037 0 0.813295)
(-9.23583 0 0.283617)
(-9.203 0 -0.257198)
(-9.06361 0 -0.797747)
(-8.8224 0 -1.3301)
(-8.48654 0 -1.8572)
(-8.06271 0 -2.392)
(-7.55391 0 -2.95297)
(-6.96404 0 -3.5579)
(-6.30656 0 -4.21705)
(-5.60806 0 -4.92496)
(-4.8934 0 -5.65717)
(-4.31803 0 -6.30493)
(-0.303205 0 6.09982)
(-0.688907 0 6.12867)
(-1.21667 0 6.0174)
(-1.69481 0 5.86911)
(-2.1909 0 5.68636)
(-2.6896 0 5.47774)
(-3.19426 0 5.24661)
(-3.70351 0 4.99489)
(-4.21498 0 4.72252)
(-4.72475 0 4.42793)
(-5.22743 0 4.10834)
(-5.71613 0 3.76018)
(-6.18238 0 3.37953)
(-6.6161 0 2.96262)
(-7.00569 0 2.50648)
(-7.33808 0 2.00949)
(-7.59872 0 1.47211)
(-7.77171 0 0.898577)
(-7.84097 0 0.299298)
(-7.79455 0 -0.309592)
(-7.65214 0 -0.912268)
(-7.41984 0 -1.49703)
(-7.10959 0 -2.06728)
(-6.73099 0 -2.63901)
(-6.2881 0 -3.23283)
(-5.78489 0 -3.86477)
(-5.23518 0 -4.53859)
(-4.67149 0 -5.23851)
(-4.11841 0 -5.93004)
(-3.70957 0 -6.50362)
(-0.216377 0 6.49437)
(-0.47244 0 6.53035)
(-0.865503 0 6.4147)
(-1.21246 0 6.26301)
(-1.58763 0 6.07804)
(-1.97205 0 5.86813)
(-2.37081 0 5.63527)
(-2.78216 0 5.38028)
(-3.20364 0 5.10197)
(-3.63112 0 4.79776)
(-4.05924 0 4.4641)
(-4.4813 0 4.09659)
(-4.88914 0 3.69056)
(-5.27307 0 3.24153)
(-5.62181 0 2.74588)
(-5.92246 0 2.20151)
(-6.15976 0 1.60873)
(-6.31514 0 0.972447)
(-6.36865 0 0.306406)
(-6.30814 0 -0.366824)
(-6.16416 0 -1.02596)
(-5.94265 0 -1.65449)
(-5.66012 0 -2.25726)
(-5.3282 0 -2.85496)
(-4.9507 0 -3.47149)
(-4.53016 0 -4.12129)
(-4.07803 0 -4.80139)
(-3.63074 0 -5.48592)
(-3.20504 0 -6.13218)
(-2.93668 0 -6.63488)
(-0.129487 0 6.74331)
(-0.248912 0 6.79717)
(-0.502191 0 6.68561)
(-0.712535 0 6.53989)
(-0.962106 0 6.36237)
(-1.22746 0 6.16084)
(-1.5159 0 5.93549)
(-1.82491 0 5.68592)
(-2.15175 0 5.40977)
(-2.49191 0 5.10355)
(-2.84006 0 4.76332)
(-3.18994 0 4.38389)
(-3.53395 0 3.95995)
(-3.86321 0 3.48632)
(-4.16727 0 2.95853)
(-4.43404 0 2.37359)
(-4.64811 0 1.73122)
(-4.78744 0 1.03634)
(-4.82585 0 0.305908)
(-4.75216 0 -0.428961)
(-4.61094 0 -1.13861)
(-4.4052 0 -1.80153)
(-4.15448 0 -2.42609)
(-3.87106 0 -3.03952)
(-3.55766 0 -3.67005)
(-3.2153 0 -4.33078)
(-2.85144 0 -5.01177)
(-2.50582 0 -5.67748)
(-2.18083 0 -6.27741)
(-2.03265 0 -6.71241)
(-0.0443889 0 6.84367)
(-0.0207574 0 6.9256)
(-0.130764 0 6.82695)
(-0.199781 0 6.69658)
(-0.320421 0 6.53655)
(-0.463204 0 6.35319)
(-0.638402 0 6.14436)
(-0.842113 0 5.90834)
(-1.07115 0 5.64182)
(-1.32001 0 5.34132)
(-1.58331 0 5.00176)
(-1.85547 0 4.61765)
(-2.12948 0 4.18324)
(-2.39751 0 3.69272)
(-2.65061 0 3.14044)
(-2.87855 0 2.52196)
(-3.06722 0 1.83601)
(-3.19047 0 1.08767)
(-3.21199 0 0.297211)
(-3.12641 0 -0.495424)
(-2.99868 0 -1.24705)
(-2.81961 0 -1.93406)
(-2.60863 0 -2.57045)
(-2.37688 0 -3.19116)
(-2.12573 0 -3.82941)
(-1.85591 0 -4.49705)
(-1.57123 0 -5.17627)
(-1.31417 0 -5.82246)
(-1.07129 0 -6.37719)
(-1.02276 0 -6.74688)
(0.0391724 0 6.79444)
(0.207675 0 6.90991)
(0.247225 0 6.83509)
(0.319341 0 6.72956)
(0.330392 0 6.59842)
(0.311505 0 6.4443)
(0.251263 0 6.26256)
(0.155014 0 6.05007)
(0.0268601 0 5.80237)
(-0.129951 0 5.51117)
(-0.305442 0 5.17865)
(-0.495373 0 4.79627)
(-0.693359 0 4.35811)
(-0.892571 0 3.85813)
(-1.0858 0 3.28979)
(-1.26603 0 2.64684)
(-1.42294 0 1.92658)
(-1.52312 0 1.13372)
(-1.51195 0 0.289415)
(-1.42546 0 -0.556192)
(-1.33054 0 -1.34107)
(-1.19597 0 -2.04418)
(-1.03722 0 -2.68572)
(-0.86258 0 -3.30867)
(-0.672368 0 -3.95113)
(-0.468405 0 -4.62375)
(-0.253846 0 -5.30091)
(-0.071032 0 -5.92953)
(0.100126 0 -6.44005)
(0.0740809 0 -6.74614)
(0.126562 0 6.59243)
(0.439785 0 6.74923)
(0.632657 0 6.70801)
(0.842956 0 6.6366)
(0.985734 0 6.54553)
(1.08706 0 6.43051)
(1.13861 0 6.28422)
(1.14723 0 6.10209)
(1.11876 0 5.87985)
(1.05758 0 5.60934)
(0.971824 0 5.29061)
(0.867566 0 4.91726)
(0.750792 0 4.48346)
(0.627605 0 3.98356)
(0.50422 0 3.41135)
(0.385871 0 2.76013)
(0.274431 0 2.02505)
(0.206438 0 1.2037)
(0.267533 0 0.30321)
(0.334128 0 -0.592376)
(0.379169 0 -1.40591)
(0.451325 0 -2.12382)
(0.545062 0 -2.77119)
(0.656683 0 -3.39763)
(0.786472 0 -4.04405)
(0.931198 0 -4.71822)
(1.08331 0 -5.38701)
(1.2067 0 -5.99429)
(1.31706 0 -6.46879)
(1.24217 0 -6.72161)
(0.225943 0 6.22971)
(0.681353 0 6.44713)
(1.02662 0 6.44487)
(1.37331 0 6.41916)
(1.6453 0 6.38186)
(1.86018 0 6.31696)
(2.01683 0 6.2144)
(2.12445 0 6.06895)
(2.19077 0 5.87668)
(2.2215 0 5.63055)
(2.22383 0 5.32909)
(2.20464 0 4.96752)
(2.17007 0 4.54053)
(2.12598 0 4.04282)
(2.07827 0 3.46877)
(2.03207 0 2.81237)
(1.98976 0 2.06777)
(1.97869 0 1.23412)
(2.0348 0 0.333672)
(2.0778 0 -0.5753)
(2.0823 0 -1.41124)
(2.0895 0 -2.14738)
(2.11372 0 -2.80782)
(2.16073 0 -3.44425)
(2.23401 0 -4.09929)
(2.32903 0 -4.77879)
(2.43332 0 -5.44548)
(2.5117 0 -6.03668)
(2.5746 0 -6.478)
(2.46003 0 -6.68515)
(0.34635 0 5.69932)
(0.939732 0 6.02984)
(1.42819 0 6.05687)
(1.91509 0 6.08853)
(2.31099 0 6.11874)
(2.62861 0 6.11401)
(2.87961 0 6.06226)
(3.07712 0 5.95889)
(3.2305 0 5.80068)
(3.34665 0 5.58233)
(3.43235 0 5.30162)
(3.49442 0 4.95486)
(3.539 0 4.53748)
(3.57168 0 4.0446)
(3.59786 0 3.47105)
(3.62215 0 2.81135)
(3.64692 0 2.05972)
(3.68223 0 1.21846)
(3.73899 0 0.314455)
(3.76363 0 -0.5839)
(3.73278 0 -1.41008)
(3.68365 0 -2.14485)
(3.6448 0 -2.81297)
(3.63456 0 -3.46256)
(3.66144 0 -4.13145)
(3.7189 0 -4.81944)
(3.78808 0 -5.48386)
(3.83197 0 -6.05821)
(3.85678 0 -6.46829)
(3.70647 0 -6.63587)
(9.99576 0 0.141512)
(9.98167 0 0.280957)
(9.95679 0 0.420542)
(9.92226 0 0.562284)
(9.87901 0 0.707908)
(9.82745 0 0.858988)
(9.76782 0 1.01707)
(9.70039 0 1.18365)
(9.62541 0 1.36022)
(9.54316 0 1.54824)
(9.45389 0 1.74924)
(9.35783 0 1.96475)
(9.2552 0 2.19642)
(9.14622 0 2.44596)
(9.03107 0 2.71528)
(8.9099 0 3.0065)
(8.7828 0 3.32201)
(8.64983 0 3.66467)
(8.51093 0 4.0379)
(8.36598 0 4.44595)
(8.21477 0 4.89429)
(8.05702 0 5.39009)
(7.89255 0 5.94316)
(7.72148 0 6.56722)
(7.54497 0 7.28248)
(7.36801 0 8.12015)
(7.20434 0 9.13208)
(7.14377 0 10.4083)
(7.58801 0 12.088)
(7.78456 0 14.7339)
(9.99625 0 0.146641)
(9.98379 0 0.291128)
(9.96181 0 0.435716)
(9.93136 0 0.582458)
(9.89332 0 0.733096)
(9.84814 0 0.889214)
(9.79611 0 1.05236)
(9.73754 0 1.22405)
(9.67278 0 1.40575)
(9.60219 0 1.59895)
(9.52615 0 1.80514)
(9.44503 0 2.02586)
(9.35924 0 2.26274)
(9.26918 0 2.5175)
(9.17533 0 2.79202)
(9.07817 0 3.08842)
(8.97826 0 3.4091)
(8.87623 0 3.75686)
(8.77285 0 4.13511)
(8.66911 0 4.548)
(8.56643 0 5.0008)
(8.46689 0 5.50032)
(8.37387 0 6.05551)
(8.29321 0 6.67841)
(8.23549 0 7.38539)
(8.22189 0 8.1985)
(8.29007 0 9.14574)
(8.49311 0 10.2568)
(9.09509 0 11.4712)
(9.52452 0 12.4914)
(9.99676 0 0.151242)
(9.98599 0 0.300246)
(9.96702 0 0.449298)
(9.9408 0 0.600474)
(9.90817 0 0.755522)
(9.86957 0 0.916025)
(9.82535 0 1.08352)
(9.77589 0 1.25952)
(9.72161 0 1.44546)
(9.66296 0 1.64282)
(9.60044 0 1.85305)
(9.53456 0 2.07766)
(9.4659 0 2.31823)
(9.39511 0 2.57642)
(9.3229 0 2.85406)
(9.25011 0 3.15315)
(9.17774 0 3.47596)
(9.10698 0 3.82512)
(9.03935 0 4.20372)
(8.97687 0 4.61548)
(8.92227 0 5.06491)
(8.87947 0 5.55754)
(8.85428 0 6.10013)
(8.85554 0 6.70073)
(8.89673 0 7.36824)
(8.99843 0 8.11051)
(9.18926 0 8.92829)
(9.47422 0 9.80898)
(9.97567 0 10.6998)
(10.5583 0 11.3906)
(9.99728 0 0.15526)
(9.98826 0 0.3082)
(9.97238 0 0.461117)
(9.95051 0 0.616094)
(9.92341 0 0.774876)
(9.89155 0 0.939032)
(9.85531 0 1.11008)
(9.81514 0 1.2895)
(9.77152 0 1.47871)
(9.725 0 1.67913)
(9.67617 0 1.89216)
(9.62569 0 2.11925)
(9.57429 0 2.36189)
(9.52284 0 2.62164)
(9.47229 0 2.90019)
(9.42381 0 3.19937)
(9.37876 0 3.5212)
(9.33883 0 3.86798)
(9.30614 0 4.24231)
(9.28343 0 4.64717)
(9.27434 0 5.08597)
(9.28376 0 5.56253)
(9.31838 0 6.08095)
(9.38734 0 6.64516)
(9.50271 0 7.25788)
(9.67968 0 7.91884)
(9.93866 0 8.62125)
(10.2845 0 9.35152)
(10.7811 0 10.1022)
(11.4778 0 10.7673)
(9.99782 0 0.158647)
(9.99057 0 0.314895)
(9.97785 0 0.471033)
(9.96041 0 0.629136)
(9.93893 0 0.790932)
(9.91391 0 0.957965)
(9.88576 0 1.13173)
(9.85497 0 1.31364)
(9.82209 0 1.50509)
(9.78776 0 1.70742)
(9.75265 0 1.92196)
(9.71755 0 2.15006)
(9.68335 0 2.3931)
(9.65106 0 2.65249)
(9.62187 0 2.92973)
(9.59718 0 3.2264)
(9.57868 0 3.54421)
(9.5684 0 3.88499)
(9.56886 0 4.25073)
(9.58324 0 4.64357)
(9.61555 0 5.0657)
(9.67095 0 5.51926)
(9.75599 0 6.00603)
(9.87895 0 6.52697)
(10.0499 0 7.08143)
(10.2808 0 7.66624)
(10.5873 0 8.27457)
(10.9789 0 8.89398)
(11.4785 0 9.51678)
(12.1617 0 10.0734)
(9.99836 0 0.161358)
(9.99291 0 0.32024)
(9.98339 0 0.478912)
(9.97041 0 0.639425)
(9.95461 0 0.803476)
(9.93646 0 0.972574)
(9.91642 0 1.14816)
(9.89502 0 1.33161)
(9.87287 0 1.52424)
(9.85067 0 1.7273)
(9.82917 0 1.94204)
(9.80925 0 2.16968)
(9.79193 0 2.41145)
(9.77836 0 2.66859)
(9.76989 0 2.94235)
(9.7681 0 3.23403)
(9.77487 0 3.54495)
(9.79243 0 3.87645)
(9.82352 0 4.22987)
(9.87144 0 4.60648)
(9.94022 0 5.00735)
(10.0348 0 5.43321)
(10.1611 0 5.88411)
(10.3262 0 6.35907)
(10.5382 0 6.85554)
(10.8063 0 7.36875)
(11.1408 0 7.89102)
(11.549 0 8.40901)
(12.0324 0 8.90928)
(12.6638 0 9.35342)
(9.9989 0 0.163352)
(9.99526 0 0.324156)
(9.98894 0 0.484638)
(9.98044 0 0.646806)
(9.9703 0 0.81232)
(9.959 0 0.982636)
(9.94703 0 1.15914)
(9.93495 0 1.34314)
(9.9234 0 1.53586)
(9.91313 0 1.73847)
(9.90497 0 1.95209)
(9.89986 0 2.17781)
(9.89891 0 2.41668)
(9.90335 0 2.66974)
(9.91465 0 2.93798)
(9.93447 0 3.22238)
(9.9648 0 3.52386)
(10.0079 0 3.84326)
(10.0666 0 4.1813)
(10.144 0 4.53845)
(10.244 0 4.91487)
(10.3709 0 5.31016)
(10.5298 0 5.72317)
(10.7264 0 6.15164)
(10.9669 0 6.59187)
(11.2573 0 7.03819)
(11.6037 0 7.48265)
(12.0103 0 7.91362)
(12.4722 0 8.31898)
(13.0562 0 8.68016)
(9.99944 0 0.164592)
(9.9976 0 0.326572)
(9.99446 0 0.488105)
(9.9904 0 0.651147)
(9.98587 0 0.817302)
(9.98135 0 0.987967)
(9.97732 0 1.16446)
(9.97438 0 1.348)
(9.9732 0 1.53973)
(9.97455 0 1.74071)
(9.9793 0 1.95192)
(9.98845 0 2.1743)
(10.0031 0 2.40871)
(10.0247 0 2.65598)
(10.0545 0 2.91683)
(10.0944 0 3.19192)
(10.1462 0 3.48178)
(10.2123 0 3.78678)
(10.2952 0 4.10708)
(10.398 0 4.44251)
(10.5238 0 4.79248)
(10.6766 0 5.15581)
(10.8602 0 5.53055)
(11.0791 0 5.91374)
(11.3375 0 6.30118)
(11.6393 0 6.68721)
(11.9877 0 7.06468)
(12.3847 0 7.42458)
(12.824 0 7.75743)
(13.3646 0 8.05299)
(9.99997 0 0.165049)
(9.9999 0 0.327429)
(9.9999 0 0.48923)
(10.0002 0 0.652339)
(10.0012 0 0.818296)
(10.0033 0 0.988426)
(10.007 0 1.16397)
(10.013 0 1.34606)
(10.0218 0 1.53572)
(10.0343 0 1.7339)
(10.0514 0 1.94146)
(10.0741 0 2.15915)
(10.1035 0 2.38766)
(10.141 0 2.62759)
(10.1879 0 2.8794)
(10.246 0 3.14344)
(10.3171 0 3.4199)
(10.4034 0 3.70872)
(10.5071 0 4.00962)
(10.6309 0 4.32191)
(10.7776 0 4.64448)
(10.9502 0 4.97565)
(11.1517 0 5.31301)
(11.3853 0 5.65335)
(11.6537 0 5.9925)
(11.9592 0 6.3253)
(12.3031 0 6.64568)
(12.6861 0 6.94667)
(13.1015 0 7.22085)
(13.6012 0 7.46176)
(10.0005 0 0.164699)
(10.0022 0 0.32668)
(10.0052 0 0.487945)
(10.0098 0 0.6503)
(10.0161 0 0.815207)
(10.0247 0 0.983916)
(10.0359 0 1.15758)
(10.0503 0 1.33722)
(10.0688 0 1.52378)
(10.0919 0 1.71806)
(10.1207 0 1.92078)
(10.1561 0 2.13254)
(10.1991 0 2.35383)
(10.2512 0 2.58505)
(10.3136 0 2.82641)
(10.388 0 3.07799)
(10.476 0 3.33967)
(10.5795 0 3.61106)
(10.7006 0 3.89151)
(10.8414 0 4.18)
(11.0043 0 4.47506)
(11.1914 0 4.77472)
(11.405 0 5.07645)
(11.6472 0 5.37703)
(11.9196 0 5.67262)
(12.2233 0 5.9587)
(12.5584 0 6.23022)
(12.9245 0 6.48175)
(13.3155 0 6.70763)
(13.7772 0 6.90366)
(10.001 0 0.163524)
(10.0043 0 0.324294)
(10.0104 0 0.484207)
(10.019 0 0.644976)
(10.0305 0 0.807983)
(10.0452 0 0.974388)
(10.0636 0 1.14525)
(10.0862 0 1.3215)
(10.1137 0 1.50394)
(10.1468 0 1.69327)
(10.1864 0 1.89006)
(10.2335 0 2.09476)
(10.2891 0 2.30769)
(10.3543 0 2.52902)
(10.4305 0 2.75878)
(10.5191 0 2.99681)
(10.6216 0 3.24272)
(10.7395 0 3.4959)
(10.8747 0 3.75542)
(11.0288 0 4.02004)
(11.2036 0 4.2881)
(11.4007 0 4.55756)
(11.6216 0 4.82588)
(11.8676 0 5.09008)
(12.1394 0 5.3467)
(12.4373 0 5.59193)
(12.7607 0 5.82165)
(13.1086 0 6.03167)
(13.4755 0 6.21777)
(13.9022 0 6.37719)
(10.0015 0 0.161516)
(10.0064 0 0.320251)
(10.0153 0 0.47799)
(10.0279 0 0.636345)
(10.0443 0 0.796606)
(10.0649 0 0.959842)
(10.09 0 1.12701)
(10.1202 0 1.29894)
(10.1562 0 1.47633)
(10.1986 0 1.65975)
(10.2482 0 1.84962)
(10.3059 0 2.04626)
(10.3727 0 2.24982)
(10.4496 0 2.46032)
(10.5378 0 2.67758)
(10.6385 0 2.90127)
(10.7531 0 3.13082)
(10.8827 0 3.36541)
(11.0289 0 3.60397)
(11.1929 0 3.84513)
(11.376 0 4.08719)
(11.5792 0 4.32812)
(11.8035 0 4.56554)
(12.0495 0 4.79675)
(12.3173 0 5.01878)
(12.6066 0 5.22844)
(12.9165 0 5.42246)
(13.2456 0 5.59762)
(13.5892 0 5.75081)
(13.9839 0 5.88017)
(10.0019 0 0.158671)
(10.0084 0 0.314547)
(10.02 0 0.469295)
(10.0363 0 0.624414)
(10.0574 0 0.781099)
(10.0834 0 0.940324)
(10.1149 0 1.10295)
(10.1522 0 1.2697)
(10.1959 0 1.44116)
(10.2468 0 1.61777)
(10.3054 0 1.79985)
(10.3726 0 1.98757)
(10.4493 0 2.18096)
(10.5364 0 2.37987)
(10.6349 0 2.584)
(10.7457 0 2.79285)
(10.8701 0 3.00573)
(11.0089 0 3.22172)
(11.1633 0 3.43966)
(11.3341 0 3.65815)
(11.5223 0 3.87551)
(11.7285 0 4.08983)
(11.953 0 4.29895)
(12.1961 0 4.5005)
(12.4574 0 4.69197)
(12.7364 0 4.87076)
(13.0318 0 5.03428)
(13.3422 0 5.18009)
(13.6634 0 5.3059)
(14.0286 0 5.41047)
(10.0024 0 0.154993)
(10.0103 0 0.307194)
(10.0244 0 0.45814)
(10.0442 0 0.609217)
(10.0696 0 0.761522)
(10.1007 0 0.915929)
(10.138 0 1.0732)
(10.1818 0 1.23396)
(10.2327 0 1.39869)
(10.2911 0 1.56772)
(10.3578 0 1.74125)
(10.4334 0 1.91935)
(10.5187 0 2.10191)
(10.6144 0 2.28868)
(10.7214 0 2.47926)
(10.8405 0 2.67304)
(10.9725 0 2.86925)
(11.1182 0 3.06691)
(11.2783 0 3.26485)
(11.4534 0 3.4617)
(11.6441 0 3.65587)
(11.8505 0 3.84562)
(12.0729 0 4.02902)
(12.3108 0 4.20407)
(12.564 0 4.36866)
(12.8313 0 4.52069)
(13.1118 0 4.65816)
(13.4038 0 4.77921)
(13.7037 0 4.88218)
(14.0417 0 4.96625)
(10.0028 0 0.150494)
(10.012 0 0.298214)
(10.0285 0 0.444566)
(10.0515 0 0.590819)
(10.0809 0 0.737967)
(10.1167 0 0.88679)
(10.1593 0 1.03796)
(10.209 0 1.19199)
(10.2663 0 1.34926)
(10.3315 0 1.51003)
(10.4052 0 1.67438)
(10.4881 0 1.84228)
(10.5806 0 2.01354)
(10.6835 0 2.18782)
(10.7974 0 2.36464)
(10.9229 0 2.54333)
(11.0606 0 2.72309)
(11.2111 0 2.90292)
(11.3747 0 3.0817)
(11.5519 0 3.25811)
(11.7429 0 3.43071)
(11.9475 0 3.59794)
(12.1657 0 3.75814)
(12.397 0 3.9096)
(12.6408 0 4.05061)
(12.8959 0 4.17951)
(13.1613 0 4.29473)
(13.4355 0 4.39488)
(13.7154 0 4.47877)
(14.0283 0 4.54587)
(10.0032 0 0.145191)
(10.0137 0 0.287644)
(10.0322 0 0.428632)
(10.0582 0 0.569306)
(10.0913 0 0.71056)
(10.1314 0 0.85308)
(10.1788 0 0.997441)
(10.2337 0 1.14407)
(10.2966 0 1.29327)
(10.3677 0 1.44518)
(10.4475 0 1.59983)
(10.5365 0 1.75711)
(10.6351 0 1.91674)
(10.7438 0 2.07834)
(10.863 0 2.24137)
(10.9933 0 2.40515)
(11.135 0 2.56886)
(11.2884 0 2.73154)
(11.4538 0 2.89213)
(11.6312 0 3.04941)
(11.8206 0 3.2021)
(12.0219 0 3.34883)
(12.2345 0 3.48819)
(12.4581 0 3.61876)
(12.6917 0 3.73916)
(12.9343 0 3.84807)
(13.1849 0 3.9443)
(13.4419 0 4.02682)
(13.7029 0 4.09477)
(13.9927 0 4.14785)
(10.0035 0 0.139108)
(10.0151 0 0.275532)
(10.0357 0 0.410415)
(10.0644 0 0.54479)
(10.1007 0 0.679454)
(10.1446 0 0.815)
(10.1962 0 0.951918)
(10.2558 0 1.09055)
(10.3235 0 1.23112)
(10.3997 0 1.37371)
(10.4847 0 1.51826)
(10.5787 0 1.66459)
(10.6822 0 1.81241)
(10.7954 0 1.96129)
(10.9186 0 2.11065)
(11.0522 0 2.25984)
(11.1964 0 2.40805)
(11.3512 0 2.55438)
(11.5167 0 2.69784)
(11.6928 0 2.83735)
(11.8794 0 2.97178)
(12.076 0 3.09995)
(12.2822 0 3.22068)
(12.4972 0 3.3328)
(12.7203 0 3.43522)
(12.9505 0 3.5269)
(13.1866 0 3.60694)
(13.4274 0 3.6746)
(13.6707 0 3.72926)
(13.9392 0 3.77079)
(10.0038 0 0.132271)
(10.0164 0 0.261933)
(10.0387 0 0.390003)
(10.0698 0 0.517398)
(10.1091 0 0.644819)
(10.1563 0 0.772777)
(10.2117 0 0.901678)
(10.2753 0 1.0318)
(10.3472 0 1.16327)
(10.4277 0 1.29614)
(10.5168 0 1.43029)
(10.6149 0 1.5655)
(10.7222 0 1.70144)
(10.8388 0 1.83766)
(10.9648 0 1.97362)
(11.1005 0 2.10864)
(11.2458 0 2.242)
(11.4007 0 2.37284)