/*--------------------------------*- C++ -*----------------------------------*\
  =========                 |
  \\      /  F ield         | OpenFOAM: The Open Source CFD Toolbox
   \\    /   O peration     | Website:  https://openfoam.org
    \\  /    A nd           | Version:  dev
     \\/     M anipulation  |
\*---------------------------------------------------------------------------*/
FoamFile
{
    version     2.0;
    format      ascii;
    class       volVectorField;
    location    "7.9";
    object      U;
}
// * * * * * * * * * * * * * * * * * * * * * * * * * * * * * * * * * * * * * //

dimensions      [0 1 -1 0 0 0 0];

internalField   nonuniform List<vector> 
2790
(
(9.94399 0 0.0205232)
(9.87572 0 0.0295878)
(9.77521 0 0.0359897)
(9.64943 0 0.0425565)
(9.50409 0 0.0493859)
(9.34006 0 0.056429)
(9.15654 0 0.0638167)
(8.95262 0 0.0717128)
(8.72745 0 0.0802568)
(8.48007 0 0.0895756)
(8.20925 0 0.0997961)
(7.91362 0 0.111049)
(7.59165 0 0.123464)
(7.24174 0 0.13717)
(6.86227 0 0.152279)
(6.45173 0 0.168877)
(6.0088 0 0.187005)
(5.53259 0 0.206628)
(5.02286 0 0.2276)
(4.48033 0 0.24962)
(3.90703 0 0.272185)
(3.3067 0 0.294533)
(2.68516 0 0.315626)
(2.05049 0 0.334292)
(1.41168 0 0.350608)
(0.797933 0 0.372887)
(0.110565 0 0.325005)
(-0.469571 0 -0.114887)
(-0.453794 0 -0.297133)
(-0.231165 0 -0.423851)
(9.9985 0 0.0407032)
(9.98145 0 0.0623831)
(9.93574 0 0.0791407)
(9.86416 0 0.0966256)
(9.77097 0 0.115125)
(9.65715 0 0.13449)
(9.52205 0 0.154977)
(9.36485 0 0.176946)
(9.18471 0 0.200712)
(8.98066 0 0.226555)
(8.75151 0 0.254751)
(8.49586 0 0.285569)
(8.21217 0 0.31926)
(7.89878 0 0.356035)
(7.55399 0 0.396035)
(7.17613 0 0.439279)
(6.76371 0 0.48561)
(6.31558 0 0.534606)
(5.83115 0 0.585481)
(5.31077 0 0.636972)
(4.75604 0 0.687219)
(4.17029 0 0.733658)
(3.55917 0 0.77296)
(2.93143 0 0.801094)
(2.29984 0 0.813744)
(1.69285 0 0.807244)
(1.10706 0 0.747224)
(0.658837 0 0.547895)
(0.186353 0 0.224559)
(-0.00819857 0 -0.453755)
(9.99559 0 0.0432072)
(9.97556 0 0.0752722)
(9.9318 0 0.103347)
(9.86489 0 0.132372)
(9.77778 0 0.163061)
(9.67155 0 0.195401)
(9.54587 0 0.229746)
(9.40013 0 0.266607)
(9.23364 0 0.306476)
(9.04562 0 0.349815)
(8.83507 0 0.397082)
(8.60079 0 0.448734)
(8.34142 0 0.505207)
(8.05546 0 0.566881)
(7.74133 0 0.634032)
(7.39739 0 0.706754)
(7.02204 0 0.784862)
(6.61388 0 0.867749)
(6.17185 0 0.954219)
(5.69554 0 1.04228)
(5.18552 0 1.1289)
(4.64384 0 1.2098)
(4.07468 0 1.27916)
(3.48526 0 1.32933)
(2.88674 0 1.35008)
(2.29937 0 1.32641)
(1.73176 0 1.22074)
(1.21619 0 0.97296)
(0.7011 0 0.570094)
(0.358013 0 -0.156634)
(9.99403 0 0.0494996)
(9.97181 0 0.093207)
(9.92788 0 0.133573)
(9.86224 0 0.174211)
(9.77693 0 0.216436)
(9.67298 0 0.260665)
(9.55031 0 0.307435)
(9.40848 0 0.357421)
(9.24701 0 0.411299)
(9.06532 0 0.469716)
(8.86267 0 0.533315)
(8.63817 0 0.60274)
(8.39082 0 0.678611)
(8.11948 0 0.761497)
(7.82295 0 0.851846)
(7.49995 0 0.949903)
(7.14918 0 1.05558)
(6.76937 0 1.16827)
(6.35941 0 1.28663)
(5.9185 0 1.40829)
(5.44642 0 1.52949)
(4.94389 0 1.6447)
(4.41305 0 1.74615)
(3.85815 0 1.82321)
(3.28571 0 1.86135)
(2.7063 0 1.84029)
(2.12556 0 1.72595)
(1.55419 0 1.4778)
(0.957908 0 1.08362)
(0.509411 0 0.502245)
(9.99331 0 0.0572141)
(9.96994 0 0.11096)
(9.92593 0 0.162105)
(9.86146 0 0.21335)
(9.77799 0 0.26636)
(9.67635 0 0.321918)
(9.55653 0 0.380708)
(9.41821 0 0.443496)
(9.26096 0 0.511066)
(9.08432 0 0.584183)
(8.88769 0 0.663603)
(8.67036 0 0.750083)
(8.43156 0 0.844358)
(8.17042 0 0.947111)
(7.88603 0 1.05891)
(7.57742 0 1.18011)
(7.2436 0 1.31072)
(6.88353 0 1.45022)
(6.4962 0 1.59726)
(6.08063 0 1.74936)
(5.63605 0 1.90244)
(5.162 0 2.05034)
(4.65865 0 2.18418)
(4.12709 0 2.29173)
(3.56928 0 2.35653)
(2.98878 0 2.35727)
(2.38674 0 2.26489)
(1.76632 0 2.04756)
(1.08995 0 1.6913)
(0.536632 0 1.15404)
(9.99302 0 0.0655391)
(9.96923 0 0.128703)
(9.92556 0 0.190115)
(9.86253 0 0.251846)
(9.78128 0 0.315582)
(9.68244 0 0.382324)
(9.56601 0 0.452882)
(9.43171 0 0.528111)
(9.27919 0 0.608892)
(9.10805 0 0.696099)
(8.91776 0 0.790598)
(8.70772 0 0.893247)
(8.47725 0 1.00488)
(8.22564 0 1.12629)
(7.9521 0 1.25812)
(7.65583 0 1.40085)
(7.33596 0 1.55458)
(6.99156 0 1.71891)
(6.6216 0 1.8926)
(6.22491 0 2.07326)
(5.80017 0 2.25688)
(5.34592 0 2.43723)
(4.86058 0 2.6052)
(4.34257 0 2.74821)
(3.79026 0 2.84951)
(3.20245 0 2.88814)
(2.57646 0 2.83814)
(1.91338 0 2.6715)
(1.17269 0 2.37387)
(0.549942 0 1.89426)
(9.99297 0 0.0740754)
(9.96926 0 0.146315)
(9.92637 0 0.217485)
(9.86508 0 0.289295)
(9.78642 0 0.363359)
(9.69085 0 0.440833)
(9.57834 0 0.522668)
(9.44871 0 0.609821)
(9.30164 0 0.703269)
(9.13677 0 0.803982)
(8.95363 0 0.912921)
(8.75168 0 1.03104)
(8.53031 0 1.15925)
(8.28884 0 1.29844)
(8.02655 0 1.44934)
(7.74264 0 1.61253)
(7.43623 0 1.78824)
(7.10633 0 1.97621)
(6.75172 0 2.17546)
(6.3709 0 2.38387)
(5.96198 0 2.59778)
(5.52251 0 2.81141)
(5.04938 0 3.01617)
(4.53886 0 3.19996)
(3.98651 0 3.34664)
(3.38776 0 3.4359)
(2.73712 0 3.4432)
(2.03613 0 3.34136)
(1.24168 0 3.11341)
(0.563482 0 2.69296)
(9.99306 0 0.0825886)
(9.96981 0 0.163607)
(9.92807 0 0.244052)
(9.86885 0 0.325483)
(9.79313 0 0.40945)
(9.70126 0 0.497212)
(9.59323 0 0.589847)
(9.46888 0 0.688407)
(9.32795 0 0.793954)
(9.17014 0 0.907548)
(8.99501 0 1.03024)
(8.80209 0 1.16307)
(8.59079 0 1.30704)
(8.36048 0 1.46313)
(8.11041 0 1.6322)
(7.83976 0 1.81492)
(7.54755 0 2.01172)
(7.2326 0 2.22258)
(6.89341 0 2.4468)
(6.52806 0 2.68275)
(6.13397 0 2.92741)
(5.70771 0 3.17581)
(5.24481 0 3.42039)
(4.73961 0 3.65019)
(4.1853 0 3.8502)
(3.57458 0 4.00081)
(2.89935 0 4.07778)
(2.16197 0 4.05221)
(1.31603 0 3.90148)
(0.583176 0 3.53991)
(9.99326 0 0.0909288)
(9.97072 0 0.18041)
(9.93046 0 0.269669)
(9.87362 0 0.360244)
(9.80118 0 0.453651)
(9.71344 0 0.551216)
(9.61038 0 0.65412)
(9.49188 0 0.763508)
(9.35776 0 0.880521)
(9.20773 0 1.0063)
(9.04145 0 1.14198)
(8.85847 0 1.2887)
(8.65825 0 1.44756)
(8.44019 0 1.61963)
(8.20354 0 1.80592)
(7.94741 0 2.00727)
(7.67073 0 2.22431)
(7.37209 0 2.45735)
(7.0497 0 2.70613)
(6.70116 0 2.96964)
(6.32322 0 3.24573)
(5.91149 0 3.53059)
(5.46018 0 3.8181)
(4.96181 0 4.099)
(4.40719 0 4.35983)
(3.78618 0 4.58201)
(3.08735 0 4.74093)
(2.31252 0 4.80424)
(1.41051 0 4.74081)
(0.614247 0 4.44161)
(9.99352 0 0.0989926)
(9.97191 0 0.19658)
(9.9334 0 0.294197)
(9.87924 0 0.393419)
(9.8104 0 0.49576)
(9.72717 0 0.602594)
(9.62953 0 0.715191)
(9.51742 0 0.834774)
(9.39068 0 0.96256)
(9.24913 0 1.09977)
(9.09245 0 1.24762)
(8.92027 0 1.40733)
(8.73212 0 1.58011)
(8.5274 0 1.76715)
(8.30541 0 1.96962)
(8.06522 0 2.18855)
(7.80567 0 2.42487)
(7.52523 0 2.67925)
(7.22182 0 2.95201)
(6.89265 0 3.24291)
(6.53389 0 3.55088)
(6.1403 0 3.87357)
(5.70485 0 4.20676)
(5.21824 0 4.54341)
(4.66872 0 4.87242)
(4.04258 0 5.17688)
(3.3234 0 5.43214)
(2.5095 0 5.6017)
(1.54168 0 5.64314)
(0.663966 0 5.41762)
(9.99384 0 0.106704)
(9.9733 0 0.212001)
(9.9368 0 0.317504)
(9.88558 0 0.424858)
(9.82064 0 0.535592)
(9.74226 0 0.651126)
(9.65045 0 0.772796)
(9.54518 0 0.901897)
(9.42638 0 1.03972)
(9.2939 0 1.18754)
(9.14753 0 1.34666)
(8.98694 0 1.51839)
(8.81174 0 1.70403)
(8.62142 0 1.90492)
(8.4153 0 2.12237)
(8.19249 0 2.35767)
(7.95183 0 2.61205)
(7.69172 0 2.88664)
(7.40996 0 3.18239)
(7.10352 0 3.49998)
(6.7682 0 3.83959)
(6.39815 0 4.20065)
(5.98532 0 4.58128)
(5.5188 0 4.97739)
(4.98404 0 5.38133)
(4.36289 0 5.77948)
(3.6315 0 6.14896)
(2.77974 0 6.45035)
(1.73316 0 6.62805)
(0.744692 0 6.50252)
(9.9942 0 0.114006)
(9.97487 0 0.226575)
(9.94056 0 0.339474)
(9.89252 0 0.454425)
(9.83174 0 0.572986)
(9.75851 0 0.696614)
(9.67289 0 0.826701)
(9.57489 0 0.964604)
(9.46449 0 1.11167)
(9.34163 0 1.26924)
(9.20616 0 1.43868)
(9.05787 0 1.62137)
(8.89644 0 1.81874)
(8.72147 0 2.03222)
(8.53236 0 2.2633)
(8.32834 0 2.51352)
(8.10831 0 2.78445)
(7.87075 0 3.07768)
(7.61353 0 3.39485)
(7.33362 0 3.73763)
(7.02676 0 4.1076)
(6.68694 0 4.50618)
(6.30562 0 4.93425)
(5.87074 0 5.39156)
(5.36536 0 5.87541)
(4.7664 0 6.37821)
(4.04016 0 6.88305)
(3.1609 0 7.35313)
(2.02429 0 7.72259)
(0.880499 0 7.75627)
(9.99459 0 0.120853)
(9.97657 0 0.240224)
(9.94461 0 0.360008)
(9.89996 0 0.482001)
(9.84356 0 0.607798)
(9.77576 0 0.738886)
(9.69663 0 0.876704)
(9.60624 0 1.02266)
(9.50465 0 1.17813)
(9.39186 0 1.34454)
(9.26783 0 1.52328)
(9.13243 0 1.71582)
(8.98548 0 1.92366)
(8.82669 0 2.14835)
(8.65562 0 2.39156)
(8.47166 0 2.65502)
(8.2739 0 2.94064)
(8.06103 0 3.25047)
(7.83119 0 3.58684)
(7.58168 0 3.95235)
(7.30862 0 4.35003)
(7.00642 0 4.78336)
(6.6669 0 5.2563)
(6.27807 0 5.77314)
(5.82193 0 6.33783)
(5.27183 0 6.95245)
(4.58375 0 7.61351)
(3.70912 0 8.30052)
(2.48743 0 8.95742)
(1.12405 0 9.29199)
(9.99501 0 0.12721)
(9.97838 0 0.252884)
(9.94891 0 0.379021)
(9.9078 0 0.507487)
(9.85599 0 0.639909)
(9.79382 0 0.777804)
(9.72143 0 0.922643)
(9.63895 0 1.07587)
(9.54648 0 1.23891)
(9.44414 0 1.41319)
(9.33197 0 1.60019)
(9.20996 0 1.80139)
(9.07807 0 2.01838)
(8.93616 0 2.25282)
(8.78399 0 2.50647)
(8.62116 0 2.78128)
(8.44707 0 3.07941)
(8.26077 0 3.40334)
(8.06088 0 3.75595)
(7.84534 0 4.14071)
(7.61114 0 4.56191)
(7.35384 0 5.02497)
(7.0668 0 5.53682)
(6.73993 0 6.10644)
(6.35729 0 6.74552)
(5.89324 0 7.46911)
(5.29972 0 8.29633)
(4.50759 0 9.24763)
(3.26754 0 10.3408)
(1.60418 0 11.3571)
(9.99545 0 0.13305)
(9.98026 0 0.264503)
(9.95339 0 0.396441)
(9.91596 0 0.530788)
(9.86889 0 0.669199)
(9.81254 0 0.813214)
(9.74709 0 0.964325)
(9.67273 0 1.124)
(9.58965 0 1.29369)
(9.49804 0 1.47486)
(9.39805 0 1.66898)
(9.2898 0 1.87761)
(9.1734 0 2.10234)
(9.04889 0 2.34491)
(8.91626 0 2.60718)
(8.7754 0 2.89122)
(8.62607 0 3.1994)
(8.46781 0 3.53447)
(8.2999 0 3.89974)
(8.1212 0 4.2993)
(7.92999 0 4.73838)
(7.72372 0 5.2238)
(7.49854 0 5.7648)
(7.24854 0 6.37418)
(6.96422 0 7.07037)
(6.63004 0 7.88118)
(6.21315 0 8.85198)
(5.66412 0 10.0657)
(4.68798 0 11.73)
(2.68572 0 14.5884)
(0.12049 0 -0.119603)
(0.28282 0 -0.108687)
(0.448278 0 -0.0851401)
(0.585726 0 -0.0622539)
(0.68944 0 -0.042729)
(0.763028 0 -0.0266177)
(0.811424 0 -0.0134865)
(0.838822 0 -0.00293974)
(0.848822 0 0.00520562)
(0.844845 0 0.0105702)
(0.830066 0 0.0138369)
(0.807655 0 0.0156308)
(0.780333 0 0.0162841)
(0.750334 0 0.0160313)
(0.719568 0 0.0150719)
(0.689678 0 0.0136041)
(0.66199 0 0.011837)
(0.637437 0 0.00997278)
(0.61653 0 0.00818728)
(0.599372 0 0.00661264)
(0.585723 0 0.00532602)
(0.575092 0 0.00435831)
(0.56682 0 0.00369795)
(0.560155 0 0.00328382)
(0.554361 0 0.0030458)
(0.548817 0 0.00294016)
(0.543089 0 0.00289837)
(0.536965 0 0.00285907)
(0.530439 0 0.00274273)
(0.52275 0 0.00216079)
(0.104217 0 -0.281498)
(0.263523 0 -0.26366)
(0.419222 0 -0.213626)
(0.551853 0 -0.163675)
(0.65734 0 -0.120625)
(0.73909 0 -0.0847689)
(0.8013 0 -0.0552223)
(0.847411 0 -0.0311321)
(0.880089 0 -0.0118655)
(0.901594 0 0.00305599)
(0.912839 0 0.0139013)
(0.91569 0 0.0212207)
(0.912656 0 0.0255603)
(0.905907 0 0.0274282)
(0.897333 0 0.0272687)
(0.88857 0 0.0255255)
(0.88093 0 0.022665)
(0.875333 0 0.0191601)
(0.872276 0 0.0154531)
(0.871862 0 0.0119187)
(0.873853 0 0.00882267)
(0.877754 0 0.00632068)
(0.882888 0 0.00451747)
(0.888496 0 0.00345999)
(0.893942 0 0.00306879)
(0.898785 0 0.00313397)
(0.902771 0 0.00339292)
(0.905841 0 0.00369535)
(0.908011 0 0.00388504)
(0.909741 0 0.00349531)
(0.0836591 0 -0.446438)
(0.222239 0 -0.417566)
(0.348048 0 -0.34115)
(0.455258 0 -0.265578)
(0.540744 0 -0.200782)
(0.60798 0 -0.146902)
(0.660214 0 -0.102615)
(0.700015 0 -0.0666796)
(0.729635 0 -0.0380633)
(0.751079 0 -0.0155612)
(0.768029 0 0.00183411)
(0.779604 0 0.0143259)
(0.786802 0 0.0222839)
(0.791075 0 0.0263326)
(0.793602 0 0.0271001)
(0.79544 0 0.0252894)
(0.797453 0 0.0216504)
(0.800226 0 0.0169424)
(0.804033 0 0.0118876)
(0.808844 0 0.00710366)
(0.814368 0 0.00305023)
(0.819886 0 5.78676e-05)
(0.824783 0 -0.00171789)
(0.829253 0 -0.00242866)
(0.833452 0 -0.00228026)
(0.837526 0 -0.00154657)
(0.841645 0 -0.000635859)
(0.845935 0 0.000246843)
(0.85019 0 0.00103598)
(0.854273 0 0.00167163)
(0.0636547 0 -0.578753)
(0.17551 0 -0.533705)
(0.264446 0 -0.433634)
(0.341247 0 -0.338055)
(0.401515 0 -0.257287)
(0.449523 0 -0.190355)
(0.487383 0 -0.135329)
(0.516615 0 -0.0905651)
(0.53858 0 -0.0549734)
(0.554804 0 -0.0278068)
(0.566627 0 -0.00773262)
(0.578349 0 0.00675778)
(0.586655 0 0.0167065)
(0.592789 0 0.0222312)
(0.597438 0 0.0238299)
(0.601143 0 0.0223896)
(0.604286 0 0.0188584)
(0.607081 0 0.0141755)
(0.609593 0 0.00923865)
(0.611762 0 0.00482933)
(0.613521 0 0.00158393)
(0.614514 0 -0.000332702)
(0.614823 0 -0.0013608)
(0.6143 0 -0.00181544)
(0.613048 0 -0.00186701)
(0.611203 0 -0.00175745)
(0.608844 0 -0.00150174)
(0.605991 0 -0.00111659)
(0.602829 0 -0.000533551)
(0.599378 0 0.000607606)
(0.0429001 0 -0.680046)
(0.122575 0 -0.614002)
(0.168964 0 -0.493705)
(0.212769 0 -0.38467)
(0.244319 0 -0.294069)
(0.270027 0 -0.219336)
(0.290614 0 -0.157962)
(0.306819 0 -0.107887)
(0.319167 0 -0.0680395)
(0.328338 0 -0.0378426)
(0.335062 0 -0.0154716)
(0.341712 0 0.00132386)
(0.349076 0 0.0123506)
(0.353352 0 0.0187151)
(0.355234 0 0.0209595)
(0.355246 0 0.0200953)
(0.353551 0 0.0170383)
(0.350263 0 0.0127152)
(0.345533 0 0.0080665)
(0.339532 0 0.00382712)
(0.3325 0 0.000615823)
(0.325361 0 -0.00128258)
(0.317245 0 -0.00189508)
(0.307115 0 -0.00130879)
(0.294412 0 8.2292e-05)
(0.279317 0 0.00159131)
(0.262731 0 0.00281925)
(0.245698 0 0.00379143)
(0.229198 0 0.00478038)
(0.212711 0 0.00521344)
(0.0208315 0 -0.744869)
(0.0629421 0 -0.653993)
(0.0626346 0 -0.517049)
(0.071279 0 -0.400773)
(0.0707296 0 -0.30544)
(0.0705636 0 -0.227557)
(0.0699439 0 -0.164023)
(0.0695081 0 -0.112279)
(0.0693364 0 -0.0711024)
(0.0696574 0 -0.0408903)
(0.0696642 0 -0.0217879)
(0.0710456 0 -0.00714031)
(0.0670081 0 0.00738788)
(0.0612386 0 0.0174114)
(0.0522948 0 0.0223574)
(0.04017 0 0.0238623)
(0.0246035 0 0.0231181)
(0.00498359 0 0.0208404)
(-0.017354 0 0.0176835)
(-0.0414904 0 0.014383)
(-0.0666365 0 0.0115826)
(-0.0913261 0 0.0100587)
(-0.114383 0 0.0100564)
(-0.134788 0 0.0110651)
(-0.151783 0 0.0125318)
(-0.165647 0 0.0140321)
(-0.177822 0 0.014863)
(-0.190303 0 0.0148572)
(-0.203156 0 0.013831)
(-0.213764 0 0.0112431)
(-0.0040908 0 -0.766323)
(-0.00495113 0 -0.648133)
(-0.053128 0 -0.499443)
(-0.0836114 0 -0.382038)
(-0.11917 0 -0.287346)
(-0.150154 0 -0.211817)
(-0.17756 0 -0.151678)
(-0.200664 0 -0.10368)
(-0.219965 0 -0.0651209)
(-0.238463 0 -0.0343019)
(-0.262516 0 -0.0106282)
(-0.294855 0 0.00721186)
(-0.312016 0 0.0205119)
(-0.32678 0 0.0293151)
(-0.342341 0 0.0347537)
(-0.359035 0 0.0375664)
(-0.377091 0 0.0382583)
(-0.396528 0 0.0371654)
(-0.417121 0 0.0347233)
(-0.438629 0 0.0315587)
(-0.460609 0 0.0282514)
(-0.482374 0 0.0252109)
(-0.50315 0 0.0226978)
(-0.52198 0 0.0207831)
(-0.537868 0 0.0194975)
(-0.550523 0 0.0188503)
(-0.56069 0 0.018569)
(-0.569668 0 0.0181381)
(-0.577964 0 0.0168728)
(-0.583704 0 0.0148494)
(-0.0350571 0 -0.736976)
(-0.083013 0 -0.594107)
(-0.177032 0 -0.443187)
(-0.251997 0 -0.328764)
(-0.325572 0 -0.239302)
(-0.391799 0 -0.169218)
(-0.451019 0 -0.113889)
(-0.502894 0 -0.0695282)
(-0.54768 0 -0.033454)
(-0.587096 0 -0.00527345)
(-0.619036 0 0.0140282)
(-0.64014 0 0.0255676)
(-0.6606 0 0.0338499)
(-0.678872 0 0.0409336)
(-0.69598 0 0.0460374)
(-0.712699 0 0.048887)
(-0.729445 0 0.0496323)
(-0.746401 0 0.0485524)
(-0.763686 0 0.0461187)
(-0.781426 0 0.042963)
(-0.799663 0 0.0396255)
(-0.818168 0 0.0363853)
(-0.836339 0 0.0332689)
(-0.853194 0 0.0302685)
(-0.867641 0 0.0275213)
(-0.879061 0 0.0252437)
(-0.887774 0 0.0234902)
(-0.894829 0 0.0219776)
(-0.900842 0 0.0202098)
(-0.904418 0 0.01845)
(-0.0723658 0 -0.654804)
(-0.16838 0 -0.491561)
(-0.312052 0 -0.343932)
(-0.432789 0 -0.237981)
(-0.543302 0 -0.16029)
(-0.639011 0 -0.101971)
(-0.720396 0 -0.0572716)
(-0.788488 0 -0.0232119)
(-0.84401 0 0.00224906)
(-0.883512 0 0.020168)
(-0.913213 0 0.032762)
(-0.938952 0 0.0418919)
(-0.961291 0 0.0487622)
(-0.980836 0 0.0540974)
(-0.998417 0 0.0579746)
(-1.01483 0 0.0601633)
(-1.03059 0 0.0605127)
(-1.04592 0 0.0591393)
(-1.06102 0 0.0565068)
(-1.07622 0 0.0532575)
(-1.09184 0 0.0498627)
(-1.10798 0 0.0464055)
(-1.12419 0 0.0426703)
(-1.13945 0 0.0385089)
(-1.15256 0 0.0341632)
(-1.16279 0 0.0302015)
(-1.17035 0 0.0270724)
(-1.17622 0 0.0247186)
(-1.18097 0 0.0227639)
(-1.18351 0 0.0213772)
(-0.12006 0 -0.51496)
(-0.269735 0 -0.339767)
(-0.465802 0 -0.20572)
(-0.629918 0 -0.115856)
(-0.773276 0 -0.0544902)
(-0.891034 0 -0.0140663)
(-0.980673 0 0.011348)
(-1.04806 0 0.0283462)
(-1.0979 0 0.039992)
(-1.1382 0 0.0487634)
(-1.17114 0 0.0555007)
(-1.19865 0 0.0605652)
(-1.22184 0 0.0643705)
(-1.24163 0 0.0673774)
(-1.25908 0 0.0696589)
(-1.27508 0 0.0708578)
(-1.29017 0 0.0705282)
(-1.30445 0 0.0685968)
(-1.31806 0 0.0655526)
(-1.3314 0 0.0621451)
(-1.3451 0 0.0588268)
(-1.35955 0 0.0554375)
(-1.37444 0 0.0513998)
(-1.38867 0 0.0463004)
(-1.40082 0 0.0404213)
(-1.41001 0 0.0347208)
(-1.41646 0 0.0301578)
(-1.42128 0 0.0269886)
(-1.42506 0 0.0248921)
(-1.42695 0 0.0237806)
(-0.189047 0 -0.317809)
(-0.416275 0 -0.13785)
(-0.6793 0 -0.00801132)
(-0.866536 0 0.0454381)
(-1.00946 0 0.0662854)
(-1.11721 0 0.072929)
(-1.20215 0 0.0753607)
(-1.26898 0 0.0764204)
(-1.32181 0 0.0772611)
(-1.36393 0 0.0782308)
(-1.39803 0 0.0791815)
(-1.42603 0 0.0798186)
(-1.44912 0 0.0801255)
(-1.46838 0 0.0804917)
(-1.48514 0 0.0810468)
(-1.50055 0 0.0812155)
(-1.5151 0 0.0801163)
(-1.52864 0 0.0774048)
(-1.54105 0 0.073668)
(-1.5528 0 0.0699341)
(-1.56487 0 0.0667455)
(-1.57806 0 0.0636576)
(-1.59219 0 0.0595789)
(-1.60596 0 0.0536777)
(-1.61753 0 0.0462282)
(-1.62578 0 0.0386781)
(-1.63104 0 0.0326569)
(-1.6347 0 0.0287806)
(-1.63756 0 0.0266313)
(-1.63895 0 0.0257317)
(-0.297485 0 0.032386)
(-0.58174 0 0.188045)
(-0.855518 0 0.206442)
(-1.05365 0 0.197765)
(-1.20411 0 0.178671)
(-1.31815 0 0.158254)
(-1.40519 0 0.140698)
(-1.4723 0 0.126576)
(-1.52443 0 0.115645)
(-1.56541 0 0.107947)
(-1.59847 0 0.102818)
(-1.62557 0 0.0988962)
(-1.64759 0 0.0954513)
(-1.66548 0 0.0929549)
(-1.68089 0 0.0918158)
(-1.69542 0 0.0911716)
(-1.70953 0 0.0894198)
(-1.72255 0 0.0857637)
(-1.73387 0 0.081002)
(-1.74399 0 0.0767381)
(-1.75443 0 0.073789)
(-1.76658 0 0.0713477)
(-1.78044 0 0.067567)
(-1.79433 0 0.0609711)
(-1.80574 0 0.0517625)
(-1.81309 0 0.0420552)
(-1.81692 0 0.0344455)
(-1.81917 0 0.0299989)
(-1.82103 0 0.027951)
(-1.82199 0 0.0272365)
(-0.376154 0 0.48378)
(-0.715088 0 0.51684)
(-1.03958 0 0.442331)
(-1.25523 0 0.364775)
(-1.40834 0 0.298992)
(-1.51838 0 0.244468)
(-1.59941 0 0.203726)
(-1.66109 0 0.174104)
(-1.70842 0 0.151655)
(-1.74506 0 0.1356)
(-1.77482 0 0.125)
(-1.79979 0 0.116977)
(-1.81993 0 0.109634)
(-1.83551 0 0.103958)
(-1.8487 0 0.101271)
(-1.86196 0 0.100386)
(-1.87578 0 0.0984102)
(-1.88858 0 0.0937068)
(-1.89881 0 0.0874628)
(-1.90696 0 0.0823787)
(-1.91543 0 0.0798752)
(-1.92658 0 0.0786377)
(-1.94066 0 0.075668)
(-1.95536 0 0.0685125)
(-1.96709 0 0.0572026)
(-1.97352 0 0.0447816)
(-1.97545 0 0.035307)
(-1.97586 0 0.0304917)
(-1.97663 0 0.028838)
(-1.97722 0 0.0283222)
(-0.501098 0 1.00669)
(-0.933356 0 0.924665)
(-1.29583 0 0.705963)
(-1.49698 0 0.529274)
(-1.63019 0 0.410841)
(-1.72201 0 0.318743)
(-1.7861 0 0.256996)
(-1.83563 0 0.216677)
(-1.87428 0 0.184474)
(-1.9034 0 0.159801)
(-1.92763 0 0.144376)
(-1.94964 0 0.133283)
(-1.96748 0 0.122146)
(-1.9797 0 0.112983)
(-1.9893 0 0.109192)
(-2.00067 0 0.109285)
(-2.01454 0 0.107935)
(-2.02769 0 0.101965)
(-2.03682 0 0.0932993)
(-2.04231 0 0.0867252)
(-2.04807 0 0.0848815)
(-2.05805 0 0.0856634)
(-2.07289 0 0.08425)
(-2.08931 0 0.0767181)
(-2.102 0 0.0627634)
(-2.10737 0 0.0467116)
(-2.10664 0 0.0348686)
(-2.10451 0 0.0300152)
(-2.10406 0 0.0293206)
(-2.10441 0 0.0290901)
(-0.739305 0 2.04185)
(-1.27733 0 1.60601)
(-1.66539 0 1.00314)
(-1.7974 0 0.614612)
(-1.87256 0 0.480958)
(-1.9282 0 0.372798)
(-1.95981 0 0.301059)
(-1.99144 0 0.255117)
(-2.02137 0 0.209003)
(-2.04071 0 0.171603)
(-2.05615 0 0.155184)
(-2.0743 0 0.146866)
(-2.08994 0 0.133985)
(-2.09755 0 0.120228)
(-2.10149 0 0.114545)
(-2.11009 0 0.11683)
(-2.12491 0 0.117117)
(-2.13962 0 0.109427)
(-2.14769 0 0.09691)
(-2.14923 0 0.0879995)
(-2.1508 0 0.0875283)
(-2.15911 0 0.0920097)
(-2.17535 0 0.0935495)
(-2.19468 0 0.0860708)
(-2.20919 0 0.0687353)
(-2.21326 0 0.0476175)
(-2.20859 0 0.0325171)
(-2.20278 0 0.0281695)
(-2.20099 0 0.0295048)
(-2.20134 0 0.0298268)
(9.9959 0 0.138445)
(9.98225 0 0.275237)
(9.95811 0 0.412523)
(9.92454 0 0.552271)
(9.88243 0 0.696158)
(9.83217 0 0.845739)
(9.774 0 1.00252)
(9.70816 0 1.16797)
(9.63494 0 1.34356)
(9.5546 0 1.53076)
(9.46742 0 1.73105)
(9.37366 0 1.94599)
(9.27359 0 2.17719)
(9.16746 0 2.42642)
(9.05552 0 2.69557)
(8.93799 0 2.98679)
(8.81506 0 3.30252)
(8.68687 0 3.64567)
(8.55348 0 4.01974)
(8.41489 0 4.42911)
(8.27103 0 4.87943)
(8.12178 0 5.37815)
(7.96707 0 5.93546)
(7.80715 0 6.5657)
(7.64321 0 7.28993)
(7.48019 0 8.14075)
(7.33125 0 9.17209)
(7.28626 0 10.4774)
(7.74232 0 12.2015)
(7.91998 0 14.919)
(9.99638 0 0.143404)
(9.98434 0 0.285091)
(9.96306 0 0.42725)
(9.93352 0 0.571879)
(9.89657 0 0.720672)
(9.85263 0 0.875185)
(9.80198 0 1.03693)
(9.74494 0 1.20737)
(9.68186 0 1.38798)
(9.61312 0 1.58021)
(9.5391 0 1.78553)
(9.46022 0 2.00549)
(9.37692 0 2.24168)
(9.28967 0 2.49584)
(9.19901 0 2.76985)
(9.10549 0 3.06583)
(9.00979 0 3.3862)
(8.91263 0 3.73382)
(8.81495 0 4.11214)
(8.71791 0 4.52542)
(8.62312 0 4.97908)
(8.53293 0 5.48016)
(8.45106 0 6.03797)
(8.38374 0 6.66512)
(8.34213 0 7.37883)
(8.34826 0 8.20254)
(8.4409 0 9.16641)
(8.67584 0 10.3038)
(9.32168 0 11.5596)
(9.80997 0 12.6507)
(9.99688 0 0.147841)
(9.98651 0 0.293902)
(9.96819 0 0.440399)
(9.94283 0 0.589348)
(9.91121 0 0.742443)
(9.87378 0 0.901237)
(9.83087 0 1.06723)
(9.78285 0 1.24187)
(9.73015 0 1.4266)
(9.67326 0 1.62284)
(9.61266 0 1.83204)
(9.54892 0 2.05569)
(9.48266 0 2.29533)
(9.41457 0 2.55263)
(9.34545 0 2.82938)
(9.27622 0 3.1276)
(9.20799 0 3.44955)
(9.14208 0 3.79787)
(9.08018 0 4.17567)
(9.02451 0 4.58673)
(8.97808 0 5.03565)
(8.94517 0 5.52811)
(8.93205 0 6.07109)
(8.94824 0 6.67301)
(9.00823 0 7.34332)
(9.13412 0 8.0907)
(9.35694 0 8.9171)
(9.68619 0 9.81152)
(10.2519 0 10.7228)
(10.9395 0 11.4414)
(9.9974 0 0.151702)
(9.98874 0 0.301563)
(9.97347 0 0.451804)
(9.95239 0 0.604445)
(9.92623 0 0.761172)
(9.89545 0 0.923519)
(9.86043 0 1.09296)
(9.82159 0 1.27092)
(9.77944 0 1.4588)
(9.73454 0 1.65796)
(9.6875 0 1.86981)
(9.63902 0 2.09573)
(9.58987 0 2.3372)
(9.54097 0 2.59576)
(9.49334 0 2.87306)
(9.44824 0 3.1709)
(9.40714 0 3.49129)
(9.37186 0 3.83649)
(9.34472 0 4.20909)
(9.32868 0 4.61207)
(9.32766 0 5.04882)
(9.34697 0 5.52319)
(9.39385 0 6.03933)
(9.47821 0 6.60121)
(9.61325 0 7.21162)
(9.81581 0 7.87026)
(10.1087 0 8.57008)
(10.5006 0 9.29649)
(11.0585 0 10.0394)
(11.8522 0 10.6856)
(9.99792 0 0.154941)
(9.99101 0 0.307981)
(9.97884 0 0.46133)
(9.96212 0 0.616995)
(9.94151 0 0.776639)
(9.91746 0 0.941771)
(9.89041 0 1.11383)
(9.86083 0 1.29418)
(9.82929 0 1.48418)
(9.79643 0 1.68513)
(9.76295 0 1.89833)
(9.72967 0 2.12509)
(9.69751 0 2.36673)
(9.66754 0 2.62463)
(9.64101 0 2.90026)
(9.61942 0 3.19514)
(9.60454 0 3.51092)
(9.59855 0 3.84939)
(9.60415 0 4.21248)
(9.62471 0 4.60221)
(9.66456 0 5.02071)
(9.72923 0 5.47)
(9.8258 0 5.95169)
(9.96322 0 6.46649)
(10.1526 0 7.01333)
(10.4069 0 7.58837)
(10.7437 0 8.18348)
(11.1744 0 8.784)
(11.7222 0 9.37835)
(12.4761 0 9.89161)
(9.99845 0 0.157515)
(9.9933 0 0.31307)
(9.98427 0 0.468851)
(9.97194 0 0.62683)
(9.9569 0 0.788642)
(9.93962 0 0.955753)
(9.92055 0 1.12955)
(9.90023 0 1.31135)
(9.87926 0 1.50242)
(9.85835 0 1.70399)
(9.83828 0 1.91725)
(9.81996 0 2.14337)
(9.80442 0 2.38353)
(9.79288 0 2.63892)
(9.78673 0 2.91073)
(9.78764 0 3.2002)
(9.79756 0 3.50856)
(9.81887 0 3.83707)
(9.85443 0 4.18696)
(9.90773 0 4.55933)
(9.98306 0 4.95511)
(10.0856 0 5.37476)
(10.2218 0 5.81804)
(10.3991 0 6.28348)
(10.6264 0 6.76784)
(10.9134 0 7.26536)
(11.2713 0 7.76681)
(11.7082 0 8.25664)
(12.2248 0 8.71814)
(12.9016 0 9.10975)
(9.99898 0 0.159383)
(9.9956 0 0.316755)
(9.98971 0 0.474252)
(9.98177 0 0.633803)
(9.97229 0 0.797)
(9.96174 0 0.965254)
(9.9506 0 1.13989)
(9.93943 0 1.32216)
(9.92888 0 1.51324)
(9.9197 0 1.71425)
(9.91274 0 1.92627)
(9.90896 0 2.15032)
(9.90949 0 2.3874)
(9.9156 0 2.63848)
(9.9288 0 2.9045)
(9.95083 0 3.18632)
(9.98371 0 3.4848)
(10.0299 0 3.80063)
(10.0921 0 4.13438)
(10.1738 0 4.48636)
(10.279 0 4.85647)
(10.4121 0 5.244)
(10.5785 0 5.64739)
(10.7843 0 6.06383)
(11.0357 0 6.48883)
(11.3392 0 6.91571)
(11.701 0 7.3351)
(12.1251 0 7.73358)
(12.6057 0 8.09656)
(13.2119 0 8.40348)
(9.99951 0 0.160514)
(9.99789 0 0.318968)
(9.9951 0 0.477436)
(9.99151 0 0.63779)
(9.98753 0 0.801562)
(9.98362 0 0.970103)
(9.98028 0 1.14467)
(9.97808 0 1.32642)
(9.97769 0 1.51644)
(9.9799 0 1.71573)
(9.98559 0 1.92525)
(9.99577 0 2.14584)
(10.0116 0 2.37833)
(10.0344 0 2.62345)
(10.0656 0 2.88186)
(10.1071 0 3.1541)
(10.1608 0 3.44061)
(10.229 0 3.74161)
(10.3145 0 4.05708)
(10.4201 0 4.38666)
(10.5495 0 4.72948)
(10.7063 0 5.08402)
(10.8947 0 5.44789)
(11.1191 0 5.81758)
(11.3837 0 6.18817)
(11.6924 0 6.55311)
(12.048 0 6.90411)
(12.452 0 7.23083)
(12.8968 0 7.52211)
(13.4406 0 7.7666)
(10 0 0.160878)
(10.0001 0 0.319655)
(10.0004 0 0.478325)
(10.0011 0 0.638688)
(10.0025 0 0.80221)
(10.0051 0 0.97017)
(10.0093 0 1.14374)
(10.0158 0 1.32399)
(10.0252 0 1.5119)
(10.0384 0 1.70835)
(10.0561 0 1.91414)
(10.0795 0 2.12998)
(10.1097 0 2.35648)
(10.1479 0 2.59415)
(10.1957 0 2.84338)
(10.2548 0 3.10442)
(10.327 0 3.37732)
(10.4144 0 3.6619)
(10.5194 0 3.95767)
(10.6447 0 4.26376)
(10.793 0 4.57878)
(10.9673 0 4.9007)
(11.1706 0 5.22674)
(11.406 0 5.55319)
(11.6759 0 5.87528)
(11.9823 0 6.18717)
(12.326 0 6.48196)
(12.7068 0 6.75182)
(13.117 0 6.98837)
(13.6054 0 7.18475)
(10.0005 0 0.160455)
(10.0023 0 0.318773)
(10.0056 0 0.476857)
(10.0104 0 0.636424)
(10.0171 0 0.798862)
(10.0259 0 0.965371)
(10.0375 0 1.13703)
(10.0523 0 1.31482)
(10.0711 0 1.49959)
(10.0946 0 1.69212)
(10.1237 0 1.89305)
(10.1594 0 2.10293)
(10.2028 0 2.32219)
(10.2552 0 2.55112)
(10.3179 0 2.78987)
(10.3925 0 3.03841)
(10.4808 0 3.29648)
(10.5844 0 3.56359)
(10.7056 0 3.8389)
(10.8463 0 4.12118)
(11.0089 0 4.40873)
(11.1954 0 4.6993)
(11.408 0 4.99001)
(11.6484 0 5.27727)
(11.918 0 5.5568)
(12.2173 0 5.82359)
(12.546 0 6.07212)
(12.9027 0 6.29647)
(13.2803 0 6.49059)
(13.7207 0 6.65029)
(10.001 0 0.159229)
(10.0044 0 0.316294)
(10.0106 0 0.472994)
(10.0194 0 0.630953)
(10.0311 0 0.791472)
(10.0459 0 0.955666)
(10.0645 0 1.12452)
(10.0872 0 1.29891)
(10.1148 0 1.47958)
(10.148 0 1.66717)
(10.1877 0 1.86219)
(10.2347 0 2.06504)
(10.2902 0 2.27596)
(10.3553 0 2.49506)
(10.4312 0 2.72227)
(10.5193 0 2.95735)
(10.6212 0 3.1998)
(10.7383 0 3.44887)
(10.8723 0 3.70348)
(11.0248 0 3.96223)
(11.1975 0 4.22327)
(11.3919 0 4.48431)
(11.6091 0 4.74259)
(11.8502 0 4.99484)
(12.1155 0 5.23734)
(12.4048 0 5.46598)
(12.7169 0 5.67643)
(13.05 0 5.86432)
(13.3979 0 6.02541)
(13.7971 0 6.15717)
(10.0015 0 0.157192)
(10.0065 0 0.312203)
(10.0154 0 0.466717)
(10.028 0 0.622257)
(10.0445 0 0.780032)
(10.065 0 0.941065)
(10.0901 0 1.10624)
(10.1203 0 1.27634)
(10.1561 0 1.45199)
(10.1983 0 1.63371)
(10.2476 0 1.82188)
(10.305 0 2.01675)
(10.3712 0 2.21841)
(10.4475 0 2.4268)
(10.5348 0 2.6417)
(10.6345 0 2.86266)
(10.7476 0 3.08903)
(10.8754 0 3.31989)
(11.0193 0 3.55404)
(11.1804 0 3.78998)
(11.3598 0 4.02587)
(11.5584 0 4.25952)
(11.7768 0 4.48839)
(12.0154 0 4.70963)
(12.2739 0 4.92012)
(12.5514 0 5.11656)
(12.8466 0 5.29565)
(13.1574 0 5.45421)
(13.4785 0 5.58932)
(13.8423 0 5.69946)
(10.0019 0 0.154344)
(10.0084 0 0.3065)
(10.0199 0 0.45803)
(10.0362 0 0.610349)
(10.0571 0 0.76457)
(10.083 0 0.921622)
(10.1142 0 1.0823)
(10.1513 0 1.24726)
(10.1947 0 1.41705)
(10.245 0 1.59205)
(10.3031 0 1.77253)
(10.3696 0 1.95862)
(10.4454 0 2.15027)
(10.5313 0 2.34729)
(10.6284 0 2.54932)
(10.7375 0 2.75579)
(10.8597 0 2.96593)
(10.9959 0 3.17875)
(11.147 0 3.39299)
(11.3138 0 3.60716)
(11.497 0 3.81951)
(11.697 0 4.02802)
(11.914 0 4.23046)
(12.1478 0 4.4244)
(12.3978 0 4.60729)
(12.6629 0 4.77656)
(12.9416 0 4.92971)
(13.2317 0 5.06447)
(13.5289 0 5.17885)
(13.8621 0 5.27199)
(10.0024 0 0.15069)
(10.0102 0 0.299197)
(10.0241 0 0.446957)
(10.0438 0 0.595269)
(10.0689 0 0.745152)
(10.0997 0 0.897437)
(10.1366 0 1.05282)
(10.18 0 1.21187)
(10.2302 0 1.37502)
(10.288 0 1.54256)
(10.3538 0 1.71464)
(10.4284 0 1.89127)
(10.5124 0 2.07233)
(10.6065 0 2.25751)
(10.7117 0 2.44634)
(10.8285 0 2.63819)
(10.9577 0 2.83222)
(11.1 0 3.02741)
(11.2561 0 3.22253)
(11.4263 0 3.41616)
(11.611 0 3.60668)
(11.8102 0 3.7923)
(12.0238 0 3.97111)
(12.2514 0 4.1411)
(12.492 0 4.30022)
(12.7445 0 4.44649)
(13.0072 0 4.57805)
(13.2784 0 4.69331)
(13.5542 0 4.79093)
(13.861 0 4.87048)
(10.0027 0 0.146243)
(10.0119 0 0.290321)
(10.0281 0 0.43354)
(10.0508 0 0.577085)
(10.0798 0 0.721874)
(10.1152 0 0.868647)
(10.1572 0 1.01801)
(10.2062 0 1.17043)
(10.2627 0 1.32624)
(10.3269 0 1.48566)
(10.3996 0 1.64874)
(10.4811 0 1.81541)
(10.572 0 1.98544)
(10.6731 0 2.15847)
(10.7847 0 2.33397)
(10.9075 0 2.51126)
(11.0419 0 2.68949)
(11.1885 0 2.86766)
(11.3475 0 3.0446)
(11.5192 0 3.21901)
(11.7035 0 3.38943)
(11.9004 0 3.55434)
(12.1093 0 3.7121)
(12.3296 0 3.86108)
(12.5604 0 3.99969)
(12.8004 0 4.1264)
(13.0482 0 4.23988)
(13.3021 0 4.33899)
(13.5589 0 4.42288)
(13.8428 0 4.49137)
(10.0031 0 0.141022)
(10.0134 0 0.27991)
(10.0317 0 0.417842)
(10.0573 0 0.555886)
(10.0898 0 0.694863)
(10.1293 0 0.835423)
(10.1759 0 0.978081)
(10.23 0 1.12322)
(10.2919 0 1.2711)
(10.3619 0 1.42184)
(10.4403 0 1.57543)
(10.5277 0 1.73173)
(10.6245 0 1.89045)
(10.731 0 2.05118)
(10.8477 0 2.21337)
(10.975 0 2.37632)
(11.1131 0 2.53922)
(11.2623 0 2.7011)
(11.4227 0 2.86089)
(11.5943 0 3.01743)
(11.7768 0 3.16945)
(11.97 0 3.31564)
(12.1733 0 3.45467)
(12.3859 0 3.58524)
(12.6068 0 3.70609)
(12.8349 0 3.81609)
(13.0687 0 3.91428)
(13.3069 0 3.99988)
(13.5467 0 4.07236)
(13.8104 0 4.13171)
(10.0034 0 0.13505)
(10.0148 0 0.268012)
(10.035 0 0.399938)
(10.0632 0 0.531782)
(10.0988 0 0.664271)
(10.142 0 0.797966)