/*--------------------------------*- C++ -*----------------------------------*\
  =========                 |
  \\      /  F ield         | OpenFOAM: The Open Source CFD Toolbox
   \\    /   O peration     | Website:  https://openfoam.org
    \\  /    A nd           | Version:  dev
     \\/     M anipulation  |
\*---------------------------------------------------------------------------*/
FoamFile
{
    version     2.0;
    format      ascii;
    class       volScalarField;
    location    "1.8";
    object      p;
}
// * * * * * * * * * * * * * * * * * * * * * * * * * * * * * * * * * * * * * //

dimensions      [0 2 -2 0 0 0 0];

internalField   nonuniform List<scalar> 
2790
(
151.926
151.834
152.102
152.674
153.455
154.414
155.548
156.856
158.334
159.977
161.778
163.73
165.824
168.05
170.391
172.826
175.33
177.868
180.398
182.871
185.227
187.402
189.33
190.948
192.206
193.078
193.513
193.569
193.62
193.832
151.723
151.741
152.034
152.603
153.381
154.336
155.466
156.768
158.239
159.873
161.665
163.607
165.691
167.905
170.235
172.66
175.155
177.688
180.217
182.693
185.059
187.252
189.204
190.85
192.133
193.005
193.401
193.457
193.588
193.872
151.525
151.612
151.924
152.483
153.248
154.191
155.305
156.589
158.039
159.648
161.412
163.322
165.371
167.547
169.836
172.218
174.67
177.16
179.65
182.096
184.444
186.634
188.604
190.292
191.64
192.615
193.207
193.561
193.875
194.173
151.299
151.418
151.743
152.293
153.043
153.969
155.064
156.324
157.745
159.321
161.046
162.912
164.912
167.034
169.262
171.58
173.965
176.387
178.813
181.202
183.507
185.677
187.656
189.394
190.846
191.996
192.863
193.532
194.084
194.602
151.038
151.171
151.504
152.047
152.78
153.685
154.754
155.983
157.367
158.9
160.575
162.386
164.323
166.375
168.527
170.763
173.061
175.395
177.736
180.048
182.291
184.424
186.405
188.193
189.761
191.102
192.23
193.191
194.001
194.746
150.737
150.875
151.211
151.743
152.457
153.336
154.374
155.565
156.904
158.385
160.002
161.746
163.608
165.577
167.639
169.777
171.973
174.201
176.438
178.652
180.813
182.889
184.849
186.668
188.329
189.828
191.173
192.376
193.395
194.311
150.394
150.533
150.865
151.385
152.076
152.925
153.926
155.073
156.36
157.782
159.331
160.998
162.775
164.649
166.607
168.633
170.71
172.815
174.928
177.023
179.077
181.067
182.973
184.781
186.485
188.084
189.576
190.953
192.115
193.161
150.008
150.146
150.471
150.974
151.639
152.454
153.413
154.511
155.74
157.095
158.567
160.149
161.829
163.596
165.438
167.338
169.279
171.244
173.212
175.163
177.08
178.946
180.752
182.493
184.169
185.786
187.339
188.809
190.057
191.206
149.582
149.715
150.03
150.513
151.149
151.927
152.84
153.882
155.048
156.328
157.717
159.203
160.777
162.427
164.139
165.899
167.689
169.493
171.293
173.072
174.815
176.513
178.16
179.759
181.32
182.853
184.359
185.828
187.097
188.334
149.114
149.243
149.544
150.005
150.609
151.346
152.208
153.191
154.287
155.487
156.784
158.168
159.627
161.149
162.72
164.325
165.948
167.572
169.179
170.753
172.282
173.756
175.174
176.541
177.874
179.191
180.51
181.846
183.045
184.347
148.608
148.73
149.016
149.453
150.022
150.714
151.523
152.442
153.463
154.578
155.777
157.05
158.386
159.771
161.19
162.628
164.068
165.49
166.878
168.214
169.483
170.674
171.782
172.811
173.775
174.704
175.633
176.631
177.592
178.908
148.065
148.18
148.449
148.858
149.39
150.036
150.787
151.638
152.581
153.605
154.702
155.859
157.064
158.303
159.561
160.82
162.061
163.264
164.408
165.472
166.436
167.28
167.991
168.558
168.986
169.297
169.541
169.849
170.23
171.401
147.487
147.594
147.844
148.225
148.718
149.314
150.006
150.786
151.646
152.576
153.565
154.601
155.67
156.757
157.845
158.914
159.944
160.911
161.789
162.551
163.167
163.605
163.831
163.809
163.51
162.916
162.044
161.054
160.106
160.609
146.876
146.975
147.206
147.556
148.009
148.553
149.183
149.89
150.665
151.497
152.375
153.286
154.215
155.144
156.056
156.928
157.737
158.454
159.049
159.485
159.72
159.702
159.368
158.642
157.426
155.604
153.048
149.753
145.809
143.771
146.236
146.326
146.537
146.855
147.266
147.757
148.323
148.955
149.643
150.375
151.14
151.923
152.707
153.476
154.207
154.878
155.459
155.92
156.221
156.316
156.149
155.645
154.708
153.202
150.933
147.614
142.784
135.783
125.333
113.11
7.59942
7.52943
7.32957
7.05238
6.74478
6.42648
6.1049
5.78542
5.47364
5.17504
4.89437
4.63423
4.39618
4.18561
4.00816
3.85897
3.73233
3.62505
3.53361
3.44031
3.33106
3.19848
3.03899
2.84922
2.62324
2.35226
2.02377
1.61914
1.10699
0.450586
7.44057
7.36268
7.1807
6.9283
6.64226
6.34083
6.03293
5.72473
5.42213
5.13114
4.85714
4.60248
4.36803
4.16051
3.9839
3.82902
3.70915
3.61489
3.5353
3.45141
3.34691
3.21481
3.05385
2.86214
2.6349
2.36448
2.0391
1.63565
1.11866
0.452297
7.30684
7.22114
7.05008
6.81631
6.54906
6.26305
5.96803
5.67042
5.37611
5.09193
4.82514
4.57608
4.33669
4.13259
3.98513
3.84629
3.71624
3.61632
3.53671
3.45435
3.35242
3.22388
3.06557
2.87437
2.64675
2.37727
2.04735
1.62943
1.10404
0.430087
7.21898
7.12442
6.95954
6.73799
6.48524
6.21141
5.9281
5.64064
5.35387
5.07393
4.81374
4.58442
4.3741
4.15897
3.99127
3.85008
3.7327
3.6363
3.55346
3.4657
3.35876
3.22555
3.06228
2.86567
2.63304
2.35867
2.02254
1.59975
1.06749
0.39738
7.21373
7.10976
6.94883
6.73371
6.48998
6.22176
5.94731
5.66921
5.39354
5.12552
4.87205
4.63533
4.41775
4.22075
4.05164
3.90435
3.78019
3.67436
3.57767
3.4756
3.35608
3.21207
3.03926
2.83407
2.59289
2.30879
1.96376
1.53865
1.01168
0.361606
7.30692
7.1911
7.02586
6.80855
6.56259
6.29773
6.02466
5.74964
5.47772
5.21447
4.96148
4.72211
4.50157
4.30327
4.12876
3.97421
3.83834
3.71677
3.60105
3.47971
3.34274
3.18335
2.99701
2.77994
2.52756
2.2321
1.87939
1.45467
0.93935
0.325646
7.48752
7.35403
7.17294
6.94304
6.68631
6.41435
6.13635
5.85911
5.58589
5.31844
5.06367
4.82483
4.60264
4.39936
4.2159
4.04988
3.89875
3.7581
3.62059
3.4771
3.31932
3.14105
2.93791
2.70621
2.44104
2.13449
1.77616
1.35448
0.855993
0.289957
7.70633
7.54753
7.34142
7.09149
6.81959
6.53761
6.25473
5.97189
5.69575
5.42953
5.17474
4.93412
4.7085
4.49874
4.30489
4.12514
3.95671
3.79533
3.63476
3.46765
3.28715
3.08784
2.86573
2.61749
2.33859
2.02177
1.66035
1.24383
0.766612
0.254656
7.89657
7.7108
7.48111
7.21935
6.937
6.64806
6.35952
6.07683
5.80116
5.53551
5.28117
5.03925
4.8101
4.59373
4.38949
4.19566
4.00953
3.82722
3.6435
3.45245
3.24847
3.02698
2.78458
2.51863
2.2257
1.90027
1.53685
1.12727
0.674755
0.219676
8.03334
7.83211
7.59075
7.31285
7.02255
6.72986
6.44059
6.15947
5.88757
5.62574
5.37426
5.13313
4.90197
4.68014
4.46658
4.25956
4.05656
3.85417
3.64811
3.43361
3.20619
2.96207
2.6986
2.4142
2.1071
1.77325
1.40922
1.00808
0.582486
0.185014
8.09999
7.88535
7.6291
7.34153
7.04873
6.76034
6.48
6.20896
5.94711
5.69414
5.44951
5.21239
4.98175
4.75657
4.53556
4.31705
4.09878
3.87786
3.65081
3.41387
3.1635
2.89674
2.61172
2.30813
1.98642
1.64503
1.2803
0.888305
0.490745
0.150653
8.03286
7.79963
7.54432
7.26991
6.99633
6.72988
6.4721
6.22177
5.97771
5.73947
5.50633
5.27694
5.04987
4.82389
4.59775
4.36992
4.13842
3.90086
3.65448
3.39636
3.12378
2.83453
2.52753
2.20383
1.86652
1.51694
1.15155
0.768988
0.399728
0.116466
7.77322
7.53179
7.31236
7.08824
6.8633
6.64031
6.42093
6.2023
5.98323
5.76497
5.54762
5.32957
5.10901
4.8848
4.65596
4.42116
4.17866
3.92651
3.66254
3.38451
3.09042
2.7788
2.44924
2.10411
1.74945
1.39012
1.02339
0.650257
0.309035
0.0821858
7.25131
7.02035
6.91317
6.80586
6.66564
6.5066
6.34057
6.16272
5.97277
5.77749
5.57913
5.37535
5.16367
4.9434
4.71414
4.47472
4.22346
3.95868
3.6787
3.38184
3.0667
2.73251
2.37949
2.01103
1.63623
1.26445
0.895506
0.531561
0.217824
0.0473873
6.33307
6.1372
6.32555
6.46489
6.44241
6.35528
6.2537
6.12207
5.95882
5.78571
5.60817
5.42078
5.21933
5.00439
4.77669
4.5349
4.27703
4.00146
3.70687
3.39196
3.05577
2.69827
2.32037
1.92602
1.52721
1.13945
0.76688
0.41145
0.124909
0.0113403
145.555
145.636
145.826
146.111
146.478
146.914
147.414
147.968
148.566
149.195
149.843
150.494
151.131
151.734
152.281
152.744
153.092
153.289
153.288
153.034
152.455
151.455
149.901
147.6
144.253
139.367
132.02
120.298
98.1685
38.3568
144.827
144.898
145.065
145.316
145.636
146.016
146.447
146.92
147.424
147.947
148.474
148.99
149.475
149.909
150.266
150.518
150.629
150.558
150.254
149.652
148.668
147.188
145.056
142.04
137.784
131.706
122.776
109.269
89.8356
61.5742
144.055
144.117
144.26
144.475
144.748
145.069
145.429
145.82
146.229
146.643
147.047
147.425
147.757
148.02
148.187
148.227
148.104
147.77
147.172
146.238
144.878
142.972
140.355
136.8
131.983
125.452
116.624
104.873
90.7733
74.3934
143.243
143.295
143.414
143.592
143.816
144.077
144.366
144.672
144.984
145.288
145.569
145.81
145.988
146.081
146.061
145.895
145.544
144.96
144.086
142.85
141.161
138.903
135.923
132.029
126.974
120.471
112.228
101.924
89.5081
74.5547
142.391
142.432
142.527
142.668
142.843
143.043
143.259
143.48
143.696
143.89
144.049
144.153
144.18
144.108
143.906
143.542
142.976
142.16
141.038
139.538
137.577
135.048
131.823
127.748
122.645
116.317
108.568
99.162
87.936
75.1004
141.502
141.533
141.603
141.706
141.832
141.97
142.114
142.251
142.37
142.456
142.494
142.465
142.346
142.114
141.74
141.19
140.426
139.401
138.062
136.342
134.167
131.445
128.073
123.933
118.896
112.831
105.617
97.1579
87.4493
76.9044
140.579
140.599
140.645
140.71
140.786
140.864
140.935
140.989
141.014
140.994
140.914
140.756
140.498
140.115
139.579
138.859
137.917
136.709
135.186
133.291
130.958
128.113
124.675
120.559
115.678
109.954
103.337
95.8162
87.4375
78.5355
139.624
139.634
139.655
139.683
139.71
139.728
139.729
139.702
139.634
139.512
139.319
139.038
138.648
138.124
137.441
136.567
135.469
134.106
132.435
130.406
127.966
125.057
121.619
117.593
112.926
107.581
101.544
94.8364
87.509
79.832
138.642
138.641
138.638
138.629
138.609
138.569
138.501
138.394
138.238
138.018
137.718
137.322
136.809
136.157
135.34
134.331
133.099
131.608
129.822
127.699
125.197
122.272
118.883
114.991
110.569
105.602
100.097
94.0891
87.6311
80.949
137.636
137.625
137.599
137.554
137.487
137.39
137.256
137.074
136.834
136.521
136.121
135.618
134.993
134.225
133.29
132.165
130.822
129.23
127.359
125.176
122.649
119.747
116.441
112.71
108.543
103.939
98.9181
93.5184
87.7929
81.9254
136.611
136.591
136.542
136.462
136.35
136.2
136.002
135.749
135.429
135.029
134.537
133.936
133.21
132.339
131.303
130.081
128.647
126.979
125.051
122.837
120.315
117.463
114.264
110.708
106.794
102.533
97.9461
93.074
87.9641
82.7636
135.572
135.542
135.471
135.359
135.205
135.003
134.746
134.425
134.031
133.552
132.975
132.286
131.47
130.51
129.388
128.086
126.583
124.86
122.898
120.678
118.183
115.401
112.324
108.948
105.279
101.333
97.133
92.7166
88.1248
83.4761
134.524
134.486
134.394
134.251
134.056
133.806
133.493
133.111
132.648
132.097
131.444
130.677
129.783
128.747
127.554
126.188
124.634
122.876
120.9
118.692
116.242
113.544
110.594
107.396
103.959
100.3
96.4423
92.4193
88.2661
84.0784
133.473
133.426
133.316
133.143
132.911
132.616
132.252
131.812
131.288
130.671
129.951
129.116
128.155
127.056
125.806
124.392
122.802
121.026
119.051
116.87
114.478
111.87
109.051
106.024
102.802
99.4024
95.847
92.1642
88.384
84.5839
132.425
132.371
132.242
132.043
131.776
131.44
131.029
130.538
129.959
129.283
128.504
127.61
126.593
125.443
124.148
122.7
121.089
119.307
117.346
115.204
112.876
110.364
107.671
104.807
101.784
98.6167
95.3269
91.9386
88.4769
85.0049
131.387
131.326
131.181
130.956
130.658
130.285
129.832
129.294
128.666
127.94
127.109
126.167
125.104
123.912
122.585
121.114
119.493
117.716
115.78
113.682
111.424
109.007
106.438
103.725
100.882
97.9233
94.8669
91.7337
88.5449
85.3521
130.365
130.297
130.137
129.891
129.564
129.157
128.666
128.088
127.417
126.647
125.774
124.79
123.691
122.468
121.118
119.634
118.012
116.249
114.344
112.296
110.109
107.785
105.333
102.761
100.081
97.3073
94.4557
91.5439
88.5897
85.6355
129.367
129.293
129.119
128.852
128.5
128.064
127.54
126.926
126.218
125.412
124.503
123.486
122.358
121.113
119.748
118.259
116.644
114.902
113.032
111.037
108.92
106.686
104.343
101.899
99.3665
96.7571
94.0851
91.3655
88.6134
85.8638
128.398
128.319
128.134
127.849
127.474
127.012
126.46
125.815
125.076
124.239
123.301
122.259
121.109
119.849
118.476
116.989
115.387
113.669
111.838
109.896
107.847
105.698
103.456
101.129
98.728
96.2639
93.749
91.1964
88.6186
86.0449
127.468
127.384
127.188
126.888
126.494
126.009
125.432
124.761
123.996
123.134
122.173
121.111
119.947
118.678
117.303
115.823
114.237
112.547
110.755
108.866
106.883
104.813
102.663
100.441
98.1571
95.8211
93.4436
91.0357
88.6085
86.186
126.583
126.495
126.29
125.976
125.565
125.061
124.463
123.771
122.985
122.103
121.124
120.048
118.874
117.601
116.229
114.759
113.192
111.531
109.779
107.94
106.018
104.021
101.955
99.8274
97.6474
95.4237
93.1659
90.8835
88.586
86.2935
125.751
125.66
125.447
125.121
124.696
124.175
123.56
122.851
122.048
121.15
120.158
119.072
117.892
116.619
115.253
113.796
112.25
110.619
108.905
107.113
105.249
103.318
101.326
99.2828
97.1941
95.0686
92.9146
90.7405
88.5545
86.3736
124.981
124.887
124.667
124.331
123.893
123.359
122.73
122.007
121.19
120.28
119.279
118.187
117.005
115.734
114.377
112.934
111.41
109.807
108.129
106.381
104.568
102.697
100.773
98.8025
96.7935
94.7531
92.6886
90.6075
88.517
86.4312
124.28
124.184
123.957
123.613
123.165
122.62
121.979
121.244
120.417
119.499
118.492
117.396
116.215
114.949
113.601
112.173
110.67
109.094
107.449
105.741
103.975
102.156
100.291
98.3844
96.4443
94.477
92.489
90.4871
88.4776
86.4724
123.658
123.559
123.327
122.975
122.518
121.963
121.313
120.57
119.735
118.811
117.799
116.703
115.523
114.263
112.925
111.512
110.028
108.477
106.863
105.191
103.465
101.692
99.8767
98.0253
96.1438
94.2383
92.3148
90.3793
88.4376
86.4997
123.123
123.021
122.784
122.424
121.96
121.398
120.741
119.991
119.151
118.222
117.209
116.113
114.936
113.682
112.354
110.955
109.489
107.96
106.373
104.731
103.04
101.306
99.5329
97.7274
95.8948
94.0406
92.1706
90.2902
88.4046
86.5223
122.686
122.581
122.336
121.968
121.497
120.929
120.266
119.511
118.666
117.736
116.721
115.626
114.453
113.206
111.887
110.5
109.05
107.539
105.974
104.357
102.695
100.993
99.2542
97.4857
95.6922
93.8791
92.0516
90.2146
88.3731
86.5341
122.359
122.247
121.993
121.619
121.143
120.57
119.903
119.144
118.297
117.364
116.35
115.256
114.087
112.845
111.533
110.157
108.719
107.224
105.676
104.08
102.44
100.762
99.0512
97.3115
95.5486
93.7674
91.9728
90.1698
88.3629
86.5584
122.155
122.02
121.749
121.369
120.89
120.315
119.645
118.884
118.036
117.103
116.089
114.998
113.831
112.594
111.288
109.919
108.49
107.006
105.47
103.888
102.264
100.603
98.9094
97.1889
95.4461
93.6857
91.9126
90.1313
88.3463
86.5624
122.136
121.937
121.637
121.251
120.769
120.191
119.518
118.755
117.906
116.973
115.96
114.87
113.706
112.472
111.172
109.808
108.386
106.909
105.381
103.808
102.195
100.544
98.8627
97.1545
95.4243
93.6771
91.9173
90.1494
88.3779
86.6069
-45.8671
-25.8349
-6.16202
41.5169
34.5146
23.3437
57.2519
45.4678
34.6274
58.5079
48.2529
40.3843
62.7197
54.5637
47.9336
67.0088
60.204
54.4056
70.1781
64.3738
59.3904
72.6723
67.7042
63.442
74.7663
70.4757
66.8001
76.526
72.7771
69.573
77.9976
74.6878
71.8659
79.2301
76.2807
73.7711
80.2636
77.6128
75.3606
81.1298
78.7287
76.6907
81.855
79.6644
77.8065
82.4606
80.4491
78.7436
82.9648
81.1064
79.5306
83.3826
81.6557
80.1909
83.7269
82.1134
80.7438
84.0087
82.493
81.2052
84.2375
82.8063
81.5887
84.4219
83.0635
81.9061
84.5688
83.2728
82.1668
84.6863
83.4433
82.3809
84.7771
83.5787
82.5527
84.8531
83.6915
82.6951
84.9057
83.7736
82.8015
84.9643
83.8545
82.8994
84.9883
83.8946
82.9534
85.0536
83.974
83.0392
3.68113
3.96429
5.32756
6.18336
6.27768
6.21578
6.18379
6.1045
5.95389
5.798
5.6433
5.47446
5.28335
5.07422
4.84997
4.60825
4.34588
4.06103
3.75261
3.41953
3.06115
2.67841
2.27309
1.84905
1.42057
1.01139
0.632101
0.285032
0.0259482
-0.028015
9.94965
6.67235
7.08406
6.83608
6.14245
5.9439
6.12414
6.15951
5.97225
5.82028
5.69292
5.54595
5.36259
5.15835
4.94003
4.70153
4.43705
4.14432
3.82249
3.4705
3.08791
2.67639
2.23888
1.77894
1.31236
0.873815
0.484532
0.146518
-0.0848051
-0.073513
20.625
12.1745
9.14377
7.3815
6.74152
6.66333
6.70718
6.33741
5.91779
5.79672
5.75211
5.64507
5.4608
5.25817
5.04998
4.81899
4.55513
4.25645
3.92243
3.55123
3.14147
2.69546
2.22019
1.72016
1.20722
0.728524
0.323208
-0.00649728
-0.208592
-0.12779
29.8511
20.139
14.4226
10.8411
8.80469
7.66884
7.00184
6.51437
6.28923
6.17036
6.02234
5.80234
5.55348
5.35318
5.17462
4.9616
4.70235
4.40069
4.05663
3.66609
3.22692
2.74337
2.22597
1.67599
1.09883
0.563403
0.137507
-0.180609
-0.348179
-0.194296
38.7548
29.1482
21.9399
16.6868
13.0028
10.4803
8.79332
7.69426
7.01634
6.55968
6.23759
6.00442
5.81231
5.62505
5.41125
5.15932
4.87784
4.56875
4.21903
3.81353
3.34667
2.82257
2.25257
1.6467
1.00365
0.411886
-0.0488524
-0.377945
-0.508547
-0.279207
46.5192
37.704
29.9081
23.5433
18.6521
14.9969
12.3071
10.346
8.92309
7.89187
7.15689
6.6357
6.24806
5.93582
5.666
5.41013
5.138
4.82396
4.45055
4.01057
3.50459
2.93662
2.31385
1.64511
0.941782
0.281895
-0.251048
-0.621015
-0.694557
-0.399708
52.8325
45.1075
37.4161
30.598
25.0106
20.5454
17.0049
14.2203
12.0531
10.3846
9.10934
8.13259
7.37385
6.77393
6.28889
5.8766
5.49625
5.11367
4.70071
4.23398
3.69783
3.08733
2.4082
1.67323
0.906283
0.177211
-0.423227
-0.819198
-0.878658
-0.551103
57.9675
51.2924
44.1001
37.3275
31.4783
26.5416
22.3989
18.9575
16.1363
13.8479
12.0025
10.5164
9.31601
8.33958
7.53438
6.85234
6.24998
5.68928
5.13637
4.56132
3.94095
3.26162
2.52024
1.72486
0.902053
0.11811
-0.532986
-0.959364
-1.04149
-0.744902
62.1509
56.3704
49.8307
43.3977
37.6059
32.5041
28.0312
24.1498
20.8268
18.0126
15.6461
13.6635
12.0037
10.61
9.43019
8.41622
7.52356
6.71144
5.94286
5.18539
4.41311
3.60869
2.76511
1.88844
1.0053
0.175389
-0.514958
-0.97274
-1.09602
-0.900335
65.5572
60.511
54.6358
48.6761
43.1374
38.095
33.5206
29.4097
25.7631
22.5638
19.7786
17.3659
15.2811
13.4786
11.9138
10.5433
9.32532
8.22007
7.19081
6.20496
5.23582
4.26476
3.28368
2.29842
1.33473
0.444938
-0.296194
-0.806865
-1.01368
-0.980318
68.3469
63.8978
58.6316
53.1751
47.9825
43.1351
38.6198
34.448
30.64
27.2011
24.1199
21.3743
18.9364
16.7741
14.8533
13.1386
11.594
10.1844
8.87634
7.6395
6.44869
5.28598
4.14347
3.02657
1.9583
0.982499
0.160009
-0.445176
-0.786467
-0.95186
70.6501
66.6886
61.9536
56.9752
52.1543
47.5675
43.2074
39.0907
35.2461
31.6916
28.4303
25.4548
22.7511
20.2998
18.0777
16.0583
14.2135
12.5147
10.9336
9.44436
8.02482
6.65921
5.34047
4.07318
2.87635
1.78472
0.844698
0.102339
-0.414942
-0.797837
72.5643
69.0046
64.7242
60.1767
55.7157
51.41
47.2526
43.26
39.463
35.8852
32.538
29.4239
26.5391
23.8741
21.4151
19.1446
17.0425
15.087
13.2561
11.529
9.88778
8.31942
6.81801
5.38704
4.04119
2.80644
1.71625
0.801871
0.0786882
-0.533212
74.1633
70.9382
67.0446
62.8761
58.7466
54.7167
50.778
46.9443
43.245
39.7053
36.3408
33.1597
30.1648
27.3539
24.7208
22.2552
19.9441
17.7723
15.7239
13.7833
11.9367
10.1742
8.491
6.88953
5.38039
3.98199
2.71724
1.60629
0.657315
-0.192525
75.504
72.5599
68.9957
65.1573
61.3254
57.5535
53.8312
50.1689
46.5932
43.1287
39.7923
36.5954
33.5447
30.643
27.8893
25.2792
22.8052
20.4579
18.2267
16.1006
14.0698
12.127
10.2686
8.49596
6.81635
5.24201
3.78774
2.4657
1.27944
0.184438
76.6306
73.924
70.6413
67.0893
63.5214
59.9847
56.4672
52.976
49.5342
46.1646
42.8843
39.7057
36.6378
33.6865
30.8545
28.1414
25.5444
23.0583
20.6768
18.3929
16.2001
14.0933
12.0699
10.1305
8.27964
6.52476
4.87459
3.33545
1.90745
0.562444
77.5782
75.0732
72.0318
68.7283
65.3929
62.0678
58.7394
55.4118
52.1046
48.8386
45.63
42.4912
39.4323
36.461
33.5823
30.7988
28.1107
25.5165
23.013
20.5963
18.2626
16.0086
13.8324
11.7341
9.71602
7.78208
5.93642
4.18092
2.51259
0.916154
78.3752
76.0419
73.2077
70.1197
66.9884
63.8518
60.6954
57.5203
54.3433
51.1826
48.0531
44.9668
41.934
38.9631
36.0608
33.2313
30.4774
27.7996
25.1976
22.6697
20.2142
17.829
15.513
13.2657
11.0879
8.98076
6.94496
4.97885
3.07648
1.23149
79.0445
76.8576
74.2017
71.3006
68.348
65.3784
62.3766
59.3416
56.2871
53.229
50.1808
47.1536
44.1574
41.2009
38.2912
35.4341
32.6335
29.892
27.2107
24.59
22.0294
19.528
17.0851
14.7
12.3721
10.1006
7.8834
5.71612
3.58995
1.50392
79.6054
77.5434
75.0409
72.3017
69.505
66.6826
63.8187
60.9105
57.9691
55.0084
52.0403
49.0747
46.121
43.1877
40.2823
37.4109
34.5785
31.7887
29.0441
26.346
23.6952
21.0915
18.5345
16.0232
13.5561
11.1309
8.74356
6.38718
4.05057
1.73544
80.0737
78.1182
75.7475
73.1482
70.4872
67.7937
65.0519
62.2573
59.4189
56.5487
53.6569
50.7525
47.8439
44.9392
42.0457
39.1698
36.3169
33.4913
30.6962
27.9341
25.2061
22.5129
19.8541
17.2286
14.6342
12.0674
9.52255
6.99103
4.45963
1.93098
80.4632
78.5984
76.3405
73.8618
71.3181
68.7369
66.1022
63.4084
60.6625
57.8748
55.0542
52.2084
49.3451
46.4716
43.5949
40.7213
37.8564
35.0046
32.1699
29.3549
26.5615
23.7906
21.042
18.3143
15.6049
12.9094
10.2209
7.52944
4.82049
2.09633
80.7852
78.9969
76.8353
74.4599
72.0171
69.5329
66.9914
64.3858
61.7219
59.0082
56.2525
53.4614
50.6416
47.7998
44.9426
42.0758
39.2049
36.3347
33.469
30.6109
27.7625
24.9248
22.0978
19.2798
16.4679
13.657
10.8394
8.00422
5.13586
2.23575
81.0505
79.3265
77.2464
74.9586
72.6018
70.2005
67.739
65.2099
62.6174
59.969
57.2711
54.5297
51.7504
48.9393
46.1023
43.245
40.3725
37.4896
34.6001
31.7071
28.813
25.9187
23.0241
20.1276
17.2258
14.3132
11.3815
8.41914
5.40996
2.35379
81.2654
79.5948
77.5827
75.3684
73.0837
70.7522
68.3584
65.8943
63.363
60.7709
58.1235
55.4259
52.6831
49.9003
47.0829
44.2362
41.3649
38.4736
35.5659
32.6452
29.7134
26.7717
23.82
20.8563
17.8772
14.8767
11.8461
8.7734
5.64224
2.45064
81.442
79.8147
77.8584
75.7046
73.4792
71.2053
68.8675
66.4574
63.9772
61.4324
58.8279
56.1678
53.4566
50.6989
47.8996
45.0634
42.1949
39.2982
36.3771
33.4344
30.4724
27.492
24.4929
21.4732
18.4292
15.3545
12.2403
9.0742
5.83969
2.53211
81.5771
79.984
78.0718
75.966
73.7877
71.5596
69.2665
66.8997
64.4606
61.954
59.3842
56.7548
54.0697
51.333
48.5491
45.7224
42.8571
39.9572
37.0261
34.0666
31.0809
28.0697
25.0328
21.968
18.8713
15.7364
12.5541
9.3118
5.99313
2.59143
81.6935
80.1256
78.247
76.1776
74.035
71.8414
69.5823
67.2483
64.8405
62.3632
59.82
57.2143
54.5494
51.8291
49.0574
46.2384
43.3761
40.4741
37.5358
34.5639
31.5603
28.5258
25.4599
22.3604
19.2232
16.0418
12.8066
9.50485
6.12003
2.64184
81.764
80.2119
78.3553
76.3105
74.192
72.0216
69.7851
67.4731
65.0864
62.6286
60.1034
57.5136
54.8624
52.1533
49.3899
46.5763
43.7162
40.813
37.8701
34.89
31.8745
28.8243
25.739
22.6161
19.4514
16.2381
12.9666
9.62367
6.19267
2.6619
81.8488
80.2977
78.4533
76.4234
74.3185
72.1606
69.9362
67.6359
65.2601
62.8125
60.2963
57.7144
55.0697
52.3657
49.6059
46.7941
43.934
41.0291
38.0825
35.0967
32.0737
29.0139
25.917
22.7804
19.6
16.3686
13.0763
9.70901
6.24743
2.66814
)
;

boundaryField
{
    inlet
    {
        type            zeroGradient;
    }
    outlet
    {
        type            fixedValue;
        value           uniform 0;
    }
    flap
    {
        type            zeroGradient;
    }
    upperWall
    {
        type            zeroGradient;
    }
    lowerWall
    {
        type            zeroGradient;
    }
    frontAndBack
    {
        type            empty;
    }
}


// ************************************************************************* //
