/*--------------------------------*- C++ -*----------------------------------*\
  =========                 |
  \\      /  F ield         | OpenFOAM: The Open Source CFD Toolbox
   \\    /   O peration     | Website:  https://openfoam.org
    \\  /    A nd           | Version:  dev
     \\/     M anipulation  |
\*---------------------------------------------------------------------------*/
FoamFile
{
    version     2.0;
    format      ascii;
    class       surfaceScalarField;
    location    "1.8";
    object      phi;
}
// * * * * * * * * * * * * * * * * * * * * * * * * * * * * * * * * * * * * * //

dimensions      [0 3 -1 0 0 0 0];

internalField   nonuniform List<scalar> 
5457
(
0.198417
0.00158317
0.196478
0.00193892
0.194188
0.00229037
0.191501
0.00268654
0.188416
0.00308476
0.184935
0.00348086
0.181052
0.0038831
0.176753
0.00429886
0.17202
0.00473328
0.16683
0.00519038
0.161156
0.00567362
0.15497
0.00618598
0.148241
0.0067296
0.140935
0.00730552
0.133022
0.00791308
0.124473
0.00854929
0.115265
0.00920787
0.105387
0.00987816
0.0948427
0.010544
0.0836605
0.0111822
0.0718985
0.011762
0.0596541
0.0122444
0.0470708
0.0125834
0.0343375
0.0127333
0.0216513
0.0126862
0.009014
0.0126373
-0.00291847
0.0119325
-0.00846653
0.00554806
-0.00803655
-0.000429983
-0.00803655
0.199927
0.00165581
0.199173
0.00269293
0.19796
0.00350361
0.196324
0.00432272
0.19426
0.00514842
0.191766
0.00597507
0.188834
0.00681466
0.185453
0.00768064
0.181603
0.00858333
0.177262
0.00953101
0.172405
0.0105309
0.167001
0.0115894
0.16102
0.0127111
0.154427
0.0138987
0.147188
0.0151518
0.139272
0.0164653
0.130652
0.0178279
0.121311
0.0192194
0.111246
0.0206087
0.100477
0.0219508
0.0890553
0.023184
0.0770715
0.0242282
0.0646706
0.0249842
0.0520695
0.0253344
0.0396167
0.025139
0.0280739
0.0241802
0.0185634
0.0214429
0.00877006
0.0153414
0.00117171
0.00716836
-0.00686484
0.19978
0.00187603
0.199084
0.00338832
0.197941
0.00464681
0.196402
0.00586226
0.194472
0.00707807
0.192149
0.00829814
0.189427
0.00953654
0.186297
0.0108109
0.182744
0.0121362
0.17875
0.013525
0.174293
0.0149881
0.169347
0.0165353
0.163884
0.0181743
0.157872
0.0199101
0.15128
0.0217437
0.144076
0.0236701
0.136228
0.0256755
0.127713
0.0277345
0.118516
0.0298058
0.108639
0.0318278
0.0981089
0.0337137
0.08699
0.0353471
0.0753978
0.0365764
0.0635262
0.037206
0.0516904
0.0369747
0.0403607
0.0355099
0.0297078
0.0320958
0.0191464
0.0259028
0.00958263
0.0167321
0.0027178
0.199702
0.00217374
0.199005
0.00408518
0.197883
0.00576961
0.196369
0.0073761
0.194477
0.00896971
0.192207
0.0105682
0.189555
0.0121887
0.186514
0.0138516
0.183075
0.0155756
0.179223
0.0173765
0.174943
0.0192682
0.170216
0.0212628
0.165019
0.0233706
0.159331
0.0255985
0.153126
0.0279492
0.146377
0.0304183
0.139061
0.0329921
0.131152
0.0356432
0.122633
0.0383254
0.113492
0.040968
0.103737
0.0434688
0.0933977
0.0456867
0.0825406
0.0474335
0.071283
0.0484636
0.0597968
0.0484608
0.0482791
0.0470276
0.0367805
0.0435944
0.0251667
0.0375166
0.0133245
0.0285743
0.0160423
0.199667
0.00250712
0.198962
0.00479
0.197858
0.00687321
0.196374
0.00886074
0.194521
0.010822
0.192303
0.0127869
0.189714
0.014777
0.186751
0.016815
0.183404
0.0189224
0.179663
0.0211174
0.175515
0.0234162
0.170945
0.0258329
0.165937
0.0283791
0.160472
0.0310631
0.154533
0.0338885
0.148099
0.036852
0.141151
0.0399404
0.133668
0.0431262
0.12563
0.0463628
0.117021
0.0495768
0.10783
0.0526606
0.0980534
0.0554629
0.0877074
0.0577795
0.0768264
0.0593446
0.0654625
0.0598248
0.0536686
0.0588215
0.0414225
0.0558405
0.0285657
0.0503734
0.0148413
0.0422988
0.0308836
0.199652
0.00285512
0.198946
0.00549563
0.197866
0.00795346
0.196419
0.0103079
0.194615
0.0126256
0.192458
0.0149445
0.189944
0.0172912
0.187068
0.0196908
0.183823
0.0221668
0.180201
0.0247399
0.176189
0.027428
0.171775
0.0302467
0.166945
0.0332088
0.161685
0.0363236
0.155978
0.0395955
0.149808
0.0430221
0.143157
0.0465913
0.136006
0.0502774
0.128333
0.0540359
0.120113
0.0577962
0.11132
0.0614535
0.101924
0.064859
0.091894
0.0678098
0.0811983
0.0700402
0.0698049
0.0712183
0.057675
0.0709513
0.0447275
0.0687881
0.0308261
0.0642748
0.0158616
0.0572633
0.0467452
0.199649
0.00320586
0.198952
0.0061932
0.1979
0.00900541
0.196497
0.0117106
0.194751
0.0143715
0.192665
0.0170307
0.190237
0.0197194
0.187462
0.0224654
0.184335
0.0252942
0.180846
0.0282283
0.176987
0.0312875
0.172745
0.0344888
0.168107
0.0378462
0.163061
0.0413701
0.15759
0.0450662
0.151679
0.0489335
0.145308
0.0529619
0.138456
0.0571292
0.131097
0.0613954
0.123196
0.0656971
0.11471
0.0699391
0.105585
0.0739844
0.0957513
0.0776437
0.085126
0.0806655
0.0736149
0.0827294
0.0611163
0.0834499
0.0475196
0.0823847
0.0327341
0.0790603
0.0167705
0.0732269
0.0635157
0.199654
0.00355202
0.198972
0.00687491
0.197954
0.0100235
0.196602
0.0130624
0.194923
0.0160512
0.192918
0.0190355
0.190587
0.0220503
0.187926
0.0251258
0.184931
0.0282896
0.181593
0.0315661
0.177904
0.0349766
0.173853
0.0385399
0.169428
0.0422713
0.164615
0.0461829
0.159399
0.050282
0.153763
0.0545701
0.147684
0.0590408
0.141136
0.0636767
0.134086
0.0684454
0.126489
0.0732945
0.118284
0.0781435
0.109394
0.0828749
0.099715
0.0873226
0.0891214
0.0912591
0.0774664
0.0943843
0.0645977
0.0963187
0.0503784
0.096604
0.0347413
0.0946975
0.0177762
0.0901919
0.0812919
0.199663
0.00388866
0.199004
0.00753432
0.198025
0.0110021
0.196731
0.0143569
0.195125
0.017657
0.193211
0.0209497
0.190988
0.024273
0.188454
0.0276597
0.185605
0.0311392
0.182433
0.0347376
0.178932
0.0384781
0.175091
0.0423809
0.170899
0.0464632
0.166343
0.0507391
0.161406
0.0552185
0.15607
0.0599065
0.150309
0.0648014
0.144093
0.0698931
0.137379
0.0751594
0.130111
0.0805622
0.122214
0.086041
0.113584
0.0915042
0.104089
0.0968174
0.0935607
0.101788
0.0817992
0.106146
0.0685938
0.109524
0.0537582
0.11144
0.0372064
0.111249
0.0190682
0.10833
0.10036
0.199676
0.00421226
0.199045
0.00816619
0.198111
0.0119359
0.196879
0.0155883
0.195355
0.0191817
0.19354
0.0227647
0.191435
0.0263778
0.189039
0.0300559
0.186348
0.0338302
0.183357
0.0377286
0.180059
0.0417757
0.176447
0.0459935
0.172508
0.0504013
0.168232
0.0550155
0.163601
0.0598494
0.158595
0.0649124
0.153188
0.0702091
0.147342
0.0757382
0.141011
0.0814903
0.134129
0.087445
0.126604
0.0935659
0.118314
0.099794
0.109096
0.106036
0.0987371
0.112146
0.0869783
0.117905
0.0735265
0.122976
0.0580985
0.126868
0.0405175
0.12883
0.020884
0.127964
0.121244
0.199692
0.00452016
0.199092
0.00876621
0.198208
0.0128199
0.197045
0.0167512
0.195608
0.0206189
0.1939
0.024473
0.191922
0.0283558
0.189673
0.0323044
0.187152
0.0363513
0.184355
0.0405259
0.181276
0.0448545
0.177909
0.0493608
0.174244
0.0540662
0.17027
0.0589897
0.165971
0.0641482
0.161327
0.0695562
0.156311
0.0752254
0.150884
0.0811646
0.144996
0.0873787
0.138574
0.0938673
0.131517
0.100622
0.123688
0.107623
0.114897
0.114827
0.104889
0.122154
0.0933339
0.12946
0.0798248
0.136485
0.0639099
0.142782
0.0451948
0.147545
0.0235915
0.149567
0.144836
0.19971
0.0048103
0.199145
0.00933087
0.198315
0.0136499
0.197226
0.0178406
0.195882
0.021963
0.194287
0.0260679
0.192443
0.0301995
0.190351
0.0343962
0.18801
0.0386922
0.185418
0.0431181
0.182571
0.0477015
0.179464
0.0524678
0.17609
0.0574403
0.172439
0.0626408
0.168497
0.0680897
0.164247
0.0738067
0.159661
0.0798109
0.154705
0.0861214
0.149325
0.0927581
0.143451
0.0997417
0.136979
0.107094
0.129765
0.114837
0.121604
0.122988
0.112207
0.131551
0.101174
0.140493
0.0879593
0.1497
0.0718543
0.158887
0.052039
0.167361
0.0278621
0.173744
0.172698
0.199729
0.00508107
0.199203
0.0098573
0.19843
0.0144223
0.197418
0.0188525
0.196172
0.023209
0.194697
0.0275438
0.192994
0.0319022
0.191066
0.036324
0.188914
0.0408445
0.186537
0.0454954
0.183933
0.0503054
0.181099
0.0553013
0.178031
0.0605082
0.174722
0.0659502
0.171161
0.071651
0.167332
0.077635
0.163215
0.0839282
0.158777
0.0905593
0.153973
0.097562
0.148738
0.104977
0.142977
0.112855
0.136553
0.121261
0.129265
0.130276
0.120818
0.139998
0.110767
0.150544
0.0984405
0.162026
0.0828184
0.174509
0.0623788
0.1878
0.0350974
0.201025
0.207795
0.19975
0.0053312
0.199264
0.0103432
0.198552
0.0151342
0.197621
0.0197832
0.196477
0.0243528
0.195125
0.0288958
0.193569
0.0334584
0.191812
0.0380815
0.189855
0.0428011
0.187701
0.0476498
0.185349
0.0526571
0.1828
0.0578508
0.180051
0.0632573
0.177098
0.0689025
0.173936
0.0748129
0.170555
0.0810165
0.166938
0.0875447
0.163064
0.0944341
0.158896
0.101729
0.154385
0.109488
0.149457
0.117784
0.144
0.126718
0.137847
0.136428
0.130741
0.147104
0.122268
0.159017
0.111736
0.172559
0.0979153
0.18833
0.0784675
0.207248
0.0486337
0.230859
0.256429
0.199771
0.00555973
0.199328
0.0107868
0.198679
0.0157831
0.197832
0.0206301
0.196794
0.0253912
0.195569
0.0301202
0.194164
0.0348639
0.192581
0.0396639
0.190826
0.0445567
0.1889
0.0495752
0.186808
0.0547496
0.184551
0.0601082
0.18213
0.065678
0.179546
0.0714861
0.176799
0.0775606
0.173883
0.083932
0.170793
0.0906349
0.167516
0.0977109
0.164034
0.105212
0.160317
0.113205
0.156322
0.121778
0.151985
0.131056
0.147205
0.141208
0.141826
0.152484
0.135585
0.165257
0.128016
0.180128
0.118182
0.198164
0.103836
0.221594
0.0776649
0.25703
0.334094
0.00712384
-0.00712384
0.0134211
-0.00629729
0.0188103
-0.00538919
0.0234851
-0.00467479
0.0275954
-0.00411028
0.0312325
-0.00363711
0.0344572
-0.00322466
0.0373091
-0.00285194
0.0398109
-0.00250176
0.041979
-0.00216815
0.0438376
-0.00185855
0.0453946
-0.00155705
0.0466152
-0.00122058
0.0474987
-0.000883504
0.0480926
-0.000593917
0.048406
-0.000313337
0.0484797
-7.37322e-05
0.0483457
0.000133946
0.0481573
0.000188392
0.0479209
0.00023643
0.047579
0.000341963
0.0470555
0.00052342
0.0463329
0.000722682
0.04548
0.000852877
0.0446586
0.000821409
0.0440902
0.000568365
0.0439321
0.000158063
0.0443695
-0.000437367
0.0456315
-0.00126198
-0.0023125
0.00539006
-0.0125139
0.0106459
-0.0115532
0.0152834
-0.0100267
0.0193397
-0.00873114
0.0229261
-0.00769664
0.0261188
-0.0068298
0.0289667
-0.00607253
0.031497
-0.00538228
0.0337193
-0.00472402
0.035638
-0.00408685
0.0372837
-0.0035043
0.0386867
-0.00295999
0.0397922
-0.00232613
0.0406249
-0.00171617
0.0411958
-0.00116484
0.0411198
-0.000237325
0.0401911
0.00085493
0.0384191
0.00190597
0.0359812
0.0026263
0.0331284
0.00308926
0.0301137
0.00335665
0.0271814
0.00345574
0.0245573
0.00334673
0.0224049
0.00300525
0.0208454
0.00238098
0.0199995
0.00141425
0.0198789
0.000278625
0.0207308
-0.00128921
0.0229382
-0.00346943
-0.00575635
0.00379357
-0.0163075
0.00748569
-0.0152453
0.0107414
-0.0132824
0.0135777
-0.0115674
0.0160389
-0.0101579
0.0181652
-0.00895614
0.0199924
-0.00789972
0.0215347
-0.0069245
0.022779
-0.00596837
0.0236873
-0.00499512
0.0243053
-0.00412231
0.024762
-0.00341672
0.0247248
-0.00228888
0.023538
-0.000529393
0.0211622
0.0012109
0.0183795
0.00254545
0.0156366
0.0035978
0.0128823
0.00466022
0.0100396
0.00546903
0.00720403
0.00592484
0.00452293
0.00603775
0.00214548
0.00583319
0.000185834
0.00530638
-0.00123217
0.00442325
-0.00203106
0.00317987
-0.00215021
0.0015334
-0.00130023
-0.000571358
0.000673822
-0.00326326
0.00374644
-0.00654205
-0.00881539
0.00225107
-0.0185585
0.0042368
-0.017231
0.00590886
-0.0149545
0.00728619
-0.0129447
0.00836471
-0.0112364
0.00913904
-0.00973047
0.00963564
-0.00839632
0.00986306
-0.00715192
0.00981785
-0.00592317
0.00940902
-0.00458629
0.00825793
-0.00297122
0.00594344
-0.00110222
0.00300171
0.000652857
0.000476221
0.00199609
-0.00169839
0.00338551
-0.00386148
0.00470854
-0.00613481
0.00587114
-0.00834499
0.0068704
-0.0104402
0.00756426
-0.0123708
0.00785539
-0.0140652
0.00773222
-0.0154409
0.00720882
-0.0164178
0.00628331
-0.0169372
0.00494262
-0.0169561
0.00319884
-0.0164541
0.00103139
-0.0154091
-0.00161637
-0.0139169
-0.00475543
-0.0124642
-0.00799484
-0.0103751
0.000581654
-0.0191402
0.000806171
-0.0174555
0.000755659
-0.014904
0.000533952
-0.012723
4.19971e-05
-0.0107445
-0.000719216
-0.00896926
-0.00182426
-0.00729128
-0.00332528
-0.0056509
-0.00526602
-0.00398243
-0.00761168
-0.00224063
-0.0101553
-0.000427589
-0.0123912
0.00113362
-0.0143041
0.00256581
-0.016295
0.00398697
-0.0182764
0.00536691
-0.0201996
0.00663174
-0.02204
0.0077115
-0.0237169
0.0085473
-0.0251898
0.00903725
-0.0264415
0.00910709
-0.0274477
0.00873841
-0.0281779
0.00793897
-0.0286082
0.00671359
-0.0287305
0.00506492
-0.0285407
0.00300904
-0.0280396
0.000530364
-0.0272936
-0.00236244
-0.0264404
-0.00560862
-0.0256444
-0.00879087
-0.0112282
-0.00113685
-0.0180034
-0.00271859
-0.0158738
-0.00445636
-0.0131662
-0.00637527
-0.0108041
-0.00845565
-0.00866407
-0.0107175
-0.00670739
-0.013137
-0.00487176
-0.0156732
-0.00311477
-0.0182508
-0.00140484
-0.0207054
0.000213959
-0.0228461
0.00171318
-0.024834
0.00312148
-0.0267861
0.00451791
-0.0286751
0.00587603
-0.0304616
0.00715335
-0.032109
0.00827915
-0.0335854
0.00918787
-0.0348522
0.00981417
-0.0358955
0.0100805
-0.0367202
0.00993181
-0.037333
0.00935118
-0.0377378
0.00834379
-0.0379413
0.0069171
-0.0379534
0.00507701
-0.0377767
0.0028323
-0.0374155
0.000169216
-0.0369425
-0.00283546
-0.0364607
-0.00609044
-0.0360236
-0.00922798
-0.0116271
-0.00291122
-0.0150921
-0.00618428
-0.0126007
-0.00949406
-0.00985641
-0.0127939
-0.00750422
-0.0160291
-0.00542891
-0.0191706
-0.00356582
-0.0221793
-0.00186306
-0.0250158
-0.000278272
-0.0275658
0.00114516
-0.0298441
0.00249224
-0.0319561
0.00382513
-0.0339774
0.00514277
-0.0358855
0.00642609
-0.0376539
0.00764437
-0.0392537
0.00875313
-0.0406652
0.00969066
-0.0418719
0.0103946
-0.0428615
0.0108037
-0.0436391
0.0108581
-0.0442242
0.0105169
-0.0446392
0.00976614
-0.0449037
0.00860834
-0.045035
0.00704836
-0.0450463
0.00508833
-0.0449422
0.00272826
-0.0447429
-3.01328e-05
-0.0444927
-0.00308567
-0.044271
-0.00631211
-0.04411
-0.00938901
-0.0116943
-0.00463746
-0.0104547
-0.00936941
-0.00786875
-0.013908
-0.00531784
-0.0181545
-0.00325765
-0.0220545
-0.00152894
-0.025589
-3.12891e-05
-0.0287251
0.00127303
-0.0314856
0.0024822
-0.033988
0.0036476
-0.0363168
0.00482102
-0.0384816
0.00598992
-0.0404811
0.00714224
-0.042308
0.00825298
-0.0439498
0.00928618
-0.0453921
0.0101954
-0.0466263
0.0109249
-0.0476493
0.0114176
-0.048465
0.0116194
-0.0490899
0.011483
-0.0495508
0.0109778
-0.0498771
0.0100924
-0.0500954
0.0088267
-0.0502278
0.00718073
-0.0502889
0.00514939
-0.0502879
0.00272733
-0.0502489
-6.9123e-05
-0.050204
-0.00313059
-0.0502017
-0.00631439
-0.0502756
-0.00931517
-0.0115041
-0.00623793
-0.00421675
-0.0122158
-0.00189089
-0.017539
5.39694e-06
-0.022178
0.00138128
-0.0262297
0.00252282
-0.0297694
0.00350835
-0.032919
0.00442271
-0.0357687
0.00533185
-0.0383684
0.00624733
-0.0407331
0.00718566
-0.0428798
0.00813665
-0.0448174
0.00907983
-0.0465489
0.00998447
-0.0480731
0.0108104
-0.0493875
0.0115098
-0.0504927
0.0120301
-0.0513945
0.0123194
-0.0521057
0.0123306
-0.0526488
0.0120262
-0.0530538
0.0113828
-0.0533533
0.0103919
-0.0535781
0.00905147
-0.0537541
0.00735671
-0.0538992
0.00529457
-0.0540256
0.00285373
-0.0541528
5.80693e-05
-0.0543025
-0.0029809
-0.0545029
-0.00611401
-0.0547838
-0.00903424
-0.011116
-0.00731406
0.00309731
-0.0139048
0.00469988
-0.0195034
0.00560393
-0.0243604
0.00623835
-0.0285919
0.00675432
-0.0323034
0.00721981
-0.0355818
0.00770112
-0.0384904
0.00824049
-0.0410883
0.00884515
-0.0434115
0.0095089
-0.0454867
0.0102118
-0.047332
0.0109252
-0.0489593
0.0116117
-0.0503754
0.0122265
-0.0515856
0.0127201
-0.052597
0.0130414
-0.0534203
0.0131428
-0.0540729
0.0129832
-0.0545796
0.0125328
-0.0549716
0.0117748
-0.0552833
0.0107036
-0.0555488
0.00931697
-0.0557983
0.00760626
-0.0560538
0.00555004
-0.0563281
0.00312801
-0.0566322
0.000362126
-0.0569725
-0.00264056
-0.0573692
-0.00571726
-0.0578403
-0.00856319
-0.0105617
-0.00763656
0.0107339
-0.0146
0.0116633
-0.0205965
0.0116005
-0.025715
0.0113568
-0.0300737
0.011113
-0.0338126
0.0109588
-0.037051
0.0109395
-0.0398823
0.0110718
-0.0423784
0.0113412
-0.0445873
0.0117178
-0.0465426
0.0121671
-0.0482686
0.0126512
-0.0497829
0.013126
-0.0510975
0.0135411
-0.0522217
0.0138443
-0.0531654
0.0139852
-0.0539418
0.0139191
-0.054569
0.0136105
-0.0550722
0.013036
-0.0554824
0.012185
-0.0558352
0.0110564
-0.0561675
0.0096493
-0.0565142
0.00795292
-0.0569016
0.00593749
-0.0573416
0.00356794
-0.0578334
0.000853992
-0.0583724
-0.00210157
-0.0589665
-0.00512314
-0.0596214
-0.0079083
-0.00984789
-0.00811636
0.0188502
-0.0154956
0.0190426
-0.0216608
0.0177657
-0.0267344
0.0164304
-0.0309435
0.0153221
-0.034481
0.0144963
-0.0374956
0.013954
-0.0401067
0.0136829
-0.0423986
0.0136331
-0.0444215
0.0137408
-0.0462092
0.0139548
-0.0477883
0.0142303
-0.0491795
0.0145172
-0.0503967
0.0147583
-0.0514498
0.0148974
-0.0523487
0.0148841
-0.0531059
0.0146762
-0.0537381
0.0142427
-0.0542684
0.0135663
-0.0547265
0.0126432
-0.055148
0.0114779
-0.0555723
0.0100735
-0.0560384
0.00841904
-0.056578
0.0064771
-0.0572019
0.00419181
-0.0578983
0.00155046
-0.0586474
-0.00135249
-0.0594451
-0.00432542
-0.060287
-0.00706642
-0.00896972
-0.00904356
0.0278938
-0.0169195
0.0269185
-0.0229746
0.0238208
-0.0276206
0.0210764
-0.0313499
0.0190514
-0.0344308
0.0175772
-0.0370214
0.0165447
-0.0392624
0.015924
-0.0412467
0.0156173
-0.0430124
0.0155064
-0.044583
0.0155254
-0.0459844
0.0156317
-0.0472392
0.015772
-0.0483607
0.0158799
-0.0493565
0.0158932
-0.0502337
0.0157613
-0.0510018
0.0154443
-0.0516739
0.0149148
-0.0522684
0.0141608
-0.0528113
0.0131861
-0.0533364
0.012003
-0.0538832
0.0106204
-0.0544948
0.00903064
-0.055209
0.00719125
-0.0560382
0.00502099
-0.0569592
0.00247153
-0.0579331
-0.000378645
-0.0589438
-0.0033147
-0.059984
-0.0060262
-0.00791702
-0.0107664
0.0386602
-0.0194053
0.0355575
-0.0248938
0.0293093
-0.0285128
0.0246954
-0.0313587
0.0218974
-0.0337222
0.0199407
-0.0356779
0.0185004
-0.0373906
0.0176366
-0.0389694
0.0171961
-0.04041
0.0169471
-0.0417097
0.016825
-0.0428944
0.0168164
-0.0439922
0.0168698
-0.0450145
0.0169022
-0.0459633
0.016842
-0.0468418
0.0166397
-0.0476556
0.0162581
-0.048412
0.0156712
-0.0491215
0.0148703
-0.0498023
0.0138668
-0.0504821
0.0126829
-0.0511974
0.0113356
-0.0519915
0.00982481
-0.0529096
0.00810932
-0.0539691
0.00608044
-0.0551347
0.0036372
-0.0563499
0.000836531
-0.0575881
-0.00207654
-0.0588444
-0.00476986
-0.00667725
-0.014103
0.0527631
-0.0239212
0.0453757
-0.0279676
0.0333556
-0.0294242
0.026152
-0.0309021
0.0233753
-0.0323557
0.0213943
-0.0334662
0.0196109
-0.0344743
0.0186447
-0.0355735
0.0182953
-0.0366338
0.0180073
-0.0375986
0.0177898
-0.0385089
0.0177267
-0.0394123
0.0177733
-0.0403165
0.0178064
-0.0412144
0.0177398
-0.0421067
0.0175321
-0.0429984
0.0171498
-0.0438911
0.0165639
-0.0447842
0.0157635
-0.0456818
0.0147644
-0.0465982
0.0135993
-0.0475585
0.012296
-0.0485988
0.0108651
-0.049768
0.00927854
-0.051092
0.00740449
-0.0525255
0.00507072
-0.0540009
0.00231188
-0.0554882
-0.000589268
-0.0569815
-0.00327648
-0.00522772
0.207446
0.00577336
0.207032
0.0112011
0.206427
0.0163882
0.205639
0.0214179
0.204675
0.0263546
0.203543
0.0312526
0.202248
0.0361592
0.200796
0.0411161
0.199192
0.0461602
0.197443
0.0513245
0.195553
0.0566391
0.193529
0.0621324
0.191376
0.0678315
0.189098
0.0737638
0.186701
0.0799576
0.184189
0.0864441
0.181565
0.093259
0.17883
0.100445
0.175986
0.108056
0.173031
0.11616
0.16996
0.124849
0.16677
0.134246
0.163457
0.144521
0.160022
0.155918
0.156493
0.168787
0.152965
0.183655
0.149814
0.201316
0.148733
0.222675
0.16057
0.245193
0.258087
0.236577
0.21249
0.00596666
0.212115
0.0115757
0.211569
0.0169344
0.210859
0.0221272
0.209995
0.0272193
0.208982
0.0322652
0.207829
0.0373121
0.206543
0.042402
0.205132
0.0475713
0.203604
0.0528529
0.201966
0.0582763
0.20023
0.0638693
0.198403
0.0696585
0.196496
0.0756702
0.194522
0.0819319
0.192493
0.0884735
0.190423
0.0953289
0.18833
0.102538
0.186235
0.11015
0.184168
0.118228
0.182167
0.126849
0.180296
0.136117
0.178652
0.146165
0.177409
0.157161
0.17689
0.169306
0.177752
0.182794
0.181417
0.197651
0.190498
0.213594
0.206009
0.229682
0.244964
0.219132
0.217657
0.00613749
0.217326
0.0119064
0.216845
0.0174157
0.216221
0.0227504
0.215465
0.027976
0.214583
0.033147
0.213585
0.0383104
0.212479
0.0435076
0.211276
0.0487745
0.209986
0.0541432
0.20862
0.0596422
0.207191
0.0652981
0.205714
0.0711358
0.204204
0.07718
0.20268
0.0834557
0.201164
0.0899894
0.199682
0.0968108
0.198267
0.103954
0.19696
0.111458
0.195817
0.119371
0.194916
0.12775
0.194371
0.136663
0.194351
0.146185
0.19512
0.156392
0.197087
0.167338
0.200864
0.179017
0.207215
0.1913
0.216792
0.204016
0.229291
0.217183
0.228223
0.246032
0.22295
0.00628384
0.222667
0.0121895
0.222256
0.0178265
0.221727
0.0232803
0.221087
0.028616
0.220346
0.0338878
0.219514
0.0391422
0.218602
0.0444197
0.217621
0.0497553
0.216585
0.0551796
0.215507
0.0607198
0.214405
0.0664004
0.213296
0.0722443
0.212203
0.0782731
0.211151
0.0845081
0.210169
0.0909712
0.209294
0.0976853
0.208573
0.104675
0.208062
0.111968
0.207839
0.119594
0.208005
0.127583
0.208701
0.135967
0.210119
0.144767
0.212521
0.15399
0.216251
0.163608
0.221726
0.173542
0.229388
0.183637
0.239798
0.193606
0.253862
0.20312
0.209924
0.272161
0.228373
0.00640385
0.228142
0.0124213
0.227806
0.0181617
0.227376
0.0237101
0.226861
0.0291312
0.226271
0.0344783
0.225616
0.0397971
0.224909
0.0451267
0.224163
0.0505009
0.223394
0.0559485
0.222619
0.0614948
0.221858
0.0671619
0.221133
0.0729694
0.22047
0.0789355
0.219902
0.0850768
0.219464
0.091409
0.219202
0.0979474
0.219171
0.104707
0.219439
0.1117
0.220095
0.118938
0.221251
0.126428
0.223051
0.134167
0.225679
0.14214
0.229363
0.150306
0.234381
0.15859
0.241058
0.166865
0.249768
0.174928
0.260949
0.182424
0.275069
0.189001
0.193574
0.291418
0.233928
0.00649582
0.233751
0.0125985
0.233496
0.0184166
0.233173
0.0240339
0.232789
0.0295144
0.232357
0.0349103
0.231889
0.0402657
0.231397
0.0456186
0.230897
0.0510008
0.230406
0.0564392
0.229945
0.0619565
0.229535
0.0675719
0.229202
0.0733018
0.228978
0.0791599
0.228897
0.0851576
0.229002
0.0913042
0.229343
0.0976066
0.22998
0.104069
0.230989
0.110691
0.232459
0.117467
0.234502
0.124385
0.237253
0.131416
0.240873
0.138519
0.245555
0.145625
0.251514
0.15263
0.258992
0.159388
0.268225
0.165694
0.279388
0.171261
0.29257
0.175819
0.178858
0.307286
0.239619
0.00655827
0.239499
0.0127183
0.239329
0.0185869
0.239116
0.0242464
0.238871
0.0297594
0.238605
0.0351766
0.23833
0.0405406
0.238061
0.0458875
0.237815
0.0512469
0.23761
0.0566437
0.237469
0.0620976
0.237416
0.0676248
0.23748
0.0732379
0.237694
0.078946
0.238097
0.0847552
0.238732
0.0906683
0.239655
0.0966843
0.240926
0.102798
0.24262
0.108997
0.244824
0.115264
0.24764
0.121569
0.251186
0.12787
0.255597
0.134108
0.261021
0.140201
0.267611
0.14604
0.275516
0.151483
0.284853
0.156358
0.295663
0.160451
0.307932
0.16355
0.16539
0.321401
0.245447
0.0065899
0.245388
0.0127783
0.245305
0.0186693
0.245208
0.0243434
0.245106
0.0298613
0.245011
0.0352719
0.244936
0.040616
0.244896
0.0459275
0.244909
0.051234
0.244995
0.0565575
0.245178
0.0619151
0.245483
0.0673196
0.245941
0.0727797
0.246587
0.0783002
0.24746
0.0838821
0.248606
0.0895221
0.250078
0.0952123
0.251936
0.100939
0.254251
0.106683
0.2571
0.112414
0.260572
0.118096
0.264766
0.123677
0.269784
0.12909
0.275731
0.134254
0.282706
0.139064
0.290788
0.143401
0.300023
0.147123
0.310397
0.150076
0.321844
0.152103
0.153074
0.334159
0.251417
0.00658969
0.251419
0.0127763
0.251428
0.018661
0.25145
0.0243213
0.251495
0.0298161
0.251575
0.035192
0.251703
0.0404879
0.251895
0.0457352
0.25217
0.0509593
0.252548
0.0561794
0.253053
0.0614097
0.253713
0.0666598
0.254558
0.0719348
0.255623
0.0772354
0.256947
0.0825579
0.258575
0.087894
0.260557
0.0932301
0.26295
0.0985469
0.265814
0.103818
0.269218
0.10901
0.273235
0.114079
0.27794
0.118972
0.283407
0.123623
0.289704
0.127956
0.296888
0.131881
0.304991
0.135298
0.314014
0.1381
0.323911
0.140179
0.334584
0.141431
0.141797
0.345861
0.257532
0.00655689
0.257597
0.0127111
0.257698
0.0185599
0.257841
0.0241779
0.258036
0.0296214
0.258293
0.0349348
0.258627
0.0401545
0.259052
0.0453097
0.259588
0.0504232
0.260256
0.0555115
0.26108
0.0605862
0.262086
0.0656537
0.263305
0.0707157
0.264771
0.0757696
0.266521
0.0808077
0.268597
0.0858178
0.271045
0.0907823
0.273913
0.0956781
0.277256
0.100475
0.281128
0.105138
0.285586
0.109622
0.290684
0.113875
0.29647
0.117837
0.302985
0.121441
0.310252
0.124614
0.318272
0.127277
0.327019
0.129353
0.336428
0.13077
0.346395
0.131463
0.131412
0.35678
0.263793
0.006491
0.263923
0.0125817
0.264118
0.018365
0.264384
0.0239119
0.264729
0.0292761
0.265164
0.0344995
0.265703
0.0396159
0.26636
0.0446523
0.267155
0.0496287
0.268107
0.0545593
0.26924
0.0594529
0.270581
0.0643133
0.272157
0.0691394
0.274001
0.0739255
0.276147
0.0786613
0.278634
0.0833317
0.281499
0.0879166
0.284787
0.0923909
0.288538
0.0967239
0.292797
0.100879
0.297603
0.104815
0.302993
0.108485
0.308994
0.111835
0.315625
0.114811
0.322886
0.117353
0.330758
0.119405
0.339198
0.120913
0.348138
0.121831
0.357479
0.122122
0.121788
0.367103
0.270206
0.00639183
0.2704
0.0123878
0.270689
0.0180758
0.271078
0.0235232
0.271574
0.0287805
0.272186
0.0338871
0.272927
0.0388744
0.273813
0.0437666
0.27486
0.0485816
0.276089
0.053331
0.27752
0.0580214
0.279179
0.0626542
0.281092
0.0672261
0.283289
0.0717292
0.285799
0.0761513
0.288655
0.0804757
0.29189
0.0846813
0.295538
0.0887425
0.299633
0.0926295
0.304204
0.0963083
0.309278
0.0997408
0.314877
0.102886
0.321012
0.1057
0.327683
0.108139
0.334877
0.110159
0.342562
0.11172
0.35069
0.112785
0.359192
0.113329
0.36798
0.113334
0.112813
0.376955
0.276773
0.00625947
0.277031
0.0121296
0.277414
0.0176928
0.277925
0.0230126
0.278569
0.0281363
0.279356
0.0331005
0.280296
0.0379339
0.281404
0.0426586
0.282696
0.0472899
0.284189
0.0518375
0.285905
0.056306
0.287864
0.0606947
0.290092
0.0649988
0.292612
0.0692091
0.295451
0.0733121
0.298636
0.0772908
0.302193
0.081124
0.306149
0.0847872
0.310525
0.0882528
0.315344
0.09149
0.320619
0.0944659
0.326358
0.0971463
0.332562
0.0994963
0.33922
0.101482
0.346307
0.103072
0.353787
0.104239
0.36161
0.104962
0.36971
0.105228
0.378012
0.105033
0.104394
0.386431
0.283498
0.00609427
0.28382
0.0118078
0.284295
0.0172174
0.284925
0.0223822
0.285715
0.0273464
0.286672
0.0321436
0.287806
0.0368003
0.289129
0.0413358
0.290655
0.0457638
0.2924
0.0500919
0.294383
0.054323
0.296623
0.0584552
0.299139
0.0624824
0.301954
0.0663947
0.305088
0.0701785
0.308561
0.0738169
0.312395
0.07729
0.316607
0.0805752
0.321212
0.0836477
0.326221
0.086481
0.33164
0.0890476
0.337466
0.0913199
0.343691
0.0932713
0.350296
0.094877
0.357253
0.0961156
0.364521
0.0969705
0.372053
0.0974308
0.379788
0.0974928
0.387662
0.0971599
0.0964523
0.395603
0.290384
0.00589686
0.290768
0.0114236
0.291334
0.0166514
0.292081
0.0216349
0.293013
0.0264147
0.294134
0.0310221
0.295454
0.0354806
0.296982
0.0398078
0.298731
0.0440151
0.300714
0.0481088
0.302946
0.0520904
0.305444
0.0559571
0.308225
0.0597023
0.311303
0.0633158
0.314697
0.0667845
0.318422
0.0700926
0.32249
0.0732218
0.326913
0.076152
0.331699
0.0788619
0.336851
0.0813294
0.342366
0.0835323
0.348236
0.0854494
0.354447
0.087061
0.360974
0.0883502
0.367786
0.0893035
0.374844
0.0899121
0.382103
0.0901723
0.389509
0.0900867
0.397005
0.0896633
0.0889231
0.404534
0.297435
0.00566808
0.297879
0.0109789
0.298533
0.0159976
0.299394
0.0207743
0.300462
0.0253465
0.301742
0.0297424
0.303239
0.0339834
0.304962
0.038085
0.30692
0.0420569
0.309125
0.0459041
0.311588
0.0496272
0.314322
0.0532228
0.31734
0.0566842
0.320654
0.0600017
0.324276
0.063163
0.328215
0.0661536
0.332479
0.0689576
0.337073
0.0715577
0.341999
0.0739361
0.347253
0.076075
0.352828
0.0779573
0.35871
0.0795672
0.36488
0.0808912
0.371312
0.0819183
0.377974
0.0826414
0.384829
0.0830572
0.391834
0.0831671
0.398943
0.0829775
0.406108
0.0824989
0.081752
0.413279
0.304654
0.00540898
0.305157
0.0104756
0.305896
0.015259
0.306865
0.0198049
0.308064
0.0241475
0.309495
0.0283122
0.31116
0.0323182
0.313066
0.036179
0.31522
0.0399031
0.31763
0.0434943
0.320304
0.0469526
0.323253
0.0502745
0.326484
0.0534534
0.330005
0.0564803
0.333824
0.0593443
0.337945
0.0620327
0.34237
0.0645317
0.347101
0.0668272
0.352132
0.0689047
0.357457
0.0707505
0.363062
0.0723518
0.368932
0.0736977
0.375044
0.0747793
0.381371
0.0755908
0.387883
0.0761294
0.394545
0.0763958
0.401317
0.0763949
0.40816
0.0761349
0.415031
0.0756279
0.0748932
0.42189
0.312046
0.00512076
0.312606
0.00991607
0.313426
0.0144393
0.314499
0.0187317
0.315822
0.0228242
0.317395
0.0267395
0.319218
0.0304948
0.321295
0.0341018
0.323631
0.0375679
0.326229
0.0408959
0.329096
0.0440856
0.332237
0.0471334
0.335657
0.0500334
0.33936
0.0527775
0.343348
0.0553562
0.347622
0.0577587
0.35218
0.0599737
0.357017
0.0619898
0.362126
0.0637957
0.367495
0.0653813
0.37311
0.0667377
0.37895
0.0678577
0.384992
0.0687364
0.391212
0.0693714
0.397578
0.0697634
0.404058
0.0699158
0.410618
0.0698351
0.417221
0.0695312
0.423833
0.069016
0.0683074
0.430419
0.319616
0.00480472
0.320229
0.00930294
0.321126
0.0135423
0.322297
0.01756
0.323738
0.0213834
0.325445
0.0250329
0.327416
0.0285236
0.329652
0.0318658
0.332155
0.0350655
0.334925
0.0381252
0.337966
0.0410444
0.34128
0.0438199
0.344867
0.0464463
0.348728
0.0489168
0.352861
0.0512233
0.357262
0.0533569
0.361927
0.0553086
0.366848
0.0570696
0.372012
0.0586315
0.377406
0.0599871
0.383013
0.0611308
0.388812
0.0620583
0.394781
0.0627677
0.400893
0.0632595
0.40712
0.0635362
0.413433
0.0636031
0.4198
0.0634678
0.426191
0.0631404
0.432575
0.0626326
0.0619606
0.438921
0.327366
0.00446221
0.32803
0.00863883
0.329
0.0125721
0.330265
0.0162951
0.331816
0.0198321
0.333648
0.023201
0.335757
0.0264149
0.33814
0.0294827
0.340796
0.0324096
0.343723
0.0351977
0.346921
0.0378463
0.350389
0.0403525
0.354123
0.042712
0.358121
0.0449189
0.362378
0.0469667
0.366886
0.0488483
0.371638
0.0505568
0.376622
0.0520855
0.381825
0.0534287
0.38723
0.0545817
0.39282
0.0555411
0.398573
0.0563053
0.404466
0.0568744
0.410475
0.0572505
0.416574
0.0574379
0.422734
0.0574426
0.428929
0.0572727
0.435132
0.0569379
0.441315
0.0564496
0.055822
0.447453
0.335301
0.00409457
0.336014
0.00792639
0.337053
0.0115327
0.338406
0.0149426
0.340061
0.0181772
0.34201
0.0212521
0.344246