/*--------------------------------*- C++ -*----------------------------------*\
  =========                 |
  \\      /  F ield         | OpenFOAM: The Open Source CFD Toolbox
   \\    /   O peration     | Website:  https://openfoam.org
    \\  /    A nd           | Version:  dev
     \\/     M anipulation  |
\*---------------------------------------------------------------------------*/
FoamFile
{
    version     2.0;
    format      ascii;
    class       volVectorField;
    location    "2.6";
    object      U;
}
// * * * * * * * * * * * * * * * * * * * * * * * * * * * * * * * * * * * * * //

dimensions      [0 1 -1 0 0 0 0];

internalField   nonuniform List<vector> 
2790
(
(9.94399 0 0.0205248)
(9.87571 0 0.029591)
(9.77518 0 0.0359944)
(9.64939 0 0.0425625)
(9.50401 0 0.0493931)
(9.33996 0 0.0564371)
(9.15641 0 0.0638256)
(8.95246 0 0.0717221)
(8.72726 0 0.0802662)
(8.47985 0 0.0895848)
(8.209 0 0.0998047)
(7.91335 0 0.111056)
(7.59136 0 0.123471)
(7.24143 0 0.137175)
(6.86196 0 0.152281)
(6.45141 0 0.168877)
(6.00848 0 0.187003)
(5.53229 0 0.206623)
(5.02258 0 0.227591)
(4.48007 0 0.24961)
(3.9068 0 0.272172)
(3.3065 0 0.294518)
(2.68499 0 0.315609)
(2.05036 0 0.334275)
(1.41157 0 0.350591)
(0.797861 0 0.372868)
(0.110516 0 0.324965)
(-0.469529 0 -0.114869)
(-0.45378 0 -0.297071)
(-0.231144 0 -0.423801)
(9.9985 0 0.0407081)
(9.98144 0 0.0623927)
(9.93572 0 0.0791547)
(9.86411 0 0.0966434)
(9.7709 0 0.115146)
(9.65705 0 0.134514)
(9.52192 0 0.155003)
(9.36468 0 0.176973)
(9.18451 0 0.200738)
(8.98043 0 0.226581)
(8.75125 0 0.254775)
(8.49558 0 0.28559)
(8.21187 0 0.319277)
(7.89847 0 0.356047)
(7.55367 0 0.39604)
(7.17581 0 0.439278)
(6.76339 0 0.485602)
(6.31526 0 0.53459)
(5.83086 0 0.585457)
(5.3105 0 0.636942)
(4.7558 0 0.687184)
(4.17008 0 0.733619)
(3.559 0 0.772919)
(2.93129 0 0.801052)
(2.29973 0 0.813703)
(1.69277 0 0.807204)
(1.107 0 0.74718)
(0.658794 0 0.547857)
(0.186284 0 0.224495)
(-0.00819378 0 -0.453755)
(9.99559 0 0.0432155)
(9.97555 0 0.0752884)
(9.93177 0 0.10337)
(9.86485 0 0.132402)
(9.77771 0 0.163097)
(9.67145 0 0.195441)
(9.54574 0 0.229789)
(9.39997 0 0.266653)
(9.23345 0 0.306522)
(9.0454 0 0.349859)
(8.83482 0 0.397123)
(8.60052 0 0.44877)
(8.34112 0 0.505236)
(8.05515 0 0.566902)
(7.74101 0 0.634042)
(7.39706 0 0.706753)
(7.02172 0 0.784848)
(6.61357 0 0.867724)
(6.17155 0 0.954181)
(5.69527 0 1.04223)
(5.18528 0 1.12884)
(4.64363 0 1.20974)
(4.0745 0 1.27909)
(3.48512 0 1.32926)
(2.88663 0 1.35001)
(2.29929 0 1.32634)
(1.7317 0 1.22068)
(1.21615 0 0.972917)
(0.70107 0 0.570069)
(0.357981 0 -0.156659)
(9.99402 0 0.0495112)
(9.9718 0 0.0932297)
(9.92785 0 0.133606)
(9.8622 0 0.174253)
(9.77686 0 0.216485)
(9.67288 0 0.26072)
(9.55018 0 0.307495)
(9.40832 0 0.357484)
(9.24682 0 0.411362)
(9.0651 0 0.469777)
(8.86241 0 0.533372)
(8.63789 0 0.602789)
(8.39052 0 0.678652)
(8.11917 0 0.761526)
(7.82263 0 0.851861)
(7.49962 0 0.949902)
(7.14885 0 1.05556)
(6.76905 0 1.16823)
(6.35911 0 1.28658)
(5.91823 0 1.40822)
(5.44618 0 1.52941)
(4.94368 0 1.64461)
(4.41288 0 1.74605)
(3.85801 0 1.82311)
(3.2856 0 1.86125)
(2.70623 0 1.8402)
(2.12551 0 1.72588)
(1.55416 0 1.47774)
(0.95789 0 1.08358)
(0.509402 0 0.502208)
(9.99331 0 0.057229)
(9.96993 0 0.110989)
(9.9259 0 0.162148)
(9.86141 0 0.213404)
(9.77791 0 0.266424)
(9.67624 0 0.321991)
(9.5564 0 0.380786)
(9.41804 0 0.443577)
(9.26076 0 0.511148)
(9.08409 0 0.584262)
(8.88743 0 0.663677)
(8.67008 0 0.750148)
(8.43125 0 0.844411)
(8.1701 0 0.947149)
(7.88569 0 1.05893)
(7.57708 0 1.18011)
(7.24326 0 1.3107)
(6.8832 0 1.45017)
(6.49588 0 1.59719)
(6.08035 0 1.74927)
(5.6358 0 1.90233)
(5.16179 0 2.05021)
(4.65848 0 2.18405)
(4.12696 0 2.2916)
(3.56919 0 2.35641)
(2.98872 0 2.35716)
(2.38671 0 2.2648)
(1.7663 0 2.04749)
(1.08994 0 1.69125)
(0.536631 0 1.15399)
(9.99302 0 0.0655575)
(9.96922 0 0.128739)
(9.92553 0 0.190167)
(9.86248 0 0.251912)
(9.78121 0 0.315661)
(9.68233 0 0.382413)
(9.56587 0 0.452978)
(9.43154 0 0.528211)
(9.27899 0 0.608993)
(9.10781 0 0.696198)
(8.91749 0 0.79069)
(8.70742 0 0.893328)
(8.47693 0 1.00495)
(8.2253 0 1.12634)
(7.95175 0 1.25815)
(7.65547 0 1.40085)
(7.3356 0 1.55456)
(6.99121 0 1.71885)
(6.62127 0 1.89251)
(6.2246 0 2.07315)
(5.7999 0 2.25674)
(5.3457 0 2.43707)
(4.8604 0 2.60504)
(4.34244 0 2.74804)
(3.79019 0 2.84936)
(3.20241 0 2.888)
(2.57645 0 2.83803)
(1.91339 0 2.67142)
(1.17271 0 2.37381)
(0.549951 0 1.89422)
(9.99296 0 0.0740973)
(9.96925 0 0.146358)
(9.92634 0 0.217547)
(9.86503 0 0.289374)
(9.78635 0 0.363453)
(9.69074 0 0.440939)
(9.5782 0 0.522783)
(9.44853 0 0.609942)
(9.30143 0 0.70339)
(9.13652 0 0.804101)
(8.95335 0 0.913033)
(8.75137 0 1.03114)
(8.52997 0 1.15933)
(8.28848 0 1.29849)
(8.02617 0 1.44937)
(7.74225 0 1.61253)
(7.43584 0 1.7882)
(7.10595 0 1.97615)
(6.75136 0 2.17535)
(6.37058 0 2.38372)
(5.9617 0 2.59761)
(5.52227 0 2.81122)
(5.04921 0 3.01595)
(4.53874 0 3.19974)
(3.98645 0 3.34644)
(3.38775 0 3.43572)
(2.73714 0 3.44307)
(2.03617 0 3.34127)
(1.24172 0 3.11336)
(0.563503 0 2.69294)
(9.99306 0 0.0826141)
(9.9698 0 0.163657)
(9.92804 0 0.244124)
(9.8688 0 0.325575)
(9.79305 0 0.40956)
(9.70115 0 0.497337)
(9.59308 0 0.589982)
(9.46869 0 0.688549)
(9.32773 0 0.794098)
(9.16987 0 0.907689)
(8.99472 0 1.03037)
(8.80176 0 1.16318)
(8.59043 0 1.30714)
(8.36009 0 1.46321)
(8.11 0 1.63224)
(7.83934 0 1.81493)
(7.54712 0 2.01169)
(7.23218 0 2.22249)
(6.89302 0 2.44667)
(6.5277 0 2.68258)
(6.13365 0 2.9272)
(5.70745 0 3.17557)
(5.24462 0 3.42012)
(4.7395 0 3.64993)
(4.18526 0 3.84995)
(3.5746 0 4.0006)
(2.89942 0 4.07762)
(2.16206 0 4.05212)
(1.3161 0 3.90145)
(0.583215 0 3.53992)
(9.99326 0 0.090958)
(9.97071 0 0.180467)
(9.93043 0 0.269752)
(9.87357 0 0.36035)
(9.8011 0 0.453777)
(9.71332 0 0.551359)
(9.61023 0 0.654276)
(9.49169 0 0.763672)
(9.35752 0 0.880687)
(9.20746 0 1.00646)
(9.04113 0 1.14214)
(8.85811 0 1.28884)
(8.65787 0 1.44768)
(8.43977 0 1.61972)
(8.2031 0 1.80597)
(7.94696 0 2.00728)
(7.67026 0 2.22428)
(7.37163 0 2.45726)
(7.04927 0 2.70598)
(6.70076 0 2.96944)
(6.32286 0 3.24547)
(5.91121 0 3.53029)
(5.45998 0 3.81777)
(4.9617 0 4.09866)
(4.40718 0 4.35951)
(3.78625 0 4.58174)
(3.08748 0 4.74074)
(2.31267 0 4.80415)
(1.41064 0 4.74082)
(0.614315 0 4.44168)
(9.99352 0 0.0990255)
(9.97189 0 0.196644)
(9.93337 0 0.29429)
(9.87919 0 0.393539)
(9.81032 0 0.495903)
(9.72705 0 0.602757)
(9.62937 0 0.715369)
(9.51722 0 0.834961)
(9.39044 0 0.962752)
(9.24884 0 1.09996)
(9.09212 0 1.2478)
(8.9199 0 1.40749)
(8.7317 0 1.58025)
(8.52695 0 1.76726)
(8.30493 0 1.96969)
(8.06472 0 2.18857)
(7.80516 0 2.42483)
(7.52472 0 2.67915)
(7.22133 0 2.95184)
(6.89219 0 3.24267)
(6.53349 0 3.55057)
(6.13998 0 3.87321)
(5.70462 0 4.20635)
(5.21813 0 4.54298)
(4.66874 0 4.872)
(4.04271 0 5.17653)
(3.32362 0 5.4319)
(2.50976 0 5.60162)
(1.5419 0 5.64322)
(0.664083 0 5.41782)
(9.99384 0 0.106741)
(9.97329 0 0.212073)
(9.93676 0 0.317608)
(9.88552 0 0.424993)
(9.82055 0 0.535753)
(9.74213 0 0.651309)
(9.65028 0 0.772996)
(9.54497 0 0.902109)
(9.42613 0 1.03993)
(9.2936 0 1.18776)
(9.14718 0 1.34687)
(8.98654 0 1.51858)
(8.8113 0 1.7042)
(8.62093 0 1.90506)
(8.41477 0 2.12246)
(8.19194 0 2.35771)
(7.95126 0 2.61202)
(7.69115 0 2.88654)
(7.4094 0 3.1822)
(7.10299 0 3.4997)
(6.76773 0 3.83923)
(6.39776 0 4.20021)
(5.98506 0 4.58077)
(5.51868 0 4.97684)
(4.98409 0 5.38079)
(4.3631 0 5.77902)
(3.63186 0 6.14864)
(2.78018 0 6.45026)
(1.73354 0 6.62823)
(0.744897 0 6.50293)
(9.9942 0 0.114047)
(9.97486 0 0.226655)
(9.94052 0 0.33959)
(9.89246 0 0.454575)
(9.83165 0 0.573165)
(9.75838 0 0.696819)
(9.67272 0 0.826926)
(9.57467 0 0.964843)
(9.46422 0 1.11191)
(9.34131 0 1.26949)
(9.20579 0 1.43892)
(9.05745 0 1.6216)
(8.89597 0 1.81894)
(8.72094 0 2.03238)
(8.53179 0 2.26342)
(8.32773 0 2.51358)
(8.10768 0 2.78443)
(7.8701 0 3.07757)
(7.61288 0 3.39465)
(7.333 0 3.73732)
(7.0262 0 4.10718)
(6.68648 0 4.50565)
(6.30529 0 4.93362)
(5.87059 0 5.39086)
(5.36543 0 5.8747)
(4.76671 0 6.37757)
(4.04071 0 6.88259)
(3.16161 0 7.35302)
(2.02495 0 7.72295)
(0.880875 0 7.75707)
(9.99459 0 0.120898)
(9.97656 0 0.240312)
(9.94458 0 0.360136)
(9.89989 0 0.482167)
(9.84347 0 0.607996)
(9.77563 0 0.739113)
(9.69645 0 0.876954)
(9.60601 0 1.02292)
(9.50437 0 1.17841)
(9.39153 0 1.34482)
(9.26743 0 1.52356)
(9.13198 0 1.71608)
(8.98497 0 1.92389)
(8.82612 0 2.14855)
(8.655 0 2.3917)
(8.47099 0 2.6551)
(8.27319 0 2.94064)
(8.06029 0 3.25038)
(7.83045 0 3.58662)
(7.58095 0 3.95201)
(7.30795 0 4.34954)
(7.00585 0 4.78273)
(6.66648 0 5.25553)
(6.27786 0 5.77225)
(5.82201 0 6.33688)
(5.27226 0 6.95154)
(4.58458 0 7.61281)
(3.71027 0 8.30029)
(2.48862 0 8.958)
(1.12479 0 9.29353)
(9.99501 0 0.127259)
(9.97836 0 0.25298)
(9.94888 0 0.379161)
(9.90774 0 0.507668)
(9.85589 0 0.640127)
(9.79369 0 0.778055)
(9.72125 0 0.922921)
(9.63871 0 1.07617)
(9.54619 0 1.23922)
(9.44379 0 1.41351)
(9.33156 0 1.6005)
(9.20949 0 1.8017)
(9.07753 0 2.01866)
(8.93555 0 2.25305)
(8.78331 0 2.50665)
(8.62042 0 2.78139)
(8.44628 0 3.07944)
(8.25994 0 3.40326)
(8.06003 0 3.75573)
(7.84449 0 4.14034)
(7.61033 0 4.56138)
(7.35312 0 5.02424)
(7.06624 0 5.53589)
(6.73962 0 6.10532)
(6.35733 0 6.74425)
(5.89377 0 7.46779)
(5.30088 0 8.29518)
(4.50944 0 9.24705)
(3.26975 0 10.3416)
(1.60575 0 11.3602)
(9.99544 0 0.133103)
(9.98025 0 0.264607)
(9.95336 0 0.396594)
(9.9159 0 0.530985)
(9.86879 0 0.669437)
(9.81239 0 0.813488)
(9.7469 0 0.964631)
(9.67248 0 1.12433)
(9.58935 0 1.29404)
(9.49767 0 1.47521)
(9.39761 0 1.66934)
(9.28929 0 1.87795)
(9.17281 0 2.10266)
(9.04823 0 2.34519)
(8.91552 0 2.60741)
(8.77459 0 2.89138)
(8.62519 0 3.19947)
(8.46687 0 3.53442)
(8.29891 0 3.89955)
(8.12019 0 4.29893)
(7.929 0 4.73779)
(7.7228 0 5.22297)
(7.49776 0 5.7637)
(7.24802 0 6.37278)
(6.96412 0 7.06868)
(6.63058 0 7.87927)
(6.21466 0 8.85003)
(5.667 0 10.0642)
(4.69242 0 11.7303)
(2.68944 0 14.5957)
(0.168469 0 -0.178639)
(0.381288 0 -0.15708)
(0.604682 0 -0.12831)
(0.801642 0 -0.103732)
(0.966717 0 -0.0842358)
(1.10559 0 -0.0688559)
(1.22453 0 -0.0566904)
(1.32798 0 -0.0470359)
(1.41892 0 -0.0392976)
(1.49949 0 -0.0329935)
(1.57126 0 -0.0277572)
(1.63538 0 -0.0232536)
(1.69241 0 -0.0190404)
(1.74188 0 -0.0145447)
(1.78196 0 -0.00940308)
(1.81043 0 -0.00394263)
(1.82666 0 0.000838363)
(1.83263 0 0.00400472)
(1.8307 0 0.00569341)
(1.82171 0 0.00657884)
(1.80632 0 0.00717433)
(1.78786 0 0.00706893)
(1.77205 0 0.0067713)
(1.7642 0 0.006119)
(1.76786 0 0.00393099)
(1.78383 0 0.000818952)
(1.81194 0 -0.00319199)
(1.85172 0 -0.00814469)
(1.90172 0 -0.0132497)
(1.96966 0 -0.0156428)
(0.128526 0 -0.376809)
(0.330053 0 -0.346843)
(0.529617 0 -0.291067)
(0.707994 0 -0.240838)
(0.860776 0 -0.20047)
(0.992578 0 -0.1685)
(1.10836 0 -0.143169)
(1.21161 0 -0.123001)
(1.30469 0 -0.106719)
(1.38923 0 -0.0933109)
(1.46644 0 -0.0820789)
(1.53733 0 -0.0724296)
(1.60283 0 -0.0634361)
(1.6633 0 -0.0536075)
(1.7178 0 -0.041868)
(1.76404 0 -0.0290734)
(1.80008 0 -0.0176969)
(1.82727 0 -0.00815326)
(1.84944 0 0.00176905)
(1.86768 0 0.0105836)
(1.87803 0 0.0146039)
(1.88281 0 0.012476)
(1.88709 0 0.00511289)
(1.89275 0 -0.00496331)
(1.89838 0 -0.0153389)
(1.90485 0 -0.0245031)
(1.91159 0 -0.0318572)
(1.91832 0 -0.0373582)
(1.92635 0 -0.0400749)
(1.94261 0 -0.037147)
(0.0929391 0 -0.577442)
(0.25858 0 -0.538435)
(0.408828 0 -0.456951)
(0.544245 0 -0.382325)
(0.659511 0 -0.321908)
(0.758794 0 -0.273695)
(0.84562 0 -0.235176)
(0.922457 0 -0.204155)
(0.990999 0 -0.178715)
(1.05234 0 -0.157387)
(1.10713 0 -0.139315)
(1.15599 0 -0.124015)
(1.1999 0 -0.110518)
(1.24006 0 -0.096067)
(1.27657 0 -0.0775132)
(1.30747 0 -0.0554348)
(1.32804 0 -0.0384472)
(1.33839 0 -0.0314547)
(1.34864 0 -0.0261724)
(1.34358 0 -0.0151529)
(1.31509 0 -0.00341466)
(1.26361 0 0.00369796)
(1.19502 0 0.00502277)
(1.11829 0 0.00293715)
(1.04436 0 0.000428122)
(0.981423 0 -0.00266521)
(0.939062 0 -0.00655866)
(0.907353 0 -0.0122874)
(0.895886 0 -0.020329)
(0.91985 0 -0.0316933)
(0.0610484 0 -0.721978)
(0.181156 0 -0.667164)
(0.271672 0 -0.563244)
(0.356298 0 -0.470504)
(0.424811 0 -0.395722)
(0.482225 0 -0.335911)
(0.530367 0 -0.288056)
(0.570698 0 -0.249416)
(0.604379 0 -0.217538)
(0.632096 0 -0.190447)
(0.653872 0 -0.166991)
(0.669284 0 -0.146912)
(0.678464 0 -0.130269)
(0.682919 0 -0.115248)
(0.686169 0 -0.0986756)
(0.691278 0 -0.0766072)
(0.687431 0 -0.0464236)
(0.622747 0 -0.0148547)
(0.528219 0 0.0105108)
(0.455698 0 0.0379394)
(0.396515 0 0.0613703)
(0.335572 0 0.0747289)
(0.275924 0 0.0775373)
(0.220693 0 0.0699089)
(0.17406 0 0.05266)
(0.139026 0 0.0283682)
(0.126119 0 0.00324462)
(0.139408 0 -0.019937)
(0.164717 0 -0.0467274)
(0.21951 0 -0.0720894)
(0.0290266 0 -0.814256)
(0.0953875 0 -0.73832)
(0.118743 0 -0.615661)
(0.147619 0 -0.51111)
(0.162276 0 -0.426583)
(0.170175 0 -0.358648)
(0.171085 0 -0.304131)
(0.165756 0 -0.260047)
(0.15502 0 -0.223671)
(0.139556 0 -0.19258)
(0.119368 0 -0.164936)
(0.0932122 0 -0.139434)
(0.0576835 0 -0.114773)
(0.00278707 0 -0.089072)
(-0.0615304 0 -0.0592803)
(-0.135587 0 -0.0211825)
(-0.207765 0 0.0199129)
(-0.239999 0 0.0485926)
(-0.279728 0 0.0626299)
(-0.316252 0 0.072334)
(-0.348796 0 0.0833949)
(-0.377346 0 0.0899198)
(-0.399625 0 0.0871318)
(-0.415234 0 0.0742331)
(-0.424399 0 0.0528187)
(-0.42845 0 0.0257388)
(-0.427365 0 -0.00346961)
(-0.413726 0 -0.032332)
(-0.401004 0 -0.059036)
(-0.392295 0 -0.0786687)
(-0.00522971 0 -0.844768)
(0.000246168 0 -0.744549)
(-0.0459996 0 -0.606718)
(-0.0777385 0 -0.495413)
(-0.121584 0 -0.404732)
(-0.168907 0 -0.331806)
(-0.221064 0 -0.273042)
(-0.277594 0 -0.225078)
(-0.338149 0 -0.184869)
(-0.402179 0 -0.149917)
(-0.468628 0 -0.11851)
(-0.535713 0 -0.0894974)
(-0.601573 0 -0.0621954)
(-0.665401 0 -0.0367937)
(-0.726186 0 -0.0127217)
(-0.775958 0 0.0102306)
(-0.807788 0 0.0321787)
(-0.836583 0 0.0545789)
(-0.861246 0 0.0738629)
(-0.881872 0 0.0860783)
(-0.896869 0 0.0940095)
(-0.905674 0 0.0961365)
(-0.908637 0 0.0898564)
(-0.907329 0 0.0746599)
(-0.903804 0 0.0518139)
(-0.900039 0 0.023735)
(-0.896473 0 -0.00637892)
(-0.890383 0 -0.036032)
(-0.888345 0 -0.0629372)
(-0.889978 0 -0.0829667)
(-0.0460964 0 -0.805616)
(-0.106094 0 -0.681593)
(-0.216908 0 -0.538974)
(-0.312883 0 -0.426216)
(-0.413133 0 -0.335469)
(-0.51209 0 -0.26315)
(-0.609034 0 -0.20557)
(-0.702547 0 -0.159558)
(-0.791407 0 -0.122151)
(-0.874785 0 -0.0908229)
(-0.952266 0 -0.0637903)
(-1.02368 0 -0.0399236)
(-1.08858 0 -0.0183791)
(-1.14462 0 0.00123265)
(-1.18918 0 0.0194166)
(-1.22475 0 0.0370354)
(-1.25433 0 0.0544959)
(-1.27748 0 0.0709042)
(-1.29458 0 0.0842256)
(-1.3061 0 0.0931569)
(-1.31178 0 0.0975405)
(-1.3118 0 0.0961826)
(-1.3073 0 0.0875591)
(-1.30025 0 0.0713505)
(-1.2929 0 0.0485734)
(-1.28715 0 0.0212451)
(-1.28371 0 -0.00803047)
(-1.28194 0 -0.0369075)
(-1.28465 0 -0.0636047)
(-1.28887 0 -0.0835156)
(-0.0924324 0 -0.697614)
(-0.214332 0 -0.555689)
(-0.387383 0 -0.415325)
(-0.54051 0 -0.308123)
(-0.686526 0 -0.225883)
(-0.821319 0 -0.162987)
(-0.944323 0 -0.114556)
(-1.05565 0 -0.0771809)
(-1.15564 0 -0.048169)
(-1.24481 0 -0.0252683)
(-1.32175 0 -0.00708134)
(-1.38668 0 0.00784526)
(-1.44099 0 0.0207153)
(-1.48684 0 0.0326439)
(-1.52669 0 0.0447518)
(-1.5602 0 0.0575042)
(-1.58698 0 0.0704262)
(-1.60681 0 0.08218)
(-1.6201 0 0.0912072)
(-1.62743 0 0.0965322)
(-1.6292 0 0.0975887)
(-1.62609 0 0.0934624)
(-1.61947 0 0.0832129)
(-1.61128 0 0.066664)
(-1.60363 0 0.0446245)
(-1.59836 0 0.0187486)
(-1.59643 0 -0.00881397)
(-1.59823 0 -0.0361589)
(-1.60426 0 -0.0617851)
(-1.60966 0 -0.0805868)
(-0.145061 0 -0.52347)
(-0.326283 0 -0.374044)
(-0.554771 0 -0.247797)
(-0.754543 0 -0.156515)
(-0.934791 0 -0.0892882)
(-1.09305 0 -0.0408056)
(-1.22634 0 -0.00895579)
(-1.33836 0 0.012166)
(-1.43263 0 0.0263785)
(-1.51214 0 0.0361374)
(-1.58084 0 0.0436429)
(-1.64099 0 0.0502137)
(-1.69339 0 0.0564688)
(-1.73862 0 0.0628408)
(-1.77694 0 0.0696967)
(-1.80843 0 0.077194)
(-1.83309 0 0.0849703)
(-1.85104 0 0.0919503)
(-1.86271 0 0.096833)
(-1.86866 0 0.0986474)
(-1.86955 0 0.0967225)
(-1.86631 0 0.0903542)
(-1.86034 0 0.0789404)
(-1.85346 0 0.062397)
(-1.84756 0 0.0413796)
(-1.84435 0 0.0172532)
(-1.84499 0 -0.00826268)
(-1.85041 0 -0.0337713)
(-1.85949 0 -0.0578452)
(-1.86591 0 -0.0751521)
(-0.209461 0 -0.299801)
(-0.459665 0 -0.146709)
(-0.736269 0 -0.0238213)
(-0.955008 0 0.0391395)
(-1.13681 0 0.0709984)
(-1.28638 0 0.0851665)
(-1.41339 0 0.0917993)
(-1.52203 0 0.094375)
(-1.61535 0 0.0947292)
(-1.69573 0 0.0940536)
(-1.76511 0 0.0930887)
(-1.82499 0 0.0922448)
(-1.87647 0 0.0918091)
(-1.92025 0 0.0920942)
(-1.95679 0 0.0933799)
(-1.98649 0 0.0957011)
(-2.00969 0 0.0986222)
(-2.02675 0 0.101172)
(-2.03813 0 0.102196)
(-2.04434 0 0.100757)
(-2.04607 0 0.0962039)
(-2.04434 0 0.0880076)
(-2.04056 0 0.0757742)
(-2.0364 0 0.0594573)
(-2.03353 0 0.0395779)
(-2.03351 0 0.0172615)
(-2.03759 0 -0.00615009)
(-2.04683 0 -0.0297088)
(-2.05895 0 -0.0520922)
(-2.06645 0 -0.0680059)
(-0.269409 0 0.0826051)
(-0.549779 0 0.185719)
(-0.837506 0 0.213019)
(-1.06591 0 0.221584)
(-1.25586 0 0.21711)
(-1.41357 0 0.206186)
(-1.54501 0 0.192716)
(-1.65517 0 0.178653)
(-1.74818 0 0.165087)
(-1.82716 0 0.152779)
(-1.8946 0 0.1422)
(-1.95239 0 0.133352)
(-2.00177 0 0.126007)
(-2.04347 0 0.120114)
(-2.07804 0 0.115841)
(-2.1061 0 0.113209)
(-2.12832 0 0.111724)
(-2.14523 0 0.110365)
(-2.15727 0 0.107969)
(-2.16483 0 0.103628)
(-2.16854 0 0.0967911)
(-2.1694 0 0.0871191)
(-2.16881 0 0.074371)
(-2.16828 0 0.0584837)
(-2.16927 0 0.0398062)
(-2.17312 0 0.0192257)
(-2.18117 0 -0.0021931)
(-2.19442 0 -0.0238336)
(-2.20968 0 -0.0445672)
(-2.21835 0 -0.0593322)
(-0.28833 0 0.449009)
(-0.600212 0 0.48937)
(-0.920905 0 0.462576)
(-1.16617 0 0.420609)
(-1.36202 0 0.375313)
(-1.51911 0 0.332242)
(-1.64678 0 0.294093)
(-1.75218 0 0.261309)
(-1.84025 0 0.233093)
(-1.91439 0 0.208989)
(-1.97737 0 0.18894)
(-2.0314 0 0.172414)
(-2.07776 0 0.158488)
(-2.11695 0 0.146659)
(-2.14941 0 0.137083)
(-2.17595 0 0.129916)
(-2.19756 0 0.124626)
(-2.21496 0 0.120002)
(-2.22846 0 0.114719)
(-2.23825 0 0.107863)
(-2.24479 0 0.0990499)
(-2.24903 0 0.0881808)
(-2.25233 0 0.0751552)
(-2.25608 0 0.0598426)
(-2.26147 0 0.0423721)
(-2.26965 0 0.0233929)
(-2.28207 0 0.00377567)
(-2.2994 0 -0.0160695)
(-2.31795 0 -0.0352359)
(-2.32791 0 -0.0490648)
(-0.330818 0 0.872455)
(-0.689839 0 0.849225)
(-1.03668 0 0.734035)
(-1.28113 0 0.62254)
(-1.4666 0 0.529473)
(-1.61043 0 0.451761)
(-1.72474 0 0.388362)
(-1.81848 0 0.337587)
(-1.89698 0 0.295646)
(-1.96299 0 0.260403)
(-2.01916 0 0.231678)
(-2.06804 0 0.208493)
(-2.11082 0 0.188839)
(-2.14735 0 0.171567)
(-2.17766 0 0.157047)
(-2.20275 0 0.145894)
(-2.22408 0 0.137583)
(-2.24258 0 0.13049)
(-2.25836 0 0.122922)
(-2.27121 0 0.113926)
(-2.28129 0 0.103377)
(-2.28948 0 0.0915228)
(-2.29718 0 0.0784212)
(-2.30571 0 0.063807)
(-2.31596 0 0.0475082)
(-2.32881 0 0.0299201)
(-2.34572 0 0.0118161)
(-2.36733 0 -0.00638639)
(-2.38936 0 -0.0240244)
(-2.40075 0 -0.0370295)
(-0.416536 0 1.37392)
(-0.847656 0 1.25684)
(-1.21055 0 1.00956)
(-1.42447 0 0.806295)
(-1.57553 0 0.66502)
(-1.69115 0 0.554252)
(-1.78141 0 0.467717)
(-1.85637 0 0.402761)
(-1.92135 0 0.350212)
(-1.97658 0 0.305159)
(-2.02376 0 0.269001)
(-2.06637 0 0.240966)
(-2.10554 0 0.217081)
(-2.13974 0 0.195012)
(-2.16799 0 0.175829)
(-2.19162 0 0.161299)
(-2.21296 0 0.150978)
(-2.23328 0 0.142417)
(-2.25227 0 0.133232)
(-2.26903 0 0.122404)
(-2.28326 0 0.110242)
(-2.29583 0 0.0975242)
(-2.30832 0 0.0845203)
(-2.32208 0 0.0707188)
(-2.33766 0 0.0555067)
(-2.3555 0 0.0389998)
(-2.377 0 0.0220422)
(-2.40309 0 0.00532048)
(-2.42871 0 -0.0107673)
(-2.4417 0 -0.0228862)
(-0.598106 0 2.24519)
(-1.11456 0 1.86122)
(-1.48151 0 1.299)
(-1.60934 0 0.922914)
(-1.6872 0 0.756882)
(-1.75985 0 0.630498)
(-1.81509 0 0.526628)
(-1.86415 0 0.453522)
(-1.91374 0 0.395157)
(-1.95707 0 0.341002)
(-1.99308 0 0.298747)
(-2.02834 0 0.269117)
(-2.06472 0 0.243644)
(-2.09776 0 0.217402)
(-2.12425 0 0.193314)
(-2.14621 0 0.175878)
(-2.16781 0 0.164874)
(-2.19093 0 0.156151)
(-2.21437 0 0.146051)
(-2.23606 0 0.133529)
(-2.25503 0 0.119646)
(-2.27225 0 0.106049)
(-2.28981 0 0.0933233)
(-2.30924 0 0.0805264)
(-2.3307 0 0.0663578)
(-2.35392 0 0.0506087)
(-2.38006 0 0.034381)
(-2.41045 0 0.0189357)
(-2.43991 0 0.00462926)
(-2.45473 0 -0.00640412)
(9.9959 0 0.138503)
(9.98223 0 0.27535)
(9.95807 0 0.412689)
(9.92447 0 0.552486)
(9.88232 0 0.696418)
(9.83203 0 0.846039)
(9.7738 0 1.00285)
(9.70791 0 1.16834)
(9.63463 0 1.34395)
(9.55422 0 1.53116)
(9.46697 0 1.73145)
(9.37313 0 1.94638)
(9.27297 0 2.17757)
(9.16675 0 2.42676)
(9.05472 0 2.69586)
(8.9371 0 2.987)
(8.81408 0 3.30264)
(8.6858 0 3.64566)
(8.55235 0 4.01958)
(8.41371 0 4.42875)
(8.26983 0 4.87883)
(8.1206 0 5.37726)
(7.96599 0 5.93421)
(7.80629 0 6.56402)
(7.64277 0 7.28776)
(7.48047 0 8.13803)
(7.33284 0 9.16881)
(7.29037 0 10.4737)
(7.75285 0 12.1977)
(7.94394 0 14.9173)
(9.99638 0 0.143467)
(9.98432 0 0.285213)
(9.96302 0 0.427429)
(9.93345 0 0.572112)
(9.89647 0 0.720954)
(9.85248 0 0.875513)
(9.80178 0 1.03729)
(9.74468 0 1.20778)
(9.68153 0 1.38841)
(9.61272 0 1.58066)
(9.53862 0 1.78599)
(9.45965 0 2.00594)
(9.37626 0 2.24212)
(9.28892 0 2.49624)
(9.19814 0 2.77021)
(9.10452 0 3.06612)
(9.0087 0 3.38639)
(8.91144 0 3.73389)
(8.81365 0 4.11204)
(8.71651 0 4.52511)
(8.62165 0 4.9785)
(8.53142 0 5.47923)
(8.44956 0 6.03661)
(8.38237 0 6.6632)
(8.34104 0 7.3762)
(8.34774 0 8.19894)
(8.44146 0 9.16149)
(8.67826 0 10.2969)
(9.32723 0 11.5491)
(9.82081 0 12.631)
(9.99688 0 0.147908)
(9.98649 0 0.294034)
(9.96815 0 0.440593)
(9.94276 0 0.5896)
(9.91111 0 0.74275)
(9.87363 0 0.901593)
(9.83066 0 1.06763)
(9.78258 0 1.24231)
(9.72982 0 1.42707)
(9.67284 0 1.62334)
(9.61216 0 1.83256)
(9.54833 0 2.05621)
(9.48196 0 2.29584)
(9.41376 0 2.55312)
(9.34452 0 2.82983)
(9.27517 0 3.12798)
(9.2068 0 3.44984)
(9.14075 0 3.79803)
(9.0787 0 4.17567)
(9.02288 0 4.58652)
(8.97631 0 5.03515)
(8.94326 0 5.52723)
(8.93004 0 6.06973)
(8.94617 0 6.67099)
(9.00616 0 7.34042)
(9.13216 0 8.08655)
(9.35516 0 8.91111)
(9.68453 0 9.80267)
(10.2496 0 10.7094)
(10.9359 0 11.4201)
(9.9974 0 0.151774)
(9.98872 0 0.301704)
(9.97343 0 0.452013)
(9.95232 0 0.604717)
(9.92613 0 0.761503)
(9.8953 0 0.923906)
(9.86022 0 1.0934)
(9.82132 0 1.2714)
(9.7791 0 1.45932)
(9.73412 0 1.65852)
(9.68699 0 1.87038)
(9.63841 0 2.09632)
(9.58915 0 2.3378)
(9.54012 0 2.59634)
(9.49236 0 2.87361)
(9.4471 0 3.17139)
(9.40584 0 3.49171)
(9.37039 0 3.83679)
(9.34306 0 4.20924)
(9.32681 0 4.612)
(9.32557 0 5.04847)
(9.34464 0 5.52247)
(9.39127 0 6.03811)
(9.47534 0 6.59933)
(9.61005 0 7.20883)
(9.81219 0 7.86622)
(10.1044 0 8.5643)
(10.4953 0 9.28827)
(11.0514 0 10.0279)
(11.8423 0 10.6701)
(9.99792 0 0.155018)
(9.99099 0 0.308132)
(9.97881 0 0.461554)
(9.96205 0 0.617287)
(9.9414 0 0.776997)
(9.91731 0 0.94219)
(9.8902 0 1.1143)
(9.86056 0 1.29471)
(9.82895 0 1.48476)
(9.796 0 1.68575)
(9.76243 0 1.89898)
(9.72903 0 2.12576)
(9.69675 0 2.36741)
(9.66665 0 2.62532)
(9.63997 0 2.90092)
(9.61821 0 3.19576)
(9.60315 0 3.51149)
(9.59695 0 3.84986)
(9.60231 0 4.21281)
(9.62261 0 4.60236)
(9.66216 0 5.02061)
(9.72649 0 5.46956)
(9.82265 0 5.9508)
(9.95958 0 6.46501)
(10.1483 0 7.01108)
(10.4019 0 7.58508)
(10.7375 0 8.17888)
(11.1667 0 8.77776)
(11.7123 0 9.37018)
(12.4629 0 9.88133)
(9.99845 0 0.157597)
(9.99329 0 0.313233)
(9.98424 0 0.46909)
(9.97187 0 0.627143)
(9.9568 0 0.789026)
(9.93947 0 0.956204)
(9.92035 0 1.13006)
(9.89996 0 1.31193)
(9.87891 0 1.50305)
(9.85791 0 1.70467)
(9.83774 0 1.91797)
(9.81931 0 2.14412)
(9.80365 0 2.38431)
(9.79196 0 2.63971)
(9.78565 0 2.91153)
(9.78637 0 3.20098)
(9.79608 0 3.5093)
(9.81715 0 3.83775)
(9.85243 0 4.18753)
(9.90542 0 4.55976)
(9.98038 0 4.95534)
(10.0825 0 5.37472)
(10.2182 0 5.81764)
(10.3949 0 6.28263)
(10.6214 0 6.76642)
(10.9073 0 7.26322)
(11.2639 0 7.76381)
(11.699 0 8.25266)
(12.2134 0 8.7131)
(12.8866 0 9.1037)
(9.99898 0 0.159471)
(9.99559 0 0.316928)
(9.98967 0 0.474506)
(9.9817 0 0.634138)
(9.97219 0 0.797411)
(9.96159 0 0.965739)
(9.95039 0 1.14045)
(9.93916 0 1.32278)
(9.92853 0 1.51393)
(9.91926 0 1.715)
(9.9122 0 1.92707)
(9.9083 0 2.15117)
(9.9087 0 2.38829)
(9.91466 0 2.63941)
(9.92769 0 2.90544)
(9.94951 0 3.18727)
(9.98217 0 3.48573)
(10.0281 0 3.80154)
(10.09 0 4.13523)
(10.1714 0 4.48712)
(10.2761 0 4.8571)
(10.4087 0 5.24446)
(10.5746 0 5.64762)
(10.7795 0 6.06377)
(11.03 0 6.48842)
(11.3324 0 6.91489)
(11.6928 0 7.33384)
(12.1152 0 7.73189)
(12.5935 0 8.09452)
(13.1966 0 8.40129)
(9.99951 0 0.160607)
(9.99787 0 0.319151)
(9.99507 0 0.477706)
(9.99144 0 0.638146)
(9.98743 0 0.802001)
(9.98348 0 0.970623)
(9.98007 0 1.14526)
(9.97781 0 1.32709)
(9.97735 0 1.51718)
(9.97947 0 1.71655)
(9.98506 0 1.92613)
(9.99511 0 2.14679)
(10.0108 0 2.37934)
(10.0334 0 2.62451)
(10.0645 0 2.88296)
(10.1057 0 3.15524)
(10.1592 0 3.44177)
(10.2272 0 3.74278)
(10.3123 0 4.05825)
(10.4176 0 4.3878)
(10.5464 0 4.73057)
(10.7027 0 5.08505)
(10.8905 0 5.44882)
(11.1141 0 5.8184)
(11.3778 0 6.18886)
(11.6853 0 6.55369)
(12.0395 0 6.90461)
(12.4419 0 7.23135)
(12.8847 0 7.52281)
(13.4259 0 7.76776)
(10 0 0.160976)
(10.0001 0 0.319848)
(10.0004 0 0.47861)
(10.001 0 0.639065)
(10.0024 0 0.802676)
(10.0049 0 0.970724)
(10.0091 0 1.14438)
(10.0155 0 1.32471)
(10.0249 0 1.51271)
(10.038 0 1.70924)
(10.0556 0 1.91511)
(10.0789 0 2.13103)
(10.1089 0 2.3576)
(10.147 0 2.59535)
(10.1946 0 2.84465)
(10.2534 0 3.10576)
(10.3254 0 3.37872)
(10.4125 0 3.66336)
(10.5172 0 3.95918)
(10.6421 0 4.26531)
(10.7899 0 4.58037)
(10.9636 0 4.90233)
(11.1663 0 5.22841)
(11.4009 0 5.55491)
(11.6699 0 5.87708)
(11.9753 0 6.1891)
(12.3178 0 6.48411)
(12.6971 0 6.75433)
(13.1056 0 6.99144)
(13.5919 0 7.18864)
(10.0005 0 0.160557)
(10.0023 0 0.318976)
(10.0056 0 0.477158)
(10.0104 0 0.636822)
(10.017 0 0.799355)
(10.0258 0 0.965958)
(10.0373 0 1.13771)
(10.052 0 1.31559)
(10.0708 0 1.50046)
(10.0942 0 1.69308)
(10.1232 0 1.89411)
(10.1588 0 2.10409)
(10.2021 0 2.32344)
(10.2543 0 2.55246)
(10.3168 0 2.79131)
(10.3912 0 3.03995)
(10.4792 0 3.29813)
(10.5826 0 3.56534)
(10.7034 0 3.84076)
(10.8438 0 4.12315)
(11.0059 0 4.41082)
(11.1918 0 4.70154)
(11.4038 0 4.99241)
(11.6435 0 5.27988)
(11.9122 0 5.55966)
(12.2106 0 5.82679)
(12.5382 0 6.07576)
(12.8936 0 6.3007)
(13.2699 0 6.49561)
(13.7086 0 6.65634)
(10.001 0 0.159336)
(10.0044 0 0.316506)
(10.0106 0 0.473309)
(10.0194 0 0.63137)
(10.031 0 0.791991)
(10.0458 0 0.956285)
(10.0643 0 1.12524)
(10.087 0 1.29973)
(10.1145 0 1.48051)
(10.1477 0 1.6682)
(10.1872 0 1.86334)
(10.2342 0 2.06629)
(10.2895 0 2.27733)
(10.3544 0 2.49655)
(10.4302 0 2.72389)
(10.5181 0 2.9591)
(10.6197 0 3.20169)
(10.7365 0 3.45091)
(10.8702 0 3.70569)
(11.0224 0 3.96462)
(11.1946 0 4.22587)
(11.3885 0 4.48714)
(11.6052 0 4.74569)
(11.8456 0 4.99827)
(12.1102 0 5.24116)
(12.3987 0 5.47029)
(12.7098 0 5.68135)
(13.0419 0 5.86999)
(13.3887 0 6.03201)
(13.7867 0 6.1649)
(10.0015 0 0.157304)
(10.0065 0 0.312424)
(10.0153 0 0.467046)
(10.028 0 0.622692)
(10.0444 0 0.780574)
(10.0649 0 0.941714)
(10.09 0 1.107)
(10.1201 0 1.27721)
(10.1558 0 1.45298)
(10.198 0 1.63481)
(10.2472 0 1.82311)
(10.3044 0 2.0181)
(10.3706 0 2.2199)
(10.4467 0 2.42844)
(10.5339 0 2.64349)
(10.6333 0 2.86462)
(10.7462 0 3.09116)
(10.8738 0 3.32222)
(11.0174 0 3.55659)
(11.1781 0 3.79277)
(11.3571 0 4.02894)
(11.5553 0 4.2629)
(11.7732 0 4.49213)
(12.0112 0 4.7138)
(12.2691 0 4.92478)
(12.546 0 5.12183)
(12.8404 0 5.30163)
(13.1504 0 5.46103)
(13.4707 0 5.59714)
(13.8336 0 5.70844)
(10.0019 0 0.154459)
(10.0084 0 0.306728)
(10.0199 0 0.458371)
(10.0361 0 0.610801)
(10.057 0 0.765134)
(10.0829 0 0.9223)
(10.1141 0 1.08309)
(10.1511 0 1.24817)
(10.1944 0 1.41808)
(10.2447 0 1.59322)
(10.3027 0 1.77384)
(10.3691 0 1.96006)
(10.4448 0 2.15187)
(10.5306 0 2.34906)
(10.6275 0 2.55127)
(10.7365 0 2.75793)
(10.8585 0 2.96829)
(10.9944 0 3.18134)
(11.1453 0 3.39585)
(11.3118 0 3.61031)
(11.4947 0 3.82299)
(11.6943 0 4.03188)
(11.9109 0 4.23476)
(12.1442 0 4.42919)
(12.3937 0 4.61267)
(12.6583 0 4.7826)
(12.9363 0 4.93653)
(13.2259 0 5.07218)
(13.5225 0 5.18758)
(13.8551 0 5.28188)
(10.0024 0 0.150809)
(10.0102 0 0.299432)
(10.0241 0 0.447307)
(10.0437 0 0.595735)
(10.0689 0 0.745735)
(10.0997 0 0.898139)
(10.1365 0 1.05365)
(10.1798 0 1.21282)
(10.23 0 1.3761)
(10.2877 0 1.54378)
(10.3535 0 1.71601)
(10.428 0 1.89281)
(10.5119 0 2.07403)
(10.6059 0 2.25939)
(10.7109 0 2.44843)
(10.8276 0 2.6405)
(10.9567 0 2.83478)
(11.0988 0 3.03024)
(11.2546 0 3.22566)
(11.4246 0 3.41962)
(11.609 0 3.61052)
(11.8079 0 3.79658)
(12.0212 0 3.97587)
(12.2484 0 4.14641)
(12.4886 0 4.30615)
(12.7407 0 4.45313)
(13.003 0 4.5855)
(13.2738 0 4.70166)
(13.5492 0 4.80029)
(13.8556 0 4.88096)
(10.0027 0 0.146365)
(10.0119 0 0.290561)
(10.0281 0 0.433899)
(10.0508 0 0.577562)
(10.0798 0 0.722472)
(10.1151 0 0.869368)
(10.1571 0 1.01886)
(10.2061 0 1.17141)
(10.2625 0 1.32737)
(10.3268 0 1.48693)
(10.3993 0 1.65017)
(10.4808 0 1.81701)
(10.5717 0 1.98723)
(10.6726 0 2.16046)
(10.7841 0 2.33618)
(10.9068 0 2.51371)
(11.0411 0 2.69221)
(11.1875 0 2.87068)
(11.3464 0 3.04796)
(11.5179 0 3.22273)
(11.702 0 3.39357)
(11.8986 0 3.55894)
(12.1072 0 3.71722)
(12.3273 0 3.86679)
(12.5578 0 4.00604)
(12.7976 0 4.13348)
(13.0451 0 4.24776)
(13.2988 0 4.34777)
(13.5553 0 4.43263)
(13.8389 0 4.50219)
(10.0031 0 0.141145)
(10.0134 0 0.280154)
(10.0317 0 0.418206)
(10.0573 0 0.556371)
(10.0898 0 0.695472)
(10.1293 0 0.836159)
(10.1759 0 0.978948)
(10.23 0 1.12423)
(10.2918 0 1.27226)
(10.3617 0 1.42315)
(10.4402 0 1.57691)
(10.5275 0 1.73339)
(10.6242 0 1.89231)
(10.7307 0 2.05326)
(10.8473 0 2.21568)
(10.9745 0 2.37889)
(11.1125 0 2.54207)
(11.2616 0 2.70427)
(11.4219 0 2.86442)
(11.5933 0 3.02135)
(11.7757 0 3.1738)
(11.9687 0 3.32048)
(12.1718 0 3.46005)
(12.3843 0 3.59121)
(12.605 0 3.71271)
(12.8329 0 3.82344)
(13.0667 0 3.92242)
(13.3047 0 4.00888)
(13.5445 0 4.08229)
(13.8081 0 4.14264)
(10.0034 0 0.135173)
(10.0148 0 0.268258)
(10.035 0 0.400305)
(10.0632 0 0.532271)
(10.0988 0 0.664885)
(10.142 0 0.79871)
(10.1927 0 0.93418)
(10.2513 0 1.07161)
(10.3178 0 1.21117)
(10.3927 0 1.35294)
(10.4761 0 1.49683)