/*--------------------------------*- C++ -*----------------------------------*\
  =========                 |
  \\      /  F ield         | OpenFOAM: The Open Source CFD Toolbox
   \\    /   O peration     | Website:  https://openfoam.org
    \\  /    A nd           | Version:  dev
     \\/     M anipulation  |
\*---------------------------------------------------------------------------*/
FoamFile
{
    version     2.0;
    format      ascii;
    class       surfaceVectorField;
    location    "2.6";
    object      Uf;
}
// * * * * * * * * * * * * * * * * * * * * * * * * * * * * * * * * * * * * * //

dimensions      [0 1 -1 0 0 0 0];

internalField   nonuniform List<vector> 
5457
(
(9.92087 0 0.0251121)
(9.97124 0 0.0387492)
(9.82399 0 0.0328309)
(9.92858 0 0.0485918)
(9.70957 0 0.0393177)
(9.85545 0 0.0587779)
(9.57537 0 0.0460186)
(9.75675 0 0.0706059)
(9.42129 0 0.0529572)
(9.63746 0 0.0830285)
(9.24742 0 0.0601755)
(9.49851 0 0.0959537)
(9.05347 0 0.067821)
(9.33916 0 0.109631)
(8.83874 0 0.0760452)
(9.15857 0 0.124309)
(8.6023 0 0.0849812)
(8.95589 0 0.140188)
(8.34301 0 0.0947558)
(8.73014 0 0.157454)
(8.05956 0 0.105498)
(8.48013 0 0.17629)
(7.75048 0 0.117338)
(8.20447 0 0.196876)
(7.41422 0 0.130405)
(7.90161 0 0.219379)
(7.04914 0 0.144818)
(7.56995 0 0.243938)
(6.65365 0 0.160679)
(7.20781 0 0.270645)
(6.22633 0 0.178048)
(6.81361 0 0.299509)
(5.76604 0 0.19693)
(6.38594 0 0.330418)
(5.27219 0 0.217232)
(5.92378 0 0.363083)
(4.745 0 0.238732)
(5.42672 0 0.39697)
(4.18585 0 0.261026)
(4.89529 0 0.431226)
(3.59765 0 0.283478)
(4.3313 0 0.464603)
(2.98526 0 0.30519)
(3.73829 0 0.495403)
(2.35586 0 0.325054)
(3.12199 0 0.521486)
(1.71888 0 0.34253)
(2.49082 0 0.540527)
(1.08417 0 0.361862)
(1.85565 0 0.55164)
(0.451693 0 0.34863)
(1.24532 0 0.562987)
(-0.145899 0 0.10242)
(0.608758 0 0.544804)
(-0.423621 0 -0.207059)
(0.0946325 0 0.259315)
(-0.402141 0 -0.361193)
(-0.133748 0 -0.0205415)
(-0.119669 0 -0.393872)
(9.9964 0 0.05168)
(9.99704 0 0.0405115)
(9.95877 0 0.0708739)
(9.97849 0 0.0674679)
(9.8982 0 0.0880036)
(9.93375 0 0.0898896)
(9.81652 0 0.106005)
(9.86448 0 0.11358)
(9.71349 0 0.124946)
(9.7743 0 0.138545)
(9.58896 0 0.144881)
(9.66425 0 0.164681)
(9.44259 0 0.166119)
(9.53383 0 0.19237)
(9.27371 0 0.188998)
(9.38233 0 0.222071)
(9.08144 0 0.213814)
(9.20898 0 0.25419)
(8.86464 0 0.240846)
(9.01292 0 0.289106)
(8.62201 0 0.270366)
(8.79304 0 0.327194)
(8.35206 0 0.302635)
(8.54805 0 0.368825)
(8.05321 0 0.337881)
(8.2765 0 0.414352)
(7.72375 0 0.376282)
(7.97681 0 0.464077)
(7.36198 0 0.417917)
(7.64734 0 0.518214)
(6.96632 0 0.462717)
(7.28643 0 0.576824)
(6.53543 0 0.510389)
(6.89255 0 0.639734)
(6.06843 0 0.560328)
(6.46441 0 0.706426)
(5.56521 0 0.611507)
(6.00121 0 0.775898)
(5.02674 0 0.662363)
(5.50289 0 0.846501)
(4.45554 0 0.710679)
(4.97054 0 0.915773)
(3.85619 0 0.753504)
(4.40686 0 0.980263)
(3.23592 0 0.787154)
(3.81675 0 1.0354)
(2.60558 0 0.807453)
(3.2082 0 1.07542)
(1.9826 0 0.810415)
(2.59318 0 1.09308)
(1.40513 0 0.776834)
(1.99603 0 1.07701)
(0.929612 0 0.646328)
(1.41935 0 0.97832)
(0.439729 0 0.384244)
(0.93747 0 0.716728)
(0.0591135 0 -0.118682)
(0.443677 0 0.343443)
(0.174894 0 -0.335974)
(9.98902 0 0.0594436)
(9.99481 0 0.0458877)
(9.95432 0 0.0894972)
(9.97367 0 0.0848743)
(9.89725 0 0.11806)
(9.92981 0 0.119203)
(9.8204 0 0.147933)
(9.86352 0 0.154014)
(9.72407 0 0.179462)
(9.77728 0 0.190453)
(9.60809 0 0.21282)
(9.67216 0 0.228688)
(9.47219 0 0.248441)
(9.54796 0 0.269186)
(9.31589 0 0.286825)
(9.40414 0 0.312557)
(9.13846 0 0.328449)
(9.24014 0 0.359388)
(8.93899 0 0.373773)
(9.05525 0 0.410236)
(8.71636 0 0.423255)
(8.84862 0 0.465659)
(8.46928 0 0.477341)
(8.6192 0 0.526209)
(8.19633 0 0.536438)
(8.36582 0 0.592423)
(7.89596 0 0.600873)
(8.08716 0 0.66478)
(7.56654 0 0.670832)
(7.78182 0 0.74365)
(7.20644 0 0.746267)
(7.44834 0 0.82921)
(6.81417 0 0.826781)
(7.08529 0 0.921325)
(6.38849 0 0.911469)
(6.69131 0 1.0194)
(5.92866 0 0.998731)
(6.26533 0 1.12215)
(5.43478 0 1.08605)
(5.80675 0 1.22738)
(4.90821 0 1.16977)
(5.31573 0 1.33169)
(4.35213 0 1.24483)
(4.79366 0 1.43012)
(3.77232 0 1.30448)
(4.24369 0 1.5158)
(3.1785 0 1.33976)
(3.67156 0 1.57933)
(2.58644 0 1.33803)
(3.08611 0 1.60765)
(2.01971 0 1.27288)
(2.50276 0 1.58147)
(1.48682 0 1.09532)
(1.92861 0 1.46414)
(0.958215 0 0.769086)
(1.38515 0 1.2103)
(0.479821 0 0.202363)
(0.82948 0 0.800934)
(0.433692 0 0.133981)
(9.98515 0 0.0716317)
(9.99367 0 0.0531616)
(9.95037 0 0.113659)
(9.97086 0 0.102318)
(9.89433 0 0.154172)
(9.92688 0 0.147993)
(9.81876 0 0.195621)
(9.8618 0 0.193772)
(9.72433 0 0.238867)
(9.77738 0 0.241337)
(9.611 0 0.284387)
(9.67456 0 0.291232)
(9.47859 0 0.332788)
(9.55329 0 0.344031)
(9.32676 0 0.384745)
(9.41318 0 0.400452)
(9.155 0 0.440919)
(9.25379 0 0.461222)
(8.96265 0 0.501954)
(9.07459 0 0.527044)
(8.74887 0 0.568496)
(8.87492 0 0.598616)
(8.51272 0 0.641174)
(8.65398 0 0.676637)
(8.25311 0 0.720584)
(8.41089 0 0.761788)
(7.96889 0 0.807233)
(8.14463 0 0.854693)
(7.65879 0 0.901467)
(7.85416 0 0.955862)
(7.32153 0 1.00336)
(7.53835 0 1.0656)
(6.95581 0 1.11257)
(7.19606 0 1.18385)
(6.56045 0 1.22812)
(6.82613 0 1.31007)
(6.13451 0 1.34813)
(6.4275 0 1.44288)
(5.67748 0 1.46954)
(5.99929 0 1.57985)
(5.18966 0 1.5877)
(5.54099 0 1.717)
(4.67256 0 1.69594)
(5.05273 0 1.84844)
(4.12953 0 1.78504)
(4.53568 0 1.96572)
(3.56643 0 1.84241)
(3.99249 0 2.05718)
(2.99187 0 1.8506)
(3.4274 0 2.107)
(2.4157 0 1.78236)
(2.84748 0 2.09434)
(1.84043 0 1.60033)
(2.25611 0 1.98859)
(1.25932 0 1.27831)
(1.66023 0 1.7529)
(0.666738 0 0.78942)
(1.02392 0 1.36762)
(0.523016 0 0.787009)
(9.98336 0 0.0844302)
(9.99316 0 0.0613085)
(9.94819 0 0.136874)
(9.96957 0 0.119961)
(9.8931 0 0.188082)
(9.92572 0 0.176289)
(9.819 0 0.240231)
(9.86194 0 0.232761)
(9.72653 0 0.294539)
(9.77956 0 0.291162)
(9.61577 0 0.351739)
(9.67929 0 0.352359)
(9.48655 0 0.412557)
(9.56113 0 0.417071)
(9.33859 0 0.477766)
(9.42479 0 0.486107)
(9.17148 0 0.548142)
(9.26988 0 0.560307)
(8.98466 0 0.624444)
(9.09595 0 0.640489)
(8.77749 0 0.707429)
(8.90246 0 0.727467)
(8.5492 0 0.797843)
(8.68875 0 0.822049)
(8.29899 0 0.896394)
(8.45409 0 0.925024)
(8.02596 0 1.00371)
(8.1977 0 1.03712)
(7.72918 0 1.12024)
(7.91872 0 1.15897)
(7.40764 0 1.24618)
(7.61628 0 1.29096)
(7.06035 0 1.38127)
(7.28943 0 1.43316)
(6.68629 0 1.52456)
(6.93721 0 1.58509)
(6.28446 0 1.67414)
(6.55858 0 1.74546)
(5.85401 0 1.82671)
(6.15248 0 1.91181)
(5.39436 0 1.97715)
(5.71785 0 2.08006)
(4.90545 0 2.11793)
(5.25374 0 2.24396)
(4.38798 0 2.23847)
(4.75944 0 2.39446)
(3.84372 0 2.32439)
(4.2347 0 2.51903)
(3.27526 0 2.35679)
(3.67969 0 2.60106)
(2.68526 0 2.31043)
(3.09557 0 2.61952)
(2.07259 0 2.15484)
(2.48158 0 2.54714)
(1.42932 0 1.86724)
(1.83984 0 2.35354)
(0.742581 0 1.41941)
(1.13132 0 2.02435)
(0.543291 0 1.51432)
(9.98263 0 0.0975256)
(9.99299 0 0.0698134)
(9.94742 0 0.15982)
(9.96923 0 0.137624)
(9.8935 0 0.221409)
(9.92594 0 0.203985)
(9.82127 0 0.284168)
(9.86376 0 0.270763)
(9.73124 0 0.349436)
(9.78378 0 0.339673)
(9.62354 0 0.418117)
(9.68654 0 0.4118)
(9.49803 0 0.491044)
(9.57203 0 0.488015)
(9.35445 0 0.569085)
(9.44003 0 0.569224)
(9.19245 0 0.653117)
(9.29021 0 0.656357)
(9.01156 0 0.744008)
(9.12217 0 0.750338)
(8.8112 0 0.842622)
(8.93542 0 0.852077)
(8.59074 0 0.949806)
(8.72939 0 0.96248)
(8.34948 0 1.06637)
(8.50345 0 1.08242)
(8.08666 0 1.19303)
(8.25689 0 1.21273)
(7.80151 0 1.33035)
(7.98896 0 1.35411)
(7.49317 0 1.47862)
(7.69886 0 1.50707)
(7.16076 0 1.63768)
(7.38572 0 1.67178)
(6.80329 0 1.80672)
(7.04858 0 1.8479)
(6.41969 0 1.98391)
(6.68631 0 2.03431)
(6.00873 0 2.16604)
(6.29759 0 2.22875)
(5.56905 0 2.34798)
(5.8808 0 2.42736)
(5.09914 0 2.52206)
(5.43399 0 2.62411)
(4.59747 0 2.67739)
(4.95481 0 2.81011)
(4.06247 0 2.7993)
(4.44059 0 2.97302)
(3.49252 0 2.86891)
(3.88832 0 3.09641)
(2.8857 0 2.86272)
(3.29508 0 3.15968)
(2.23793 0 2.75373)
(2.6568 0 3.13769)
(1.54239 0 2.52084)
(1.97478 0 3.00298)
(0.793624 0 2.13115)
(1.20721 0 2.7404)
(0.556727 0 2.29163)
(9.9825 0 0.110659)
(9.99301 0 0.0783855)
(9.94768 0 0.182378)
(9.96952 0 0.155084)
(9.89518 0 0.25389)
(9.92719 0 0.230954)
(9.82517 0 0.326856)
(9.86691 0 0.307597)
(9.73804 0 0.402659)
(9.7897 0 0.386628)
(9.6339 0 0.48235)
(9.69594 0 0.469268)
(9.51269 0 0.566883)
(9.58564 0 0.556529)
(9.37418 0 0.657224)
(9.45861 0 0.649411)
(9.21804 0 0.754347)
(9.31458 0 0.748933)
(9.04386 0 0.859218)
(9.1532 0 0.856109)
(8.85113 0 0.97279)
(8.97403 0 0.971944)
(8.63927 0 1.096)
(8.77656 0 1.09743)
(8.40764 0 1.22975)
(8.5602 0 1.23354)
(8.15553 0 1.37484)
(8.32428 0 1.38118)
(7.8822 0 1.53193)
(8.06808 0 1.54116)
(7.58682 0 1.70142)
(7.79079 0 1.7141)
(7.26844 0 1.8833)
(7.49148 0 1.90033)
(6.92597 0 2.07694)
(7.16906 0 2.09969)
(6.55807 0 2.28078)
(6.82219 0 2.31133)
(6.16305 0 2.49194)
(6.44914 0 2.53339)
(5.73874 0 2.70569)
(6.04767 0 2.7625)
(5.28239 0 2.91481)
(5.61486 0 2.99328)
(4.79055 0 3.10895)
(5.14692 0 3.21763)
(4.25907 0 3.27397)
(4.63912 0 3.42403)
(3.68322 0 3.39162)
(4.08585 0 3.59688)
(3.05793 0 3.43944)
(3.48118 0 3.71627)
(2.37766 0 3.39156)
(2.81828 0 3.75786)
(1.63787 0 3.22595)
(2.09911 0 3.69374)
(0.839115 0 2.90063)
(1.27891 0 3.50425)
(0.573359 0 3.11349)
(9.98273 0 0.12362)
(9.99316 0 0.0868451)
(9.94871 0 0.204371)
(9.97025 0 0.172147)
(9.8979 0 0.285336)
(9.92923 0 0.257054)
(9.83044 0 0.368069)
(9.87118 0 0.343089)
(9.74661 0 0.453973)
(9.79707 0 0.4318)
(9.64655 0 0.544213)
(9.70723 0 0.52449)
(9.53021 0 0.639854)
(9.60165 0 0.622288)
(9.39741 0 0.741954)
(9.48019 0 0.726289)
(9.24788 0 0.851572)
(9.34263 0 0.837594)
(9.08124 0 0.969763)
(9.18867 0 0.957303)
(8.89703 0 1.09757)
(9.01792 0 1.08651)
(8.69473 0 1.23602)
(8.82994 0 1.2263)
(8.47372 0 1.38611)
(8.62415 0 1.37772)
(8.23333 0 1.54873)
(8.39993 0 1.54181)
(7.97276 0 1.72468)
(8.15655 0 1.71948)
(7.69113 0 1.91448)
(7.89315 0 1.9115)
(7.38736 0 2.11835)
(7.60869 0 2.11839)
(7.06013 0 2.33592)
(7.30191 0 2.34027)
(6.70773 0 2.56603)
(6.97114 0 2.57669)
(6.32791 0 2.80635)
(6.61423 0 2.82631)
(5.91769 0 3.05287)
(6.22826 0 3.08653)
(5.47309 0 3.29931)
(5.80933 0 3.35295)
(4.98901 0 3.5364)
(5.3523 0 3.61871)
(4.4591 0 3.75113)
(4.8506 0 3.87369)
(3.87605 0 3.92617)
(4.29622 0 4.10362)
(3.23223 0 4.03957)
(3.68042 0 4.28936)
(2.52078 0 4.06471)
(2.99345 0 4.40647)
(1.73836 0 3.97588)
(2.23737 0 4.4243)
(0.889471 0 3.71853)
(1.36337 0 4.31605)
(0.598765 0 3.98467)
(9.9832 0 0.136247)
(9.99339 0 0.0950716)
(9.9503 0 0.225643)
(9.9713 0 0.18865)
(9.90147 0 0.315593)
(9.9319 0 0.282138)
(9.83687 0 0.407622)
(9.87638 0 0.377075)
(9.75674 0 0.503151)
(9.80571 0 0.474978)
(9.66122 0 0.603432)
(9.72018 0 0.577207)
(9.55029 0 0.709627)
(9.6198 0 0.684988)
(9.42382 0 0.822879)
(9.50445 0 0.799502)
(9.28158 0 0.944328)
(9.37398 0 0.921928)
(9.12326 0 1.07511)
(9.22815 0 1.05345)
(8.94845 0 1.21637)
(9.06663 0 1.19523)
(8.75667 0 1.36921)
(8.88901 0 1.34846)
(8.54734 0 1.53473)
(8.69478 0 1.51429)
(8.31979 0 1.71396)
(8.48336 0 1.69385)
(8.07321 0 1.90783)
(8.25401 0 1.88822)
(7.80662 0 2.11707)
(8.00584 0 2.09834)
(7.5188 0 2.34216)
(7.73771 0 2.325)
(7.20815 0 2.58311)
(7.44817 0 2.56866)
(6.87259 0 2.83928)
(7.1353 0 2.82937)
(6.50928 0 3.10911)
(6.79648 0 3.10649)
(6.11443 0 3.38958)
(6.42817 0 3.39841)
(5.68292 0 3.67575)
(6.02559 0 3.70203)
(5.20806 0 3.95989)
(5.5823 0 4.01216)
(4.68141 0 4.23064)
(5.08992 0 4.3206)
(4.09302 0 4.47196)
(4.53796 0 4.61499)
(3.43233 0 4.66219)
(3.91448 0 4.87747)
(2.69002 0 4.77283)
(3.20555 0 5.0832)
(1.8618 0 4.77211)
(2.41122 0 5.19763)
(0.954164 0 4.58946)
(1.47627 0 5.18402)
(0.639199 0 4.91922)
(9.98385 0 0.148418)
(9.99368 0 0.102979)
(9.95233 0 0.246051)
(9.97259 0 0.204463)
(9.90574 0 0.344508)
(9.93507 0 0.30607)
(9.8443 0 0.445333)
(9.88236 0 0.409399)
(9.76823 0 0.549968)
(9.81543 0 0.515972)
(9.67766 0 0.659736)
(9.73459 0 0.627189)
(9.57263 0 0.775879)
(9.63983 0 0.744354)
(9.45305 0 0.89962)
(9.5311 0 0.868727)
(9.31875 0 1.03218)
(9.40828 0 1.00156)
(9.16947 0 1.17476)
(9.27122 0 1.1441)
(9.00486 0 1.3286)
(9.11965 0 1.29761)
(8.82452 0 1.4949)
(8.95322 0 1.46334)
(8.6279 0 1.67487)
(8.7715 0 1.64256)
(8.41436 0 1.86968)
(8.57394 0 1.83654)
(8.18308 0 2.08044)
(8.35985 0 2.04649)
(7.93305 0 2.30811)
(8.12833 0 2.27359)
(7.6629 0 2.55351)
(7.87821 0 2.51892)
(7.37085 0 2.81713)
(7.60793 0 2.78338)
(7.05448 0 3.099)
(7.31536 0 3.0676)
(6.71046 0 3.39846)
(6.99759 0 3.3718)
(6.33428 0 3.71382)
(6.65061 0 3.69554)
(5.91979 0 4.04177)
(6.26887 0 4.03734)
(5.45878 0 4.37668)
(5.84484 0 4.39413)
(4.94065 0 4.70946)
(5.3684 0 4.76027)
(4.3524 0 5.02609)
(4.82641 0 5.12625)
(3.67937 0 5.30574)
(4.20291 0 5.47656)
(2.90738 0 5.51777)
(3.47774 0 5.787)
(2.02761 0 5.62267)
(2.64497 0 6.01909)
(1.04509 0 5.52917)
(1.63772 0 6.12361)
(0.70449 0 5.94282)
(9.98464 0 0.160036)
(9.99402 0 0.110501)
(9.95471 0 0.265471)
(9.97407 0 0.219476)
(9.91061 0 0.371942)
(9.93864 0 0.328724)
(9.85259 0 0.481035)
(9.88899 0 0.43992)
(9.7809 0 0.594222)
(9.8261 0 0.554607)
(9.69567 0 0.71288)
(9.75026 0 0.674224)
(9.59698 0 0.838324)
(9.6615 0 0.800138)
(9.48479 0 0.971845)
(9.55982 0 0.933673)
(9.359 0 1.11473)
(9.44518 0 1.07614)
(9.2194 0 1.26826)
(9.31746 0 1.22887)
(9.06575 0 1.43375)
(9.17648 0 1.39317)
(8.89768 0 1.6125)
(9.02199 0 1.5704)
(8.71474 0 1.80583)
(8.85363 0 1.76191)
(8.51633 0 2.01506)
(8.67094 0 1.96911)
(8.30169 0 2.24149)
(8.47328 0 2.19337)
(8.06979 0 2.48638)
(8.25984 0 2.43613)
(7.81925 0 2.75092)
(8.02947 0 2.69877)
(7.54819 0 3.03614)
(7.78063 0 2.98267)
(7.25399 0 3.34285)
(7.51114 0 3.28913)
(6.93305 0 3.67149)
(7.218 0 3.61932)
(6.58035 0 4.02188)
(6.89697 0 3.97413)
(6.18894 0 4.39276)
(6.54212 0 4.35398)
(5.74933 0 4.78117)
(6.14517 0 4.75836)
(5.24877 0 5.18123)
(5.69464 0 5.18503)
(4.67071 0 5.58228)
(5.17476 0 5.62865)
(3.99479 0 5.96604)
(4.56491 0 6.07822)
(3.1984 0 6.30125)
(3.83629 0 6.51304)
(2.26182 0 6.54031)
(2.97089 0 6.8936)
(1.18066 0 6.56483)
(1.87925 0 7.15753)
(0.812886 0 7.0992)
(9.98553 0 0.171024)
(9.99439 0 0.117589)
(9.95736 0 0.283797)
(9.97571 0 0.233603)
(9.91596 0 0.39777)
(9.94255 0 0.349992)
(9.86162 0 0.514579)
(9.89618 0 0.46851)
(9.79458 0 0.635731)
(9.83756 0 0.590731)
(9.71502 0 0.76265)
(9.76701 0 0.71813)
(9.62306 0 0.896709)
(9.68459 0 0.85212)
(9.51871 0 1.03926)
(9.59034 0 0.994083)
(9.40192 0 1.19164)
(9.4843 0 1.14539)
(9.2726 0 1.35522)
(9.36642 0 1.3074)
(9.13055 0 1.53135)
(9.23661 0 1.48152)
(8.97551 0 1.72145)
(9.09471 0 1.66915)
(8.80713 0 1.92693)
(8.94047 0 1.87177)
(8.6249 0 2.14928)
(8.77353 0 2.09086)
(8.42816 0 2.38999)
(8.5934 0 2.32801)
(8.21596 0 2.65062)
(8.39936 0 2.58486)
(7.987 0 2.93275)
(8.19043 0 2.86313)
(7.73946 0 3.23801)
(7.9652 0 3.16467)
(7.47076 0 3.56803)
(7.72166 0 3.49146)
(7.17728 0 3.92446)
(7.45698 0 3.84565)
(6.85387 0 4.30879)
(7.16708 0 4.22958)
(6.49328 0 4.72219)
(6.84616 0 4.64569)
(6.08524 0 5.16497)
(6.48588 0 5.09644)
(5.61531 0 5.63567)
(6.07423 0 5.58381)
(5.0634 0 6.12914)
(5.59372 0 6.10832)
(4.40219 0 6.6331)
(5.01949 0 6.66678)
(3.59625 0 7.12062)
(4.31264 0 7.24779)
(2.60452 0 7.54019)
(3.43594 0 7.81959)
(1.39447 0 7.74021)
(2.25679 0 8.31471)
(1.00283 0 8.465)
(9.9865 0 0.181319)
(9.9948 0 0.124203)
(9.96024 0 0.30094)
(9.97746 0 0.246771)
(9.92172 0 0.42188)
(9.94673 0 0.36978)
(9.87126 0 0.545833)
(9.90382 0 0.495059)
(9.80912 0 0.674338)
(9.84968 0 0.624213)
(9.73553 0 0.808857)
(9.78466 0 0.758747)
(9.65061 0 0.950811)
(9.70885 0 0.900115)
(9.55447 0 1.1016)
(9.62236 0 1.04974)
(9.44713 0 1.26261)
(9.52528 0 1.20903)
(9.32856 0 1.43526)
(9.41766 0 1.3794)
(9.19867 0 1.62097)
(9.2995 0 1.5623)
(9.05732 0 1.82123)
(9.17073 0 1.75919)
(8.90427 0 2.03756)
(9.03125 0 1.97162)
(8.73915 0 2.27158)
(8.88083 0 2.20119)
(8.56145 0 2.52498)
(8.71916 0 2.44962)
(8.37039 0 2.79958)
(8.54571 0 2.71877)
(8.16489 0 3.09736)
(8.35973 0 3.01065)
(7.94335 0 3.42051)
(8.16012 0 3.32755)
(7.70349 0 3.7715)
(7.94524 0 3.67207)
(7.44204 0 4.15315)
(7.71272 0 4.04729)
(7.15424 0 4.56872)
(7.45914 0 4.4569)
(6.83324 0 5.02196)
(7.17948 0 4.90537)
(6.46898 0 5.51698)
(6.86636 0 5.39825)
(6.04659 0 6.05794)
(6.50874 0 5.94224)
(5.54385 0 6.64788)
(6.08967 0 6.54526)
(4.92711 0 7.28613)
(5.58302 0 7.21577)
(4.14529 0 7.96066)
(4.94273 0 7.96055)
(3.12223 0 8.63308)
(4.10985 0 8.77485)
(1.75667 0 9.12777)
(2.87919 0 9.62059)
(1.36527 0 10.1856)
(9.98753 0 0.190871)
(9.99522 0 0.130311)
(9.9633 0 0.316824)
(9.97931 0 0.258923)
(9.92781 0 0.444182)
(9.95112 0 0.388013)
(9.8814 0 0.574689)
(9.91182 0 0.519473)
(9.82437 0 0.709915)
(9.86234 0 0.654942)
(9.75697 0 0.851353)
(9.80304 0 0.795947)
(9.67938 0 1.00046)
(9.73408 0 0.943971)
(9.59176 0 1.15867)
(9.6556 0 1.10047)
(9.4942 0 1.3274)
(9.56777 0 1.26687)
(9.38679 0 1.50812)
(9.47073 0 1.44463)
(9.26953 0 1.7023)
(9.36458 0 1.63523)
(9.1424 0 1.91147)
(9.24939 0 1.84017)
(9.00531 0 2.13726)
(9.12517 0 2.06106)
(8.85807 0 2.38137)
(8.99189 0 2.29957)
(8.70037 0 2.64566)
(8.84941 0 2.55754)
(8.5317 0 2.9322)
(8.69751 0 2.83698)
(8.35129 0 3.24328)
(8.53573 0 3.14016)
(8.15796 0 3.5816)
(8.36341 0 3.46968)
(7.95 0 3.95034)
(8.17947 0 3.82867)
(7.72485 0 4.35338)
(7.98234 0 4.22093)
(7.47877 0 4.79558)
(7.76967 0 4.65126)
(7.20622 0 5.28312)
(7.53796 0 5.12586)
(6.89883 0 5.82401)
(7.282 0 5.65294)
(6.54364 0 6.4286)
(6.99382 0 6.24364)
(6.11994 0 7.11034)
(6.66072 0 6.91351)
(5.59299 0 7.88643)
(6.26217 0 7.68482)
(4.90129 0 8.7768)
(5.75777 0 8.59115)
(3.92773 0 9.80087)
(5.08822 0 9.68388)
(2.4342 0 10.857)
(3.98109 0 11.0489)
(2.1476 0 12.5697)
(9.98861 0 0.199641)
(9.99567 0 0.13589)
(9.9665 0 0.331389)
(9.98122 0 0.270013)
(9.93415 0 0.464593)
(9.95567 0 0.404629)
(9.89194 0 0.601039)
(9.9201 0 0.54168)
(9.84019 0 0.742323)
(9.87543 0 0.68283)
(9.77916 0 0.889962)
(9.82203 0 0.829626)
(9.70911 0 1.04543)
(9.7601 0 0.983566)
(9.63025 0 1.2102)
(9.68987 0 1.14612)
(9.54275 0 1.38571)
(9.61156 0 1.31875)
(9.44679 0 1.57344)
(9.52542 0 1.50291)
(9.3425 0 1.77489)
(9.43164 0 1.70009)
(9.22999 0 1.99165)
(9.33042 0 1.91184)
(9.10934 0 2.22538)
(9.22195 0 2.13977)
(8.98057 0 2.47787)
(9.10637 0 2.38562)
(8.84361 0 2.75109)
(8.98381 0 2.65127)
(8.69828 0 3.04727)
(8.85432 0 2.93884)
(8.54423 0 3.36895)
(8.71786 0 3.25074)
(8.38087 0 3.71917)
(8.57428 0 3.58979)
(8.20723 0 4.10163)
(8.42325 0 3.95942)
(8.02187 0 4.52099)
(8.26419 0 4.36388)
(7.82262 0 4.98328)
(8.09621 0 4.80865)
(7.60619 0 5.49657)
(7.91796 0 5.30095)
(7.36758 0 6.07188)
(7.72748 0 5.85064)
(7.09889 0 6.72489)
(7.52191 0 6.47165)
(6.78701 0 7.47882)
(7.29707 0 7.18456)
(6.40844 0 8.37045)
(7.04754 0 8.02179)
(5.91622 0 9.46436)
(6.76324 0 9.03989)
(5.19777 0 10.9072)
(6.46344 0 10.3547)
(3.88706 0 13.1801)
(6.19388 0 12.3023)
(5.26733 0 16.3768)
(0.260718 0 -0.167988)
(0.148497 0 -0.255358)
(0.503453 0 -0.142867)
(0.355671 0 -0.232129)
(0.711143 0 -0.116167)
(0.56715 0 -0.193924)
(0.886876 0 -0.0941003)
(0.754818 0 -0.16021)
(1.03638 0 -0.0766378)
(0.913746 0 -0.133077)
(1.16463 0 -0.0628458)
(1.04908 0 -0.111462)
(1.27569 0 -0.0519208)
(1.16644 0 -0.0942496)
(1.37286 0 -0.043213)
(1.26979 0 -0.0805038)
(1.45862 0 -0.0361832)
(1.36181 0 -0.0693785)
(1.53482 0 -0.0304067)
(1.44436 0 -0.0601906)
(1.60284 0 -0.0255323)
(1.51885 0 -0.052455)
(1.66357 0 -0.0211722)
(1.58636 0 -0.0457335)
(1.7171 0 -0.0168194)
(1.64762 0 -0.0393551)
(1.76212 0 -0.0120046)
(1.70259 0 -0.0323192)
(1.79631 0 -0.00670548)
(1.74988 0 -0.0239588)
(1.81817 0 -0.0015807)
(1.78724 0 -0.0149592)
(1.82893 0 0.00240262)
(1.81337 0 -0.00718992)
(1.83129 0 0.00483897)
(1.82995 0 -0.0015415)
(1.826 0 0.00613083)
(1.84007 0 0.00337011)
(1.81366 0 0.00687303)
(1.84469 0 0.007677)
(1.7961 0 0.00712226)
(1.84218 0 0.0106585)
(1.77893 0 0.0069219)
(1.83533 0 0.0101801)
(1.76726 0 0.00644905)
(1.82957 0 0.00675939)
(1.76562 0 0.00503807)
(1.82848 0 0.000924255)
(1.77549 0 0.00239357)
(1.83312 0 -0.00544402)
(1.79762 0 -0.00116255)
(1.84434 0 -0.0119285)
(1.83158 0 -0.00563875)
(1.86176 0 -0.0178658)
(1.87684 0 -0.0106667)
(1.88502 0 -0.0232503)
(1.93107 0 -0.0144319)
(1.91403 0 -0.0271985)
(1.95614 0 -0.0253581)
(0.221418 0 -0.362005)
(0.110733 0 -0.472223)
(0.436695 0 -0.319288)
(0.294317 0 -0.438)
(0.624817 0 -0.266253)
(0.469222 0 -0.369577)
(0.786634 0 -0.220896)
(0.626119 0 -0.307733)
(0.92699 0 -0.184676)
(0.760143 0 -0.258014)
(1.05015 0 -0.155986)
(0.875686 0 -0.218503)
(1.15949 0 -0.133205)
(0.976988 0 -0.187031)
(1.2576 0 -0.114958)
(1.06703 0 -0.161793)
(1.3464 0 -0.100095)
(1.14784 0 -0.141216)
(1.42728 0 -0.087762)
(1.22078 0 -0.124072)
(1.50136 0 -0.0773119)
(1.28679 0 -0.109588)
(1.5697 0 -0.0679866)
(1.34666 0 -0.0971928)
(1.63302 0 -0.0585805)
(1.40137 0 -0.0859127)
(1.69083 0 -0.0478079)
(1.45168 0 -0.0738178)
(1.74107 0 -0.0355472)
(1.49719 0 -0.0591715)
(1.78155 0 -0.0234531)
(1.53576 0 -0.0426609)
(1.8126 0 -0.0129821)
(1.56406 0 -0.0279337)
(1.83773 0 -0.00325139)
(1.58283 0 -0.0179398)
(1.85817 0 0.00612368)
(1.59904 0 -0.00964986)
(1.87257 0 0.0125697)
(1.60563 0 -0.00127868)
(1.87914 0 0.0135527)
(1.59656 0 0.00666791)
(1.88398 0 0.00883846)
(1.57321 0 0.00731009)
(1.88914 0 0.000134997)
(1.54105 0 0.00377509)
(1.89467 0 -0.0100891)
(1.50552 0 -0.00220229)
(1.90155 0 -0.0198663)
(1.47137 0 -0.00923759)
(1.90817 0 -0.0281362)
(1.44314 0 -0.0154959)
(1.91476 0 -0.0345748)
(1.42533 0 -0.0213357)
(1.92219 0 -0.0387003)
(1.41284 0 -0.027067)
(1.93203 0 -0.0386285)
(1.41112 0 -0.0321335)
(1.43123 0 -0.0359661)
(0.173571 0 -0.558172)
(0.0769938 0 -0.642225)
(0.338643 0 -0.49818)
(0.219868 0 -0.595859)
(0.48138 0 -0.420084)
(0.34025 0 -0.502854)
(0.603812 0 -0.352477)
(0.450272 0 -0.41935)
(0.709711 0 -0.29809)
(0.542161 0 -0.352278)
(0.802188 0 -0.254665)
(0.620509 0 -0.298876)
(0.883785 0 -0.219851)
(0.687994 0 -0.256273)
(0.9564 0 -0.191587)
(0.746578 0 -0.221958)
(1.02132 0 -0.168179)
(0.797689 0 -0.193732)
(1.07934 0 -0.148459)
(0.842217 0 -0.169904)
(1.13113 0 -0.131756)
(0.880503 0 -0.149529)
(1.17767 0 -0.117347)
(0.912637 0 -0.132235)
(1.2203 0 -0.103379)
(0.939183 0 -0.117254)
(1.25917 0 -0.086901)
(0.961489 0 -0.10172)
(1.2924 0 -0.0666059)
(0.981372 0 -0.0824643)
(1.31656 0 -0.0470425)
(0.999375 0 -0.0591962)
(1.33202 0 -0.0349928)
(1.00774 0 -0.0382616)
(1.34409 0 -0.0288451)
(0.98057 0 -0.025818)
(1.34576 0 -0.0207285)
(0.93843 0 -0.0107086)
(1.32807 0 -0.00935393)
(0.899638 0 0.00972133)
(1.28764 0 9.91535e-05)
(0.855805 0 0.0312166)
(1.22777 0 0.00435245)
(0.799592 0 0.0428118)
(1.15584 0 0.00399242)
(0.73547 0 0.0454159)
(1.08115 0 0.00169763)
(0.66949 0 0.0400111)
(1.01303 0 -0.00110006)
(0.609209 0 0.0283588)
(0.960385 0 -0.00458867)
(0.560224 0 0.0128729)
(0.922284 0 -0.00938881)
(0.53259 0 -0.00128994)
(0.901235 0 -0.0162602)
(0.523381 0 -0.0162543)
(0.904211 0 -0.0259433)
(0.530302 0 -0.0336263)
(0.56968 0 -0.0519825)
(0.123281 0 -0.694899)
(0.0450375 0 -0.762971)
(0.230321 0 -0.615825)
(0.138272 0 -0.698221)
(0.318374 0 -0.517428)
(0.195207 0 -0.585071)
(0.392281 0 -0.43356)
(0.251959 0 -0.486729)
(0.45444 0 -0.366174)
(0.293543 0 -0.407608)
(0.506665 0 -0.31227)
(0.3262 0 -0.344266)
(0.550619 0 -0.268967)
(0.350726 0 -0.293571)
(0.587546 0 -0.233668)
(0.368227 0 -0.252553)
(0.618222 0 -0.204155)
(0.379699 0 -0.218548)
(0.642863 0 -0.178859)
(0.385826 0 -0.189367)
(0.66126 0 -0.157072)
(0.38662 0 -0.163717)
(0.673545 0 -0.13869)
(0.381248 0 -0.141486)
(0.681688 0 -0.122848)
(0.368074 0 -0.123241)
(0.687198 0 -0.107061)
(0.342853 0 -0.105675)
(0.690981 0 -0.0877733)
(0.312319 0 -0.0851158)
(0.685939 0 -0.0616958)
(0.277846 0 -0.0557453)
(0.650623 0 -0.0308278)
(0.239833 0 -0.0146645)
(0.577613 0 -0.00232349)
(0.191374 0 0.0218135)
(0.49433 0 0.0240612)
(0.124245 0 0.0423416)
(0.422869 0 0.0495149)
(0.0697232 0 0.054166)
(0.361627 0 0.0679698)
(0.0238598 0 0.068406)
(0.302503 0 0.0761163)
(-0.0208867 0 0.077867)
(0.246069 0 0.0737687)
(-0.0618505 0 0.0780862)
(0.195775 0 0.0613875)
(-0.0972706 0 0.0684389)
(0.156294 0 0.0406592)
(-0.125169 0 0.0501478)
(0.132935 0 0.0159565)
(-0.144712 0 0.0254599)
(0.131756 0 -0.00820769)
(-0.150623 0 -0.000669796)
(0.151532 0 -0.0331721)
(-0.137159 0 -0.0264133)
(0.189881 0 -0.0592569)
(-0.118143 0 -0.0528609)
(-0.0863927 0 -0.0729799)
(0.0667223 0 -0.776742)
(0.0118984 0 -0.828321)
(0.109566 0 -0.677723)
(0.0478169 0 -0.739193)
(0.13758 0 -0.56401)
(0.0363717 0 -0.611229)
(0.156745 0 -0.469352)
(0.0349404 0 -0.504201)
(0.167784 0 -0.393021)
(0.0203457 0 -0.417434)
(0.171612 0 -0.331715)
(0.000634064 0 -0.347593)
(0.16908 0 -0.282352)
(-0.0249896 0 -0.291422)
(0.160957 0 -0.242076)
(-0.0559189 0 -0.245823)
(0.147858 0 -0.208311)
(-0.0915645 0 -0.207952)
(0.129996 0 -0.178923)
(-0.131312 0 -0.175258)
(0.106672 0 -0.152337)
(-0.17463 0 -0.145729)
(0.0753118 0 -0.127251)
(-0.221251 0 -0.117871)
(0.0308264 0 -0.102076)
(-0.271945 0 -0.0905347)
(-0.0271194 0 -0.0743541)
(-0.331307 0 -0.0640788)
(-0.0969779 0 -0.040459)
(-0.393858 0 -0.0361524)
(-0.170776 0 -0.000880364)
(-0.455773 0 -0.00524244)
(-0.226918 0 0.0340813)
(-0.507777 0 0.0228482)
(-0.263112 0 0.0555273)
(-0.538291 0 0.0454264)
(-0.297235 0 0.0674239)
(-0.570487 0 0.0640773)
(-0.334487 0 0.0777983)
(-0.599062 0 0.0773352)
(-0.366308 0 0.0866183)
(-0.622833 0 0.0877294)
(-0.391225 0 0.0885424)
(-0.64151 0 0.0926405)
(-0.40953 0 0.0807595)
(-0.654131 0 0.0886831)
(-0.421412 0 0.0636539)
(-0.661281 0 0.0751552)
(-0.427178 0 0.0394406)
(-0.664101 0 0.0533299)
(-0.427606 0 0.0113091)
(-0.664245 0 0.0256905)
(-0.420942 0 -0.0177284)
(-0.661919 0 -0.00417577)
(-0.407538 0 -0.0455245)
(-0.652054 0 -0.0332992)
(-0.3929 0 -0.068735)
(-0.644675 0 -0.0602026)
(-0.641137 0 -0.0802817)
(-0.000993239 0 -0.795257)
(-0.0256631 0 -0.827348)
(-0.0228433 0 -0.676457)
(-0.0529238 0 -0.718297)
(-0.0574715 0 -0.55173)
(-0.131454 0 -0.578896)
(-0.0975526 0 -0.450614)
(-0.195311 0 -0.46766)
(-0.143244 0 -0.368704)
(-0.267358 0 -0.376762)
(-0.193683 0 -0.302775)
(-0.340499 0 -0.303755)
(-0.248461 0 -0.249347)
(-0.415049 0 -0.244939)
(-0.307225 0 -0.205214)
(-0.49007 0 -0.197135)
(-0.369593 0 -0.167602)
(-0.564778 0 -0.157498)
(-0.434834 0 -0.134401)
(-0.638482 0 -0.123726)
(-0.501564 0 -0.104177)
(-0.710447 0 -0.0942657)
(-0.568051 0 -0.0760095)
(-0.779697 0 -0.0678073)
(-0.632604 0 -0.0496463)
(-0.845076 0 -0.0430743)
(-0.69471 0 -0.0249015)
(-0.905013 0 -0.0194965)
(-0.750067 0 -0.00138267)
(-0.957681 0 0.002647)
(-0.791897 0 0.0210735)
(-1.00035 0 0.0233835)
(-0.823083 0 0.0432449)
(-1.03106 0 0.0436862)
(-0.849735 0 0.0641057)
(-1.05703 0 0.062814)
(-0.871819 0 0.0798976)
(-1.07791 0 0.0781444)
(-0.89039 0 0.0899965)
(-1.09398 0 0.0888856)
(-0.903022 0 0.0950603)
(-1.10433 0 0.0954)
(-0.908871 0 0.093034)
(-1.10874 0 0.0961087)
(-0.909403 0 0.0823489)
(-1.10797 0 0.0889908)
(-0.906624 0 0.0633734)
(-1.10379 0 0.0735844)
(-0.902373 0 0.0379422)
(-1.09835 0 0.0509836)
(-0.897926 0 0.00885796)
(-1.09359 0 0.0232944)
(-0.893409 0 -0.0210283)
(-1.09009 0 -0.00655232)
(-0.888806 0 -0.0493238)
(-1.08616 0 -0.0356635)
(-0.884139 0 -0.0728322)
(-1.0865 0 -0.0625436)
(-1.08942 0 -0.0830585)
(-0.0672988 0 -0.744346)
(-0.0692644 0 -0.761433)
(-0.160948 0 -0.611136)
(-0.160213 0 -0.62874)
(-0.259441 0 -0.483268)
(-0.302145 0 -0.486932)
(-0.360308 0 -0.381384)
(-0.426696 0 -0.375703)
(-0.460658 0 -0.299742)
(-0.549829 0 -0.287436)
(-0.559319 0 -0.234704)
(-0.666705 0 -0.218008)
(-0.654946 0 -0.182839)
(-0.776678 0 -0.163791)
(-0.74635 0 -0.141078)
(-0.879096 0 -0.121403)
(-0.832544 0 -0.106674)
(-0.973523 0 -0.0877699)
(-0.913052 0 -0.0774681)
(-1.0598 0 -0.0601358)
(-0.987649 0 -0.0519996)
(-1.13701 0 -0.0367353)
(-1.05578 0 -0.0292801)
(-1.20518 0 -0.0165039)
(-1.11586 0 -0.00869038)
(-1.26478 0 0.00109366)
(-1.16598 0 0.010216)
(-1.31573 0 0.0164831)
(-1.20646 0 0.0281208)
(-1.35793 0 0.0310232)
(-1.23964 0 0.0456614)
(-1.39247 0 0.0460844)
(-1.26639 0 0.062602)
(-1.42065 0 0.0615644)
(-1.28646 0 0.0774853)
(-1.44215 0 0.0759034)
(-1.30066 0 0.0886379)
(-1.45734 0 0.0871913)
(-1.30965 0 0.0953225)
(-1.46676 0 0.0944808)
(-1.31293 0 0.0968697)
(-1.47049 0 0.0973877)
(-1.31075 0 0.0919224)
(-1.46895 0 0.0948198)
(-1.30484 0 0.0795516)
(-1.46339 0 0.0855682)
(-1.29739 0 0.060098)
(-1.45577 0 0.0693719)
(-1.29037 0 0.0350725)
(-1.44826 0 0.0471091)
(-1.28521 0 0.00678225)
(-1.44275 0 0.0205158)
(-1.28261 0 -0.0222964)
(-1.44007 0 -0.00792382)
(-1.28207 0 -0.0500966)
(-1.44009 0 -0.0359363)
(-1.28282 0 -0.0734412)
(-1.44445 0 -0.0621701)
(-1.44927 0 -0.0820417)
(-0.139457 0 -0.627499)
(-0.118747 0 -0.624844)
(-0.299164 0 -0.486345)
(-0.270307 0 -0.476011)
(-0.458378 0 -0.362364)
(-0.471077 0 -0.33827)
(-0.610533 0 -0.267494)
(-0.647526 0 -0.236989)
(-0.751914 0 -0.194811)
(-0.810659 0 -0.161588)
(-0.881633 0 -0.139061)
(-0.957184 0 -0.105268)
(-0.99926 0 -0.0960915)
(-1.08533 0 -0.0639743)
(-1.10519 0 -0.0628483)
(-1.197 0 -0.0336335)
(-1.19984 0 -0.0368555)
(-1.29413 0 -0.0111991)
(-1.28283 0 -0.0162835)
(-1.37847 0 0.00541539)
(-1.35382 0 0.000292776)
(-1.45129 0 0.0180095)
(-1.41351 0 0.0142034)
(-1.51383 0 0.0284402)
(-1.46355 0 0.0266084)
(-1.56719 0 0.0378877)
(-1.50629 0 0.0386255)
(-1.61273 0 0.0471609)
(-1.54306 0 0.0510518)
(-1.65181 0 0.0567965)
(-1.57356 0 0.0638879)
(-1.68431 0 0.0669575)
(-1.59715 0 0.0762328)
(-1.71003 0 0.0773259)
(-1.61376 0 0.0866396)
(-1.72893 0 0.086739)
(-1.62409 0 0.0938379)
(-1.7414 0 0.0937738)
(-1.62888 0 0.0970542)
(-1.74805 0 0.0974561)
(-1.62846 0 0.0955502)
(-1.74938 0 0.0971345)
(-1.62368 0 0.0883989)
(-1.7462 0 0.0919829)
(-1.61621 0 0.0750373)
(-1.73991 0 0.0812453)
(-1.60811 0 0.0557759)
(-1.73237 0 0.0647951)
(-1.6013 0 0.0318412)
(-1.72559 0 0.0433525)
(-1.59728 0 0.00513202)
(-1.72135 0 0.0183485)
(-1.59684 0 -0.022323)
(-1.72071 0 -0.00815774)
(-1.59952 0 -0.0488189)
(-1.72432 0 -0.0345602)
(-1.60479 0 -0.0710736)
(-1.73188 0 -0.0595227)
(-1.73779 0 -0.0777186)
(-0.21455 0 -0.44965)
(-0.177261 0 -0.414706)
(-0.436642 0 -0.311675)
(-0.392974 0 -0.263623)
(-0.649041 0 -0.202701)
(-0.64552 0 -0.139949)
(-0.841952 0 -0.123303)
(-0.854775 0 -0.0611182)
(-1.01242 0 -0.0653366)
(-1.0358 0 -0.00985056)
(-1.15855 0 -0.025071)
(-1.18972 0 0.0217347)
(-1.28169 0 0.0014789)