/*--------------------------------*- C++ -*----------------------------------*\
  =========                 |
  \\      /  F ield         | OpenFOAM: The Open Source CFD Toolbox
   \\    /   O peration     | Website:  https://openfoam.org
    \\  /    A nd           | Version:  dev
     \\/     M anipulation  |
\*---------------------------------------------------------------------------*/
FoamFile
{
    version     2.0;
    format      ascii;
    class       volScalarField;
    location    "4.1";
    object      p;
}
// * * * * * * * * * * * * * * * * * * * * * * * * * * * * * * * * * * * * * //

dimensions      [0 2 -2 0 0 0 0];

internalField   nonuniform List<scalar> 
2790
(
147.194
147.101
147.368
147.939
148.719
149.677
150.809
152.116
153.592
155.233
157.033
158.984
161.077
163.302
165.643
168.078
170.583
173.122
175.653
178.128
180.486
182.664
184.594
186.215
187.475
188.349
188.785
188.84
188.891
189.104
146.991
147.009
147.301
147.869
148.645
149.6
150.727
152.028
153.497
155.13
156.92
158.861
160.943
163.157
165.487
167.912
170.408
172.941
175.472
177.95
180.318
182.513
184.468
186.116
187.401
188.275
188.672
188.727
188.859
189.144
146.792
146.88
147.191
147.749
148.512
149.454
150.567
151.849
153.297
154.905
156.667
158.576
160.624
162.8
165.088
167.47
169.922
172.413
174.905
177.352
179.702
181.895
183.867
185.557
186.908
187.884
188.477
188.832
189.148
189.446
146.567
146.686
147.01
147.559
148.307
149.233
150.326
151.584
153.003
154.577
156.301
158.166
160.165
162.286
164.514
166.832
169.216
171.639
174.066
176.457
178.764
180.936
182.918
184.657
186.112
187.264
188.132
188.803
189.356
189.875
146.307
146.439
146.771
147.313
148.045
148.949
150.017
151.244
152.626
154.157
155.831
157.64
159.576
161.627
163.778
166.014
168.312
170.647
172.989
175.302
177.547
179.682
181.664
183.455
185.025
186.368
187.498
188.461
189.272
190.019
146.006
146.144
146.479
147.01
147.722
148.6
149.636
150.825
152.163
153.642
155.257
157
158.861
160.829
162.89
165.028
167.223
169.452
171.689
173.904
176.067
178.144
180.106
181.927
183.59
185.092
186.438
187.644
188.664
189.582
145.663
145.802
146.134
146.653
147.342
148.19
149.189
150.334
151.62
153.04
154.587
156.253
158.028
159.9
161.857
163.883
165.959
168.065
170.178
172.274
174.329
176.32
178.227
180.038
181.744
183.344
184.838
186.217
187.382
188.429
145.279
145.416
145.74
146.242
146.906
147.72
148.677
149.773
151
152.353
153.824
155.403
157.082
158.848
160.688
162.587
164.528
166.492
168.46
170.411
172.329
174.196
176.003
177.745
179.424
181.043
182.598
184.07
185.32
186.471
144.852
144.986
145.299
145.782
146.417
147.193
148.104
149.145
150.308
151.587
152.973
154.457
156.03
157.678
159.389
161.147
162.937
164.74
166.539
168.318
170.061
171.759
173.407
175.007
176.569
178.104
179.612
181.083
182.354
183.593
144.386
144.514
144.814
145.275
145.877
146.612
147.473
148.454
149.548
150.746
152.041
153.422
154.879
156.4
157.969
159.573
161.194
162.817
164.423
165.996
167.524
168.999
170.416
171.784
173.117
174.436
175.756
177.094
178.294
179.598
143.881
144.002
144.287
144.723
145.291
145.981
146.788
147.705
148.724
149.837
151.034
152.305
153.639
155.022
156.439
157.875
159.313
160.734
162.12
163.455
164.722
165.912
167.019
168.047
169.011
169.94
170.87
171.868
172.83
174.149
143.338
143.453
143.721
144.13
144.66
145.304
146.054
146.903
147.843
148.865
149.959
151.114
152.317
153.554
154.809
156.066
157.304
158.505
159.647
160.709
161.671
162.513
163.221
163.787
164.212
164.522
164.765
165.072
165.454
166.627
142.761
142.868
143.118
143.498
143.989
144.584
145.274
146.052
146.91
147.837
148.824
149.857
150.923
152.008
153.093
154.16
155.186
156.15
157.026
157.785
158.397
158.832
159.054
159.028
158.725
158.126
157.251
156.259
155.31
155.815
142.152
142.251
142.481
142.83
143.281
143.824
144.452
145.157
145.929
146.759
147.635
148.543
149.468
150.395
151.303
152.173
152.978
153.692
154.283
154.715
154.945
154.922
154.583
153.851
152.627
150.797
148.234
144.931
140.982
138.945
141.513
141.603
141.813
142.13
142.539
143.029
143.593
144.223
144.908
145.638
146.4
147.18
147.962
148.727
149.455
150.122
150.699
151.155
151.452
151.542
151.369
150.859
149.913
148.398
146.119
142.786
137.942
130.924
120.459
108.233
1.54253
1.52209
1.44959
1.34832
1.24115
1.13879
1.04448
0.958555
0.880356
0.808776
0.742494
0.680209
0.620812
0.563492
0.507805
0.453691
0.40144
0.351565
0.304609
0.260972
0.220868
0.184516
0.15236
0.125208
0.102734
0.0837034
0.0663605
0.0491383
0.0310194
0.011207
1.48933
1.46549
1.3974
1.30438
1.20587
1.11101
1.0228
0.941759
0.867419
0.798829
0.734819
0.674213
0.616002
0.559455
0.504204
0.450284
0.398096
0.34826
0.301375
0.25781
0.217745
0.181506
0.149797
0.12306
0.101195
0.0829354
0.0662976
0.0496365
0.0320373
0.0134555
1.43309
1.40423
1.33872
1.25325
1.16378
1.07712
0.995809
0.920423
0.850634
0.785632
0.724392
0.665872
0.609163
0.553627
0.498984
0.445379
0.39335
0.343664
0.297021
0.253781
0.214003
0.177949
0.146465
0.12038
0.0995232
0.0819297
0.0658522
0.049494
0.0321459
0.012433
1.38195
1.34817
1.28428
1.20499
1.12353
1.0443
0.969336
0.899236
0.833759
0.77221
0.713683
0.657248
0.602095
0.547665
0.493763
0.440618
0.38887
0.339413
0.293064
0.250218
0.21078
0.174749
0.142958
0.116828
0.0967137
0.0804363
0.0656274
0.0503076
0.0335708
0.012364
1.35124
1.31273
1.25059
1.17552
1.09947
1.02501
0.954047
0.887194
0.824316
0.764816
0.70788
0.652658
0.598419
0.544684
0.491323
0.438612
0.387213
0.338023
0.291902
0.249356
0.210537
0.175675
0.145227
0.119804
0.0991038
0.0811273
0.0643056
0.0480609
0.0314256
0.0114314
1.35342
1.30908
1.24798
1.17373
1.09879
1.02483
0.954165
0.887425
0.824568
0.765043
0.708068
0.652827
0.59863
0.545044
0.491969
0.439674
0.388753
0.339983
0.294106
0.251652
0.212915
0.178282
0.148308
0.123119
0.102036
0.0833954
0.066037
0.0489754
0.0306755
0.00998748
1.39694
1.34494
1.27935
1.20075
1.12073
1.04239
0.967938
0.898053
0.832604
0.770977
0.712356
0.655922
0.60099
0.547106
0.49412
0.442234
0.39194
0.343871
0.298609
0.256574
0.218072
0.183483
0.153196
0.126935
0.104068
0.0840443
0.0654156
0.0471158
0.0280207
0.00900014
1.48359
1.41909
1.34016
1.24875
1.15739
1.06991
0.988204
0.912614
0.842778
0.777874
0.716885
0.658873
0.60307
0.548887
0.496031
0.444608
0.395033
0.347841
0.303482
0.262223
0.224241
0.189729
0.158793
0.13138
0.107196
0.0856364
0.0653389
0.0450498
0.024779
0.007667
1.6038
1.5161
1.41395
1.30181
1.19433
1.09533
1.00545
0.923859
0.849435
0.781327
0.718246
0.659047
0.602828
0.548774
0.496359
0.445624
0.396978
0.350966
0.307945
0.267916
0.23068
0.196058
0.164161
0.135383
0.109719
0.086609
0.064636
0.042416
0.0212927
0.00633275
1.73032
1.60823
1.48032
1.34851
1.22307
1.11035
1.01121
0.924435
0.847647
0.77826
0.714446
0.654934
0.598806
0.545356
0.493935
0.444269
0.396831
0.352394
0.311304
0.273129
0.237035
0.202522
0.169754
0.139366
0.111872
0.0870288
0.0633134
0.0393037
0.0176723
0.00503162
1.82574
1.67396
1.51678
1.36389
1.22682
1.10714
1.00384
0.914801
0.837356
0.768328
0.70517
0.646495
0.591581
0.539588
0.489495
0.440877
0.3945
0.351692
0.312989
0.277441
0.243285
0.209288
0.175506
0.143098
0.113421
0.0867358
0.0614186
0.0359741
0.0141842
0.0037992
1.87451
1.68516
1.50274
1.33331
1.18966
1.07025
0.970153
0.885248
0.81232
0.747506
0.687494
0.631198
0.578819
0.529666
0.481957
0.434746
0.389374
0.348387
0.312893
0.281145
0.249848
0.216643
0.181498
0.146422
0.114027
0.085392
0.058806
0.0324776
0.0109069
0.0026544
1.80929
1.56302
1.37506
1.21943
1.09331
0.991736
0.906834
0.833994
0.77183
0.716162
0.662115
0.609327
0.560445
0.515583
0.471435
0.425735
0.380742
0.341412
0.310214
0.284132
0.257149
0.225107
0.187997
0.149224
0.1133
0.0825975
0.0553092
0.0288557
0.00789807
0.00161167
1.48208
1.1935
1.0778
0.999465
0.925139
0.8664
0.813477
0.76121
0.715985
0.675298
0.630019
0.58062
0.535599
0.497213
0.458745
0.414628
0.368481
0.329901
0.304306
0.286684
0.266164
0.235643
0.195495
0.151393
0.110693
0.0777793
0.0506939
0.0251618
0.00520664
0.000681549
0.71888
0.394363
0.525779
0.66988
0.686275
0.703727
0.703124
0.671824
0.64385
0.626641
0.595118
0.547239
0.50493
0.475976
0.446564
0.403369
0.35221
0.311664
0.293228
0.288719
0.278075
0.249447
0.204521
0.152666
0.105364
0.0700641
0.0446248
0.0215264
0.00288913
-0.000132558
140.834
140.915
141.103
141.388
141.752
142.188
142.686
143.237
143.833
144.459
145.104
145.752
146.386
146.986
147.529
147.988
148.331
148.523
148.517
148.257
147.67
146.662
145.097
142.783
139.421
134.514
127.142
115.388
93.2194
33.3949
140.107
140.178
140.344
140.594
140.913
141.291
141.72
142.191
142.693
143.213
143.737
144.249
144.731
145.161
145.514
145.761
145.868
145.791
145.481
144.871
143.878
142.388
140.242
137.21
132.932
126.825
117.856
104.29
84.7645
56.3147
139.337
139.398
139.541
139.755
140.026
140.346
140.704
141.092
141.499
141.91
142.312
142.686
143.014
143.273
143.436
143.472
143.342
143.003
142.397
141.455
140.084
138.165
135.533
131.957
127.113
120.545
111.664
99.8314
85.6019
68.9957
138.526
138.578
138.696
138.873
139.096
139.355
139.642
139.946
140.256
140.557
140.836
141.072
141.247
141.336
141.312
141.14
140.783
140.192
139.311
138.065
136.364
134.091
131.094
127.176
122.091
115.545
107.243
96.8535
84.3146
69.189
137.677
137.717
137.812
137.951
138.125
138.323
138.537
138.757
138.97
139.162
139.317
139.417
139.442
139.365
139.158
138.789
138.217
137.393
136.262
134.753
132.778
130.234
126.99
122.89
117.754
111.383
103.577
94.0931
82.7646
69.7989
136.79
136.82
136.89
136.992
137.116
137.253
137.395
137.53
137.647
137.73
137.765
137.732
137.61
137.373
136.994
136.439
135.668
134.636
133.287
131.557
129.369
126.631
123.239
119.074
114.005
107.899
100.632
92.1061
82.3118
71.6622
135.869
135.889
135.934
135.998
136.073
136.149
136.219
136.271
136.293
136.271
136.188
136.026
135.764
135.377
134.837
134.111
133.162
131.947
130.415
128.509
126.163
123.302
119.845
115.704
110.793
105.033
98.3688
90.7904
82.3413
73.357
134.917
134.926
134.947
134.974
134.999
135.016
135.015
134.986
134.916
134.792
134.596
134.312
133.918
133.39
132.702
131.823
130.718
129.348
127.668
125.629
123.176
120.252
116.796
112.747
108.054
102.676
96.5989
89.8439
82.4606
74.721
133.937
133.936
133.933
133.923
133.901
133.86
133.79
133.682
133.524
133.301
132.999
132.6
132.083
131.427
130.606
129.592
128.353
126.856
125.061
122.928
120.415
117.476
114.07
110.159
105.713
100.719
95.1812
89.135
82.6339
75.905
132.934
132.923
132.896
132.851
132.782
132.685
132.549
132.366
132.123
131.808
131.406
130.9
130.272
129.5
128.561
127.432
126.082
124.484
122.606
120.414
117.877
114.962
111.642
107.895
103.708
99.0815
94.0344
88.6056
82.8479
76.9464
131.912
131.891
131.842
131.762
131.649
131.497
131.299
131.044
130.722
130.321
129.826
129.223
128.494
127.62
126.58
125.353
123.915
122.241
120.307
118.085
115.554
112.692
109.481
105.912
101.983
97.7036
93.0976
88.2041
83.0713
77.8472
130.876
130.846
130.775
130.662
130.507
130.304
130.046
129.724
129.329
128.848
128.269
127.579
126.76
125.798
124.673
123.367
121.86
120.132
118.165
115.938
113.437
110.647
107.56
104.174
100.494
96.5345
92.3212
87.8902
83.2834
78.6199
129.831
129.793
129.701
129.557
129.362
129.111
128.798
128.414
127.951
127.398
126.743
125.975
125.079
124.041
122.846
121.477
119.92
118.159
116.178
113.966
111.511
108.807
105.851
102.646
99.2012
95.5337
91.6681
87.6366
83.4751
79.2797
128.784
128.737
128.626
128.453
128.221
127.925
127.561
127.121
126.596
125.978
125.256
124.42
123.458
122.358
121.106
119.691
118.099
116.32
114.343
112.159
109.764
107.153
104.33
101.299
98.0735
94.6697
91.1107
87.4246
83.6419
79.8402
127.74
127.685
127.557
127.357
127.09
126.754
126.343
125.851
125.271
124.596
123.816
122.922
121.904
120.753
119.458
118.009
116.397
114.614
112.653
110.509
108.18
105.667
102.974
100.109
97.0845
93.9174
90.6282
87.2412
83.7819
80.3135
126.705
126.644
126.499
126.274
125.976
125.603
125.15
124.612
123.984
123.258
122.428
121.485
120.422
119.231
117.904
116.433
114.813
113.036
111.101
109.004
106.746
104.331
101.764
99.0534
96.2128
93.2573
90.2053
87.0775
83.8953
80.7105
125.687
125.619
125.459
125.213
124.886
124.479
123.989
123.411
122.741
121.972
121.099
120.116
119.018
117.796
116.447
114.964
113.344
111.583
109.68
107.636
105.451
103.131
100.683
98.1155
95.4412
92.6741
89.8302
86.9274
83.9835
81.0411
124.692
124.618
124.445
124.179
123.827
123.391
122.868
122.255
121.548
120.743
119.835
118.82
117.693
116.451
115.088
113.601
111.989
110.25
108.384
106.394
104.282
102.053
99.7166
97.2804
94.7559
92.1559
89.4945
86.787
84.0486
81.3141
123.728
123.649
123.464
123.18
122.806
122.344
121.793
121.149
120.412
119.576
118.64
117.6
116.453
115.196
113.827
112.343
110.745
109.032
107.206
105.27
103.229
101.087
98.8534
96.5361
94.1457
91.6936
89.1921
86.6543
84.093
81.5372
122.801
122.718
122.522
122.223
121.829
121.345
120.77
120.101
119.338
118.478
117.52
116.461
115.3
114.034
112.664
111.188
109.608
107.924
106.139
104.257
102.283
100.222
98.0829
95.873
93.6021
91.2804
88.9186
86.5281
84.1197
81.7177
121.92
121.833
121.628
121.315
120.905
120.402
119.806
119.117
118.332
117.453
116.478
115.405
114.235
112.967
111.6
110.136
108.576
106.922
105.178
103.348
101.437
99.451
97.3972
95.2834
93.1183
90.911
88.6711
86.4081
84.1317
81.8617
121.092
121.001
120.789
120.464
120.04
119.521
118.908
118.202
117.401
116.507
115.519
114.437
113.262
111.994
110.634
109.184
107.646
106.023
104.319
102.538
100.685
98.7667
96.7897
94.7614
92.6894
90.5821
88.4479
86.2951
84.1321
81.9755
120.325
120.232
120.012
119.678
119.242
118.71
118.083
117.362
116.549
115.643
114.646
113.559
112.383
111.118
109.768
108.333
106.817
105.224
103.557
101.821
100.021
98.1641
96.2554
94.3021
92.3115
90.2909
88.2478
86.1896
84.1237
82.0638
119.628
119.532
119.306
118.963
118.517
117.974
117.336
116.605
115.781
114.867
113.865
112.775
111.6
110.341
109
107.582
106.088
104.523
102.89
101.195
99.4434
97.64
95.7911
93.9032
91.9829
90.0368
88.0716
86.094
84.1105
82.1328
119.009
118.91
118.679
118.328
117.873
117.321
116.674
115.935
115.104
114.184
113.178
112.088
110.915
109.662
108.333
106.93
105.457
103.917
102.316
100.657
98.9472
97.1906
95.3933
93.5613
91.7007
89.8176
87.9181
86.0082
84.0937
82.1843
118.477
118.375
118.139
117.781
117.319
116.759
116.106
115.36
114.524
113.6
112.593
111.503
110.334
109.088
107.77
106.381
104.926
103.41
101.835
100.209
98.534
96.8171
95.0633
93.2782
91.4675
89.6368
87.7918
85.9378
84.0804
82.2277
118.042
117.937
117.693
117.327
116.858
116.293
115.634
114.883
114.043
113.117
112.109
111.021
109.856
108.617
107.308
105.932
104.494
102.996
101.445
99.8443
98.1991
96.5147
94.7961
93.0488
91.278
89.4892
87.6874
85.8778
84.0652
82.2566
117.716
117.605
117.352
116.98
116.506
115.936
115.273
114.518
113.676
112.749
111.741
110.655
109.493
108.26
106.959
105.594
104.169
102.687
101.154
99.5738
97.9519
96.2929
94.6019
92.884
91.1444
89.388
87.6198
85.8447
84.0673
82.2937
117.514
117.379
117.109
116.731
116.255
115.683
115.017
114.26
113.417
112.49
111.483
110.399
109.241
108.012
106.718
105.36
103.944
102.473
100.953
99.3869
97.7806
96.1387
94.4662
92.7679
91.0487
89.3137
87.5674
85.8144
84.0592
82.3068
117.496
117.297
116.999
116.614
116.135
115.56
114.891
114.132
113.288
112.361
111.355
110.273
109.117
107.893
106.602
105.25
103.841
102.378
100.866
99.3095
97.7136
96.0828
94.4221
92.7361
91.0299
89.308
87.5751
85.8357
84.0942
82.3547
-50.5824
-30.375
-11.043
35.9917
28.652
16.8296
51.548
39.5127
28.3726
52.9421
42.5414
34.5258
57.2672
48.9972
42.2593
61.646
54.7513
48.8731
64.9081
59.0367
53.9964
67.4932
62.4755
58.1725
69.672
65.3449
61.6403
71.5107
67.7357
64.5116
73.0563
69.7286
66.8937
74.3582
71.3975
68.8804
75.4568
72.8001
70.5448
76.3842
73.9818
71.9443
77.1669
74.9789
73.1245
77.8267
75.8209
74.1214
78.3819
76.5318
74.9642
78.8475
77.1312
75.6764
79.2365
77.6354
76.2773
79.5599
78.0583
76.7833
79.8272
78.4115
77.2078
80.047
78.7052
77.5627
80.2261
78.9476
77.8573
80.3724
79.1477
78.1016
80.4884
79.309
78.3
80.5859
79.4438
78.4649
80.6563
79.5441
78.5898
80.7281
79.6386
78.7016
80.7614
79.6882
78.7652
80.8303
79.7712
78.8546
-2.29622
-2.15123
-0.707352
0.392201
0.451072
0.517723
0.573738
0.550446
0.543439
0.58042
0.57375
0.513846
0.463313
0.445811
0.433436
0.391456
0.329453
0.282842
0.274927
0.292206
0.297132
0.270097
0.216954
0.153273
0.0963104
0.0581202
0.0365753
0.0183095
0.00110398
-0.000848479
3.1064
0.0486848
1.34412
0.978734
-0.198593
-0.0816728
0.456957
0.519171
0.498377
0.580728
0.565948
0.452558
0.381473
0.400997
0.438721
0.399054
0.310701
0.24431
0.246555
0.296344
0.325386
0.298531
0.231553
0.150243
0.0795752
0.0383163
0.0250751
0.0162672
0.000332163
-0.00150804
14.142
5.72404
2.8875
0.620808
0.176505
1.2005
1.42152
0.397463
-0.0567432
0.231081
0.575843
0.458001
0.348501
0.410035
0.48524
0.410568
0.259554
0.14954
0.170795
0.290606
0.378524
0.34812
0.256849
0.14937
0.0587507
0.0124235
0.0121577
0.0192712
0.0030635
-0.00217047
23.8071
13.9523
8.11387
4.3664
2.53206
1.83532
0.80332
0.117723
0.243368
1.36796
1.42132
0.361471
-0.0685322
0.0378385
0.399254
0.479145
0.254944
0.0776299
0.137198
0.36007
0.477491
0.410051
0.274994
0.129686
0.0106832
-0.0432951
-0.0195777
0.0230827
0.00971388
-0.00347522
32.94
23.1957
15.8879
10.5891
6.93014
4.44226
2.61115
1.55765
1.18175
1.24844
0.760652
0.1843
-0.010588
0.566296
1.16059
0.798111
0.156263
-0.247037
-0.268864
0.20103
0.591687
0.510964
0.314057
0.123968
-0.0255391
-0.085152
-0.0217452
0.0724941
0.0425277
-0.0051612
40.8884
31.9736
24.0927
17.6632
12.7346
9.07917
6.39576
4.49529
3.20343
2.31834
1.53802
0.92376
0.600623
0.711622
0.750296
0.554988
0.0841668
-0.291109
-0.119423
0.785985
1.06307
0.582722
0.287363
0.0494431
-0.139296
-0.229721
-0.152886
0.0535608
0.0884438
-0.0123638
47.3716
39.5736
31.8042
24.918
19.2911
14.8231
11.293
8.53324
6.42611
4.84299
3.60568
2.61658
1.91334
1.51595
1.22873
0.904458
0.437342
0.087198
0.166422
0.59976
0.747533
0.586279
0.338965
0.0804221
-0.144965
-0.237023
-0.0496369
0.274572
0.252929
-0.0217342
52.6524
45.9259
38.6729
31.8458
25.9623
21.0131
16.8689
13.4405
10.659
8.43093
6.62627
5.15514
4.00917
3.1712
2.52962
1.93996
1.35301
0.918821
0.793308
0.90143
0.937435
0.767839
0.470116
0.171781
-0.0630698
-0.157198
-0.0512531
0.128366
0.234081
-0.0831404
56.9605
51.1464
44.5648
38.0929
32.2748
27.161
22.688
18.8202
15.5276
12.7556
10.427
8.47958
6.88238
5.59985
4.55201
3.64491
2.84904
2.22859
1.85166
1.66898
1.49734
1.20629
0.836389
0.486953
0.217898
0.0784013
0.0878405
0.165226
0.162907
-0.320124
60.4761
55.4096
49.5083
43.5241
37.9698
32.9229
28.3548
24.2612
20.6433
17.4827
14.7415
12.3801
10.3662
8.66451
7.22154
5.98007
4.91288
4.03645
3.37197
2.88092
2.45142
1.99375
1.51694
1.07813
0.722848
0.481429
0.355028
0.273432
0.0860836
-0.536271
63.3631
58.9039
53.6241
48.1557
42.9585
38.1154
33.6138
29.4652
25.6904
22.2948
19.2662
16.584
14.2262
12.1672
10.373
8.80697
7.44471
6.28177
5.31644
4.51756
3.81721
3.15523
2.52182
1.94381
1.4505
1.05779
0.754402
0.476403
0.102215
-0.615698
65.754
61.7901
57.0517
52.072
47.2559
42.6819
38.3431
34.2564
30.4517
26.9473
23.747
20.8451
18.2312
15.8907
13.8034
11.9462
10.2999
8.85344
7.59622
6.5034
5.53187
4.64008
3.81175
3.05532
2.38521
1.80591
1.29981
0.813356
0.258557
-0.544648
67.7482
64.1922
59.9162
55.3761
50.9281
46.6425
42.5133
38.5575
34.8068
31.2858
28.007
24.9748
22.1881
19.6412
17.3241
15.2235
13.326
11.6207
10.0954
8.73086
7.49825
6.36854
5.32503
4.36578
3.494
2.70642
1.98399
1.28484
0.54902
-0.34918
69.4206
66.204
62.3213
58.1672
54.0575
50.054
46.1493
42.3581
38.7108
35.2335
31.9434
28.8504
25.9596
23.2721
20.7849
18.4919
16.3853
14.4565
12.6954
11.0873
9.61283
8.25128
6.98776
5.8152
4.72994
3.72433
2.78057
1.86729
0.945438
-0.0676786
70.8289
67.8973
64.3493
60.5311
56.7246
52.9844
49.3011
45.686
42.1668
38.7692
35.5115
32.4068
29.4639
26.6882
24.0818
21.6434
19.3696
17.2553
15.2931
13.4727
11.7808
10.2025
8.72539
7.34058
6.04094
4.81699
3.6531
2.52619
1.41125
0.258527
72.0181
69.3273
66.0652
62.5383
59.0004
55.4997
52.0254
48.5852
45.2035
41.9041
38.7055
35.6216
32.6633
29.8388
27.1531
24.6085
22.2051
19.9406
17.8107
15.8086
13.9252
12.15
10.4729
8.8849
7.37779
5.94167
4.56306
3.22474
1.91003
0.593156
73.0238
70.5373
67.5202
64.2457
60.9443
57.6588
54.377
51.1035
47.8593
44.666
41.541
38.4983
35.5496
32.7043
29.9696
27.3501
24.8482
22.4641
20.1962
18.0403
15.9907
14.0398
12.1797
10.4022
8.69922
7.06105
5.476
3.93039
2.41163
0.910152
73.8746
71.5622
68.7553
65.6997
62.6057
59.5118
56.4047
53.2864
50.1745
47.0882
44.0437
41.0541
38.1312
35.2849
32.5235
29.8531
27.2777
24.7996
22.4189
20.1338
17.941
15.8352
13.8102
11.8591
9.97406
8.14617
6.36483
4.61816
2.89478
1.1949
74.5938
72.4298
69.8037
66.9379
64.0253
61.101
58.1508
55.1746
52.1869
49.2047
46.2422
43.3119
40.4249
37.5912
34.8193
32.1163
29.4873
26.9358
24.4636
22.0706
19.755
17.5136
15.3415
13.233
11.1808
9.17667
7.21054
5.27119
3.34676
1.44238
75.2006
73.1634
70.6929
67.9913
65.2369
62.462
59.6517
56.804
53.9308
51.0469
48.165
45.2962
42.4508
39.6384
36.8677
34.1458
31.4788
28.8709
26.3249
23.8421
21.422
19.0625
16.7603
14.5102
12.3059
10.1395
8.00106
5.87944
3.76153
1.65404
75.7113
73.7821
71.4452
68.8856
66.2688
63.6246
60.938
58.2053
55.4362
52.6436
49.8383
47.0304
44.2291
41.4436
38.682
35.9516
33.2586
30.6079
28.0029
25.4458
22.937
20.4756
18.0589
15.6827
13.3411
11.0265
8.72927
6.43758
4.1371
1.83424
76.1395
74.3023
72.0798
69.6425
67.1448
64.6143
62.0362
59.4054
56.7297
54.0202
51.2862
48.5366
45.7798
43.0238
40.2765
37.545
34.8353
32.1527
29.501
26.8829
24.2995
21.7505
19.234
16.7463
14.2821
11.8337
9.39164
6.94357
4.47404
1.9881
76.4963
74.737
72.6122
70.2796
67.8841
65.4519
62.9681
60.4265
57.8336
55.1985
52.5296
49.8343
47.1202
44.3945
41.6646
38.9369
36.2176
33.5118
30.8234
28.1556
25.5098
22.8863
20.2836
17.6984
15.1257
12.558
9.98568
7.39603
4.77279
2.1192
76.7928
75.0988
73.0566
70.813
68.5046
66.1564
63.7535
61.2892
58.7684
56.1989
53.588
50.9421
48.2678
45.5716
42.8602
40.1396
37.4157
34.6933
31.9766
29.2686
26.5713
23.8851
21.2087
18.5394
15.872
13.1994
10.5118
7.79616
5.03572
2.23142
77.035
75.3954
73.4221
71.253
69.0177
66.7402
64.4058
62.0072
59.548
57.0352
54.4748
51.8726
49.2342
46.5654
43.8722
41.1603
38.4351
35.7012
32.9628
30.2229
27.4835
24.7452
22.0069
19.266
16.5175
13.7544
10.9667
8.14116
5.26087
2.32442
77.2348
75.6392
73.7227
71.6148
69.4396
67.2205
64.9428
62.5987
60.1911
57.7258
55.2084
52.6435
50.0363
47.3918
44.7155
42.0127
39.2883
36.5468
33.7921
31.0272
28.2541
25.4733
22.6841
19.8837
17.0674
14.228
11.3554
8.4365
5.45397
2.4034
77.3888
75.8282
73.9564
71.8971
69.7698
67.597
65.3645
63.0642
60.6979
58.2711
55.7885
53.2542
50.6727
48.0487
45.387
42.6926
39.97
37.2234
34.4567
31.6726
28.8731
26.0589
23.2291
20.381
17.5098
14.6085
11.6667
8.67136
5.60515
2.46136
77.5196
75.9846
74.1468
72.1244
70.0332
67.8955
65.6973
63.4301
61.0955
58.698
56.2421
53.7314
51.1699
48.5619
45.9118
43.2243
40.5036
37.7537
34.9783
32.1801
29.3609
26.5214
23.6606
20.776
17.8627
14.9135
11.9181
8.86297
5.73078
2.51093
77.5999
76.081
74.2656
72.2682
70.2014
68.0872
65.9119
63.667
61.3535
58.9758
56.5378
54.043
51.4951
48.8979
46.2559
43.5732
40.854
38.1022
35.3212
32.5137
29.6814
26.825
23.9435
21.0342
18.0924
15.1105
12.0781
8.98149
5.80313
2.53081
77.6886
76.1708
74.3677
72.3852
70.3321
68.2305
66.0674
63.8342
61.5317
59.1641
56.7351
54.2481
51.7067
49.1145
46.4758
43.7946
41.0752
38.3213
35.5361
32.7225
29.8822
27.0156
24.1221
21.1987
18.2407
15.2405
12.1872
9.06628
5.85764
2.53738
)
;

boundaryField
{
    inlet
    {
        type            zeroGradient;
    }
    outlet
    {
        type            fixedValue;
        value           uniform 0;
    }
    flap
    {
        type            zeroGradient;
    }
    upperWall
    {
        type            zeroGradient;
    }
    lowerWall
    {
        type            zeroGradient;
    }
    frontAndBack
    {
        type            empty;
    }
}


// ************************************************************************* //
