/*--------------------------------*- C++ -*----------------------------------*\
  =========                 |
  \\      /  F ield         | OpenFOAM: The Open Source CFD Toolbox
   \\    /   O peration     | Website:  https://openfoam.org
    \\  /    A nd           | Version:  dev
     \\/     M anipulation  |
\*---------------------------------------------------------------------------*/
FoamFile
{
    version     2.0;
    format      ascii;
    class       surfaceVectorField;
    location    "4.1";
    object      Uf;
}
// * * * * * * * * * * * * * * * * * * * * * * * * * * * * * * * * * * * * * //

dimensions      [0 1 -1 0 0 0 0];

internalField   nonuniform List<vector> 
5457
(
(9.92088 0 0.0251096)
(9.97125 0 0.0387458)
(9.82401 0 0.0328269)
(9.92859 0 0.0485853)
(9.70961 0 0.0393121)
(9.85548 0 0.0587683)
(9.57544 0 0.0460116)
(9.7568 0 0.0705935)
(9.42138 0 0.0529489)
(9.63753 0 0.0830134)
(9.24755 0 0.0601661)
(9.49861 0 0.0959364)
(9.05362 0 0.0678106)
(9.3393 0 0.109612)
(8.83893 0 0.076034)
(9.15874 0 0.124288)
(8.60252 0 0.0849695)
(8.9561 0 0.140166)
(8.34327 0 0.0947439)
(8.73039 0 0.157432)
(8.05986 0 0.105486)
(8.48041 0 0.176268)
(7.75082 0 0.117326)
(8.20479 0 0.196855)
(7.41458 0 0.130394)
(7.90197 0 0.219359)
(7.04953 0 0.144808)
(7.57033 0 0.24392)
(6.65407 0 0.16067)
(7.20822 0 0.270629)
(6.22676 0 0.178042)
(6.81404 0 0.299497)
(5.76648 0 0.196926)
(6.38638 0 0.33041)
(5.27264 0 0.217231)
(5.92423 0 0.36308)
(4.74545 0 0.238733)
(5.42718 0 0.396972)
(4.18629 0 0.26103)
(4.89574 0 0.431233)
(3.59807 0 0.283486)
(4.33174 0 0.464617)
(2.98566 0 0.305201)
(3.73871 0 0.495423)
(2.35622 0 0.325069)
(3.12238 0 0.521513)
(1.71921 0 0.342549)
(2.49118 0 0.54056)
(1.08445 0 0.361882)
(1.85596 0 0.551678)
(0.451934 0 0.34871)
(1.24558 0 0.563024)
(-0.145779 0 0.102504)
(0.609032 0 0.544915)
(-0.423601 0 -0.207095)
(0.0946939 0 0.259408)
(-0.402151 0 -0.361276)
(-0.133611 0 -0.0205128)
(-0.119682 0 -0.393882)
(9.99641 0 0.0516725)
(9.99705 0 0.0405047)
(9.95879 0 0.0708617)
(9.97851 0 0.0674547)
(9.89824 0 0.087987)
(9.93377 0 0.0898702)
(9.81659 0 0.105985)
(9.86453 0 0.113555)
(9.71359 0 0.124921)
(9.77438 0 0.138515)
(9.58909 0 0.144853)
(9.66435 0 0.164646)
(9.44274 0 0.166089)
(9.53397 0 0.192331)
(9.27391 0 0.188966)
(9.3825 0 0.222029)
(9.08167 0 0.213781)
(9.20919 0 0.254146)
(8.86491 0 0.240813)
(9.01316 0 0.289061)
(8.62231 0 0.270334)
(8.79332 0 0.327149)
(8.3524 0 0.302603)
(8.54837 0 0.368781)
(8.05358 0 0.337853)
(8.27685 0 0.414311)
(7.72415 0 0.376257)
(7.97719 0 0.46404)
(7.36241 0 0.417897)
(7.64775 0 0.518181)
(6.96677 0 0.462702)
(7.28686 0 0.576798)
(6.53589 0 0.51038)
(6.893 0 0.639717)
(6.06889 0 0.560327)
(6.46487 0 0.706418)
(5.56567 0 0.611515)
(6.00167 0 0.7759)
(5.02719 0 0.66238)
(5.50334 0 0.846516)
(4.45597 0 0.710705)
(4.97098 0 0.9158)
(3.8566 0 0.753539)
(4.40728 0 0.980303)
(3.2363 0 0.787198)
(3.81714 0 1.03546)
(2.60592 0 0.807507)
(3.20856 0 1.07549)
(1.98289 0 0.810476)
(2.59349 0 1.09316)
(1.40537 0 0.776917)
(1.9963 0 1.0771)
(0.929833 0 0.646433)
(1.41958 0 0.978445)
(0.439936 0 0.384386)
(0.937634 0 0.716834)
(0.0592124 0 -0.118573)
(0.443867 0 0.343575)
(0.174934 0 -0.335887)
(9.98903 0 0.0594311)
(9.99481 0 0.0458776)
(9.95434 0 0.0894768)
(9.97368 0 0.0848545)
(9.89729 0 0.118032)
(9.92984 0 0.119174)
(9.82046 0 0.147898)
(9.86357 0 0.153976)
(9.72416 0 0.179422)
(9.77736 0 0.190408)
(9.60821 0 0.212774)
(9.67227 0 0.228636)
(9.47234 0 0.248391)
(9.5481 0 0.269128)
(9.31608 0 0.286772)
(9.40432 0 0.312494)
(9.13869 0 0.328394)
(9.24034 0 0.359322)
(8.93925 0 0.373717)
(9.05549 0 0.410169)
(8.71665 0 0.423199)
(8.8489 0 0.465591)
(8.46961 0 0.477287)
(8.61952 0 0.526144)
(8.19669 0 0.536388)
(8.36617 0 0.592361)
(7.89635 0 0.600829)
(8.08754 0 0.664724)
(7.56695 0 0.670796)
(7.78222 0 0.743602)
(7.20688 0 0.74624)
(7.44877 0 0.829171)
(6.81462 0 0.826765)
(7.08573 0 0.921299)
(6.38894 0 0.911466)
(6.69176 0 1.01938)
(5.92911 0 0.998741)
(6.26578 0 1.12215)
(5.43522 0 1.08608)
(5.8072 0 1.2274)
(4.90864 0 1.16981)
(5.31616 0 1.33173)
(4.35253 0 1.24489)
(4.79407 0 1.43018)
(3.7727 0 1.30455)
(4.24408 0 1.51587)
(3.17883 0 1.33985)
(3.67192 0 1.57943)
(2.58673 0 1.33814)
(3.08643 0 1.60776)
(2.01995 0 1.273)
(2.50302 0 1.58161)
(1.48703 0 1.09546)
(1.92883 0 1.4643)
(0.958356 0 0.769225)
(1.38532 0 1.21046)
(0.479915 0 0.202525)
(0.82959 0 0.801111)
(0.433754 0 0.13416)
(9.98515 0 0.0716142)
(9.99367 0 0.0531481)
(9.95039 0 0.113631)
(9.97087 0 0.102291)
(9.89436 0 0.154134)
(9.9269 0 0.147954)
(9.81882 0 0.195573)
(9.86185 0 0.193722)
(9.72442 0 0.238811)
(9.77746 0 0.241277)
(9.61112 0 0.284323)
(9.67467 0 0.291163)
(9.47874 0 0.332718)
(9.55343 0 0.343954)
(9.32695 0 0.384671)
(9.41336 0 0.400369)
(9.15523 0 0.440842)
(9.254 0 0.461135)
(8.96291 0 0.501876)
(9.07484 0 0.526954)
(8.74917 0 0.568418)
(8.8752 0 0.598527)
(8.51305 0 0.6411)
(8.6543 0 0.67655)
(8.25348 0 0.720516)
(8.41124 0 0.761706)
(7.96928 0 0.807172)
(8.14501 0 0.854618)
(7.65921 0 0.901417)
(7.85457 0 0.955797)
(7.32196 0 1.00332)
(7.53878 0 1.06554)
(6.95626 0 1.11255)
(7.1965 0 1.18382)
(6.5609 0 1.22811)
(6.82658 0 1.31005)
(6.13496 0 1.34814)
(6.42795 0 1.44289)
(5.67792 0 1.46958)
(5.99974 0 1.57987)
(5.19009 0 1.58775)
(5.54143 0 1.71706)
(4.67296 0 1.69601)
(5.05315 0 1.84852)
(4.1299 0 1.78515)
(4.53607 0 1.96582)
(3.56676 0 1.84254)
(3.99284 0 2.05731)
(2.99215 0 1.85075)
(3.42771 0 2.10716)
(2.41594 0 1.78253)
(2.84774 0 2.09452)
(1.84062 0 1.60052)
(2.25632 0 1.98879)
(1.25944 0 1.2785)
(1.66039 0 1.75312)
(0.666803 0 0.789623)
(1.02401 0 1.36786)
(0.523054 0 0.787252)
(9.98337 0 0.0844077)
(9.99316 0 0.0612917)
(9.94821 0 0.136837)
(9.96958 0 0.119928)
(9.89314 0 0.188032)
(9.92575 0 0.176241)
(9.81906 0 0.240169)
(9.86199 0 0.232698)
(9.72662 0 0.294466)
(9.77964 0 0.291087)
(9.6159 0 0.351657)
(9.6794 0 0.352273)
(9.48671 0 0.412467)
(9.56127 0 0.416975)
(9.33878 0 0.477671)
(9.42496 0 0.486004)
(9.17171 0 0.548043)
(9.27009 0 0.560198)
(8.98493 0 0.624344)
(9.0962 0 0.640377)
(8.77779 0 0.70733)
(8.90275 0 0.727355)
(8.54954 0 0.797747)
(8.68907 0 0.82194)
(8.29936 0 0.896305)
(8.45445 0 0.924921)
(8.02636 0 1.00363)
(8.19809 0 1.03703)
(7.7296 0 1.12018)
(7.91914 0 1.15889)
(7.40809 0 1.24613)
(7.61672 0 1.29089)
(7.06081 0 1.38124)
(7.28989 0 1.43311)
(6.68675 0 1.52455)
(6.93767 0 1.58507)
(6.28492 0 1.67415)
(6.55905 0 1.74546)
(5.85446 0 1.82676)
(6.15294 0 1.91185)
(5.39479 0 1.97723)
(5.7183 0 2.08013)
(4.90585 0 2.11803)
(5.25417 0 2.24406)
(4.38835 0 2.2386)
(4.75984 0 2.39459)
(3.84405 0 2.32455)
(4.23506 0 2.51919)
(3.27554 0 2.35698)
(3.68 0 2.60126)
(2.68549 0 2.31064)
(3.09583 0 2.61974)
(2.07277 0 2.15508)
(2.48179 0 2.54739)
(1.42944 0 1.86749)
(1.83999 0 2.35381)
(0.742643 0 1.41968)
(1.13141 0 2.02464)
(0.543328 0 1.51462)
(9.98264 0 0.097498)
(9.99299 0 0.0697931)
(9.94744 0 0.159775)
(9.96925 0 0.137584)
(9.89354 0 0.221348)
(9.92597 0 0.203927)
(9.82133 0 0.284092)
(9.86381 0 0.270688)
(9.73134 0 0.349347)
(9.78385 0 0.339582)
(9.62366 0 0.418016)
(9.68664 0 0.411695)
(9.49819 0 0.490934)
(9.57218 0 0.487899)
(9.35465 0 0.568968)
(9.44021 0 0.569099)
(9.19269 0 0.652995)
(9.29043 0 0.656225)
(9.01183 0 0.743885)
(9.12242 0 0.750202)
(8.81151 0 0.8425)
(8.93571 0 0.851942)
(8.59109 0 0.949689)
(8.72973 0 0.962347)
(8.34986 0 1.06626)
(8.50382 0 1.0823)
(8.08708 0 1.19293)
(8.25729 0 1.21262)
(7.80194 0 1.33027)
(7.98939 0 1.35401)
(7.49363 0 1.47856)
(7.69932 0 1.50699)
(7.16123 0 1.63765)
(7.3862 0 1.67172)
(6.80377 0 1.80671)
(7.04907 0 1.84787)
(6.42017 0 1.98393)
(6.6868 0 2.03431)
(6.0092 0 2.1661)
(6.29808 0 2.22879)
(5.56949 0 2.34807)
(5.88127 0 2.42744)
(5.09956 0 2.52218)
(5.43443 0 2.62423)
(4.59785 0 2.67756)
(4.95522 0 2.81027)
(4.06281 0 2.7995)
(4.44096 0 2.97322)
(3.49281 0 2.86914)
(3.88864 0 3.09665)
(2.88593 0 2.86298)
(3.29535 0 3.15995)
(2.2381 0 2.75402)
(2.657 0 3.13799)
(1.54251 0 2.52115)
(1.97493 0 3.00331)
(0.793682 0 2.13147)
(1.2073 0 2.74075)
(0.556763 0 2.29199)
(9.9825 0 0.110627)
(9.99302 0 0.0783618)
(9.9477 0 0.182325)
(9.96954 0 0.155038)
(9.89522 0 0.253817)
(9.92722 0 0.230886)
(9.82524 0 0.326766)
(9.86696 0 0.307509)
(9.73813 0 0.402553)
(9.78977 0 0.386521)
(9.63403 0 0.482231)
(9.69605 0 0.469146)
(9.51285 0 0.566752)
(9.58579 0 0.556393)
(9.37438 0 0.657085)
(9.45879 0 0.649264)
(9.21828 0 0.754202)
(9.3148 0 0.748778)
(9.04414 0 0.85907)
(9.15346 0 0.855949)
(8.85145 0 0.972644)
(8.97434 0 0.971784)
(8.63963 0 1.09586)
(8.77691 0 1.09727)
(8.40803 0 1.22962)
(8.56058 0 1.23339)
(8.15596 0 1.37472)
(8.3247 0 1.38104)
(7.88266 0 1.53183)
(8.06854 0 1.54104)
(7.5873 0 1.70134)
(7.79127 0 1.71401)
(7.26893 0 1.88325)
(7.49199 0 1.90026)
(6.92647 0 2.07693)
(7.16958 0 2.09965)
(6.55857 0 2.28081)
(6.82271 0 2.31134)
(6.16354 0 2.49201)
(6.44966 0 2.53344)
(5.73922 0 2.7058)
(6.04818 0 2.7626)
(5.28283 0 2.91496)
(5.61534 0 2.99343)
(4.79095 0 3.10915)
(5.14736 0 3.21782)
(4.25942 0 3.27421)
(4.63951 0 3.42427)
(3.68352 0 3.3919)
(4.08619 0 3.59717)
(3.05817 0 3.43976)
(3.48145 0 3.71659)
(2.37784 0 3.3919)
(2.81849 0 3.75822)
(1.63799 0 3.22632)
(2.09926 0 3.69412)
(0.839172 0 2.90102)
(1.27899 0 3.50466)
(0.573392 0 3.11391)
(9.98273 0 0.123582)
(9.99316 0 0.0868179)
(9.94873 0 0.20431)
(9.97026 0 0.172094)
(9.89794 0 0.285252)
(9.92926 0 0.256976)
(9.8305 0 0.367965)
(9.87123 0 0.342988)
(9.7467 0 0.45385)
(9.79715 0 0.431678)
(9.64668 0 0.544074)
(9.70734 0 0.524349)
(9.53038 0 0.639702)
(9.6018 0 0.622131)
(9.39762 0 0.741791)
(9.48038 0 0.726119)
(9.24812 0 0.851403)
(9.34285 0 0.837414)
(9.08152 0 0.969591)
(9.18894 0 0.957118)
(8.89736 0 1.0974)
(9.01824 0 1.08632)
(8.6951 0 1.23586)
(8.83029 0 1.22611)
(8.47413 0 1.38595)
(8.62455 0 1.37755)
(8.23377 0 1.54859)
(8.40037 0 1.54165)
(7.97324 0 1.72456)
(8.15702 0 1.71934)
(7.69164 0 1.9144)
(7.89366 0 1.91138)
(7.38789 0 2.1183)
(7.60923 0 2.11831)
(7.06067 0 2.33591)
(7.30246 0 2.34023)
(6.70827 0 2.56607)
(6.97171 0 2.5767)
(6.32844 0 2.80643)
(6.61479 0 2.82637)
(5.9182 0 3.053)
(6.22881 0 3.08664)
(5.47357 0 3.29949)
(5.80985 0 3.35312)
(4.98944 0 3.53664)
(5.35279 0 3.61895)
(4.45948 0 3.75142)
(4.85103 0 3.87398)
(3.87637 0 3.92651)
(4.29659 0 4.10396)
(3.23248 0 4.03994)
(3.68072 0 4.28975)
(2.52096 0 4.06512)
(2.99367 0 4.40689)
(1.73847 0 3.97631)
(2.23751 0 4.42475)
(0.889526 0 3.71896)
(1.36345 0 4.31651)
(0.598795 0 3.98514)
(9.98321 0 0.136204)
(9.99339 0 0.095041)
(9.95032 0 0.225573)
(9.97131 0 0.18859)
(9.90151 0 0.315497)
(9.93193 0 0.28205)
(9.83694 0 0.407503)
(9.87643 0 0.376961)
(9.75683 0 0.503011)
(9.80579 0 0.47484)
(9.66135 0 0.603273)
(9.7203 0 0.577048)
(9.55046 0 0.709453)
(9.61995 0 0.68481)
(9.42403 0 0.822692)
(9.50464 0 0.799309)
(9.28183 0 0.944132)
(9.37421 0 0.921723)
(9.12355 0 1.07491)
(9.22843 0 1.05323)
(8.94879 0 1.21617)
(9.06695 0 1.19502)
(8.75705 0 1.36901)
(8.88938 0 1.34825)
(8.54777 0 1.53455)
(8.6952 0 1.51409)
(8.32026 0 1.7138)
(8.48382 0 1.69366)
(8.07372 0 1.90769)
(8.25451 0 1.88805)
(7.80716 0 2.11697)
(8.00638 0 2.09821)
(7.51936 0 2.34209)
(7.73828 0 2.3249)
(7.20873 0 2.58309)
(7.44877 0 2.56861)
(6.87317 0 2.83932)
(7.13591 0 2.82937)
(6.50986 0 3.1092)
(6.79709 0 3.10656)
(6.11499 0 3.38974)
(6.42878 0 3.39854)
(5.68345 0 3.67597)
(6.02617 0 3.70223)
(5.20854 0 3.96018)
(5.58284 0 4.01243)
(4.68183 0 4.23099)
(5.0904 0 4.32094)
(4.09337 0 4.47235)
(4.53836 0 4.6154)
(3.4326 0 4.66263)
(3.9148 0 4.87792)
(2.69021 0 4.77329)
(3.20579 0 5.0837)
(1.86191 0 4.77259)
(2.41137 0 5.19815)
(0.954216 0 4.58996)
(1.47634 0 5.18455)
(0.639223 0 4.91974)
(9.98386 0 0.14837)
(9.99368 0 0.102945)
(9.95235 0 0.245972)
(9.9726 0 0.204396)
(9.90578 0 0.3444)
(9.9351 0 0.305971)
(9.84437 0 0.445199)
(9.88241 0 0.409272)
(9.76832 0 0.54981)
(9.81551 0 0.515817)
(9.67779 0 0.659556)
(9.7347 0 0.62701)
(9.5728 0 0.775682)
(9.63998 0 0.744154)
(9.45327 0 0.899408)
(9.53129 0 0.868509)
(9.31901 0 1.03195)
(9.40852 0 1.00133)
(9.16977 0 1.17454)
(9.27151 0 1.14386)
(9.00522 0 1.32837)
(9.11998 0 1.29736)
(8.82492 0 1.49468)
(8.9536 0 1.4631)
(8.62835 0 1.67466)
(8.77193 0 1.64233)
(8.41485 0 1.86949)
(8.57443 0 1.83632)
(8.18362 0 2.08027)
(8.36038 0 2.04629)
(7.93362 0 2.30799)
(8.1289 0 2.27343)
(7.66351 0 2.55343)
(7.87882 0 2.5188)
(7.37148 0 2.8171)
(7.60857 0 2.78331)
(7.05512 0 3.09903)
(7.31603 0 3.06759)
(6.7111 0 3.39856)
(6.99827 0 3.37186)
(6.33491 0 3.71399)
(6.65128 0 3.69568)
(5.92038 0 4.04202)
(6.26952 0 4.03757)
(5.45932 0 4.37701)
(5.84544 0 4.39444)
(4.94112 0 4.70987)
(5.36895 0 4.76067)
(4.35279 0 5.02656)
(4.82687 0 5.12673)
(3.67965 0 5.30626)
(4.20326 0 5.4771)
(2.90757 0 5.51832)
(3.47799 0 5.78758)
(2.02771 0 5.62322)
(2.64511 0 6.01969)
(1.04513 0 5.52972)
(1.63778 0 6.12419)
(0.7045 0 5.94338)
(9.98465 0 0.159983)
(9.99402 0 0.110464)
(9.95473 0 0.265384)
(9.97409 0 0.219402)
(9.91065 0 0.371823)
(9.93867 0 0.328615)
(9.85266 0 0.480886)
(9.88904 0 0.439779)
(9.78099 0 0.594046)
(9.82618 0 0.554435)
(9.6958 0 0.712679)
(9.75037 0 0.674025)
(9.59715 0 0.838103)
(9.66166 0 0.799915)
(9.48501 0 0.971608)
(9.56002 0 0.933429)
(9.35926 0 1.11448)
(9.44542 0 1.07588)
(9.21972 0 1.26801)
(9.31775 0 1.2286)
(9.06612 0 1.43349)
(9.17683 0 1.39289)
(8.8981 0 1.61225)
(9.02239 0 1.57012)
(8.71521 0 1.80559)
(8.85409 0 1.76165)
(8.51685 0 2.01484)
(8.67144 0 1.96885)
(8.30226 0 2.2413)
(8.47384 0 2.19315)
(8.07041 0 2.48623)
(8.26045 0 2.43594)
(7.81991 0 2.75081)
(8.03013 0 2.69862)
(7.54887 0 3.03609)
(7.78132 0 2.98258)
(7.2547 0 3.34288)
(7.51187 0 3.28911)
(6.93376 0 3.6716)
(7.21874 0 3.61937)
(6.58104 0 4.02207)
(6.89772 0 3.97428)
(6.1896 0 4.39305)
(6.54285 0 4.35423)
(5.74994 0 4.78156)
(6.14586 0 4.75872)
(5.24931 0 5.18171)
(5.69526 0 5.1855)
(4.67114 0 5.58284)
(5.17529 0 5.62921)
(3.99511 0 5.96665)
(4.56531 0 6.07886)
(3.1986 0 6.30189)
(3.83655 0 6.51373)
(2.26191 0 6.54094)
(2.97102 0 6.89429)
(1.18068 0 6.56543)
(1.87927 0 7.15817)
(0.812866 0 7.09979)
(9.98553 0 0.170965)
(9.9944 0 0.117548)
(9.95738 0 0.283701)
(9.97572 0 0.233522)
(9.916 0 0.397638)
(9.94258 0 0.349872)
(9.86169 0 0.514414)
(9.89623 0 0.468354)
(9.79468 0 0.635536)
(9.83764 0 0.590542)
(9.71516 0 0.762428)
(9.76712 0 0.71791)
(9.62324 0 0.896463)
(9.68474 0 0.851874)
(9.51893 0 1.03899)
(9.59054 0 0.993813)
(9.4022 0 1.19136)
(9.48455 0 1.1451)
(9.27292 0 1.35493)
(9.36672 0 1.3071)
(9.13092 0 1.53106)
(9.23697 0 1.48121)
(8.97594 0 1.72116)
(9.09513 0 1.66884)
(8.80762 0 1.92666)
(8.94094 0 1.87146)
(8.62545 0 2.14902)
(8.77407 0 2.09057)
(8.42876 0 2.38977)
(8.59399 0 2.32775)
(8.21662 0 2.65044)
(8.40001 0 2.58463)
(7.98771 0 2.93262)
(8.19114 0 2.86295)
(7.7402 0 3.23794)
(7.96596 0 3.16455)
(7.47154 0 3.56805)
(7.72246 0 3.49142)
(7.17807 0 3.92456)
(7.45781 0 3.8457)
(6.85466 0 4.309)
(7.16792 0 4.22973)
(6.49404 0 4.72252)
(6.847 0 4.64596)
(6.08595 0 5.16542)
(6.48668 0 5.09685)
(5.61593 0 5.63623)
(6.07495 0 5.58435)
(5.06389 0 6.1298)
(5.59434 0 6.10899)
(4.40254 0 6.63383)
(5.01995 0 6.66756)
(3.59643 0 7.12137)
(4.31292 0 7.24863)
(2.60457 0 7.54091)
(3.43602 0 7.82042)
(1.39444 0 7.74083)
(2.25672 0 8.31542)
(1.00274 0 8.46556)
(9.9865 0 0.181254)
(9.9948 0 0.124157)
(9.96026 0 0.300835)
(9.97747 0 0.246683)
(9.92176 0 0.421736)
(9.94676 0 0.36965)
(9.87133 0 0.545653)
(9.90387 0 0.494889)
(9.80923 0 0.674124)
(9.84976 0 0.624007)
(9.73567 0 0.808613)
(9.78478 0 0.758507)
(9.6508 0 0.95054)
(9.70901 0 0.899845)
(9.5547 0 1.1013)
(9.62257 0 1.04944)
(9.44741 0 1.2623)
(9.52554 0 1.20871)
(9.32889 0 1.43493)
(9.41797 0 1.37907)
(9.19907 0 1.62064)
(9.29986 0 1.56195)
(9.05778 0 1.8209)
(9.17116 0 1.75884)
(8.90478 0 2.03725)
(9.03174 0 1.97127)
(8.73973 0 2.27128)
(8.88139 0 2.20086)
(8.56209 0 2.52471)
(8.71978 0 2.44932)
(8.3711 0 2.79935)
(8.5464 0 2.71849)
(8.16565 0 3.09719)
(8.36049 0 3.01042)
(7.94416 0 3.42041)
(8.16094 0 3.32739)
(7.70435 0 3.77149)
(7.94612 0 3.672)
(7.44292 0 4.15325)
(7.71365 0 4.04732)
(7.15513 0 4.56894)
(7.46009 0 4.45704)
(6.83411 0 5.02231)
(7.18044 0 4.90566)
(6.4698 0 5.51748)
(6.86729 0 5.39869)
(6.04733 0 6.05859)
(6.5096 0 5.94286)
(5.54444 0 6.64868)
(6.09041 0 6.54606)
(4.92751 0 7.28702)
(5.58357 0 7.21672)
(4.14546 0 7.96158)
(4.94303 0 7.9616)
(3.12217 0 8.63391)
(4.10984 0 8.77588)
(1.75651 0 9.12838)
(2.87891 0 9.62141)
(1.36499 0 10.186)
(9.98753 0 0.190801)
(9.99523 0 0.130262)
(9.96332 0 0.31671)
(9.97932 0 0.258827)
(9.92785 0 0.444026)
(9.95115 0 0.387872)
(9.88147 0 0.574493)
(9.91187 0 0.519289)
(9.82448 0 0.709682)
(9.86242 0 0.654718)
(9.75711 0 0.851086)
(9.80316 0 0.795686)
(9.67957 0 1.00016)
(9.73424 0 0.943676)
(9.59199 0 1.15834)
(9.65581 0 1.10014)
(9.49449 0 1.32706)
(9.56803 0 1.26652)
(9.38713 0 1.50776)
(9.47105 0 1.44426)
(9.26993 0 1.70193)
(9.36496 0 1.63484)
(9.14287 0 1.91111)
(9.24983 0 1.83978)
(9.00584 0 2.1369)
(9.12568 0 2.06067)
(8.85868 0 2.38102)
(8.99247 0 2.29919)
(8.70105 0 2.64535)
(8.85008 0 2.55719)
(8.53245 0 2.93193)
(8.69825 0 2.83666)
(8.35211 0 3.24307)
(8.53655 0 3.13988)
(8.15885 0 3.58146)
(8.3643 0 3.46947)
(7.95094 0 3.9503)
(8.18044 0 3.82855)
(7.72584 0 4.35345)
(7.98337 0 4.22092)
(7.47979 0 4.79579)
(7.77074 0 4.65139)
(7.20724 0 5.2835)
(7.53906 0 5.12615)
(6.8998 0 5.82457)
(7.2831 0 5.65342)
(6.54452 0 6.42936)
(6.99486 0 6.24434)
(6.12066 0 7.1113)
(6.66165 0 6.91444)
(5.59346 0 7.88755)
(6.26288 0 7.68599)
(4.90142 0 8.77799)
(5.75812 0 8.59251)
(3.92747 0 9.80191)
(5.08807 0 9.68528)
(2.43372 0 10.8575)
(3.98034 0 11.0499)
(2.14683 0 12.5696)
(9.98861 0 0.199566)
(9.99567 0 0.135838)
(9.96652 0 0.331266)
(9.98124 0 0.26991)
(9.93419 0 0.464423)
(9.9557 0 0.404477)
(9.89201 0 0.600826)
(9.92016 0 0.541481)
(9.84029 0 0.742071)
(9.87551 0 0.682588)
(9.77931 0 0.889672)
(9.82215 0 0.829343)
(9.7093 0 1.04511)
(9.76026 0 0.983245)
(9.63049 0 1.20985)
(9.69008 0 1.14577)
(9.54305 0 1.38533)
(9.61183 0 1.31837)
(9.44714 0 1.57304)
(9.52574 0 1.5025)
(9.34292 0 1.77448)
(9.43203 0 1.69967)
(9.23048 0 1.99124)
(9.33088 0 1.9114)
(9.1099 0 2.22497)
(9.22248 0 2.13933)
(8.98121 0 2.47747)
(9.10699 0 2.38518)
(8.84433 0 2.75073)
(8.98451 0 2.65086)
(8.69908 0 3.04694)
(8.8551 0 2.93846)
(8.54512 0 3.36868)
(8.71873 0 3.25041)
(8.38183 0 3.71898)
(8.57525 0 3.58952)
(8.20827 0 4.10154)
(8.4243 0 3.95924)
(8.02298 0 4.52103)
(8.26533 0 4.36382)
(7.82378 0 4.98348)
(8.09743 0 4.80873)
(7.60737 0 5.49696)
(7.91924 0 5.30121)
(7.36875 0 6.0725)
(7.72878 0 5.85113)
(7.09998 0 6.72577)
(7.5232 0 6.47241)
(6.78793 0 7.47998)
(7.29825 0 7.18565)
(6.40905 0 8.37189)
(7.0485 0 8.02324)
(5.91633 0 9.466)
(6.76377 0 9.04171)
(5.19715 0 10.9087)
(6.46314 0 10.3568)
(3.88566 0 13.1802)
(6.1918 0 12.3041)
(5.26216 0 16.3754)
(0.19976 0 -0.12292)
(0.115437 0 -0.195652)
(0.390408 0 -0.105193)
(0.28076 0 -0.182318)
(0.549901 0 -0.0826028)
(0.447552 0 -0.148922)
(0.678782 0 -0.0630544)
(0.590945 0 -0.117496)
(0.782232 0 -0.0475743)
(0.707122 0 -0.0920845)
(0.865416 0 -0.0356427)
(0.800998 0 -0.0722963)
(0.932746 0 -0.0265914)
(0.878107 0 -0.0571347)
(0.98792 0 -0.0198413)
(0.942692 0 -0.0457145)
(1.03398 0 -0.0148969)
(0.997873 0 -0.0372641)
(1.07337 0 -0.0113349)
(1.04606 0 -0.0311126)
(1.10798 0 -0.00879434)
(1.08916 0 -0.0266886)
(1.13919 0 -0.00696193)
(1.12862 0 -0.0234982)
(1.16789 0 -0.00556073)
(1.16547 0 -0.0211004)
(1.19449 0 -0.00435177)
(1.20035 0 -0.0190998)
(1.21898 0 -0.00315096)
(1.23347 0 -0.0171665)
(1.24102 0 -0.0018525)
(1.26474 0 -0.0150771)
(1.2601 0 -0.00043654)
(1.29381 0 -0.0127517)
(1.2758 0 0.00106592)
(1.3203 0 -0.010245)
(1.28782 0 0.0026475)
(1.34391 0 -0.0076537)
(1.29584 0 0.00435719)
(1.3645 0 -0.00498539)
(1.29941 0 0.006181)
(1.38193 0 -0.00217266)
(1.29797 0 0.00792246)
(1.39575 0 0.000857218)
(1.29114 0 0.00932621)
(1.40526 0 0.00395426)
(1.27982 0 0.0100888)
(1.4101 0 0.00639465)
(1.26607 0 0.00991655)
(1.4111 0 0.00759166)
(1.25256 0 0.00881752)
(1.41029 0 0.00727881)
(1.24129 0 0.00704402)
(1.41003 0 0.00592899)
(1.23349 0 0.00482263)
(1.41182 0 0.00400658)
(1.23006 0 0.0021355)
(1.41628 0 0.00172346)
(1.42553 0 -0.000903926)
(0.17868 0 -0.283401)
(0.0922574 0 -0.370658)
(0.352429 0 -0.25037)
(0.241518 0 -0.348476)
(0.50066 0 -0.202781)
(0.38321 0 -0.287328)
(0.623651 0 -0.160803)
(0.505973 0 -0.229623)
(0.726167 0 -0.127465)
(0.60682 0 -0.183338)
(0.812646 0 -0.10175)
(0.690456 0 -0.147456)
(0.886703 0 -0.0822162)
(0.761254 0 -0.119979)
(0.951251 0 -0.067601)
(0.82242 0 -0.099195)
(1.00862 0 -0.0568278)
(0.876299 0 -0.0836723)
(1.06065 0 -0.0489857)
(0.924699 0 -0.0722102)
(1.10878 0 -0.0433037)
(0.969047 0 -0.0638081)
(1.15409 0 -0.0391149)
(1.01045 0 -0.0576152)
(1.19732 0 -0.03583)
(1.04971 0 -0.0528824)
(1.23889 0 -0.0329369)
(1.08738 0 -0.0489425)
(1.27893 0 -0.0300358)
(1.12371 0 -0.0452305)
(1.31731 0 -0.0268918)
(1.15872 0 -0.0413454)
(1.35379 0 -0.0234651)
(1.19224 0 -0.0371232)
(1.38814 0 -0.0198568)
(1.22396 0 -0.0326546)
(1.42033 0 -0.0161525)
(1.25369 0 -0.0281577)
(1.45044 0 -0.0122833)
(1.28145 0 -0.0237124)
(1.47824 0 -0.00810904)
(1.30753 0 -0.0190529)
(1.50292 0 -0.00373535)
(1.33196 0 -0.0137807)
(1.52375 0 0.000301046)
(1.35414 0 -0.00809985)
(1.54063 0 0.0032229)
(1.37327 0 -0.00314728)
(1.55456 0 0.00457975)
(1.38901 0 -9.75777e-05)
(1.56734 0 0.0044818)
(1.402 0 0.000392521)
(1.58035 0 0.00331193)
(1.41367 0 -0.000918195)
(1.59455 0 0.00143995)
(1.42495 0 -0.00328808)
(1.61005 0 -0.000623232)
(1.43616 0 -0.00604921)
(1.45013 0 -0.00725524)
(0.145781 0 -0.443189)
(0.0687339 0 -0.513441)
(0.283022 0 -0.393272)
(0.188594 0 -0.47972)
(0.397942 0 -0.321439)
(0.290692 0 -0.394631)
(0.49253 0 -0.258322)
(0.379251 0 -0.315855)
(0.571423 0 -0.208327)
(0.450302 0 -0.253563)
(0.638234 0 -0.16967)
(0.509267 0 -0.205522)
(0.695759 0 -0.140118)
(0.559134 0 -0.168794)
(0.746148 0 -0.117767)
(0.602028 0 -0.140945)
(0.791086 0 -0.101039)
(0.639537 0 -0.120025)
(0.831914 0 -0.0886246)
(0.672913 0 -0.104459)
(0.869697 0 -0.0794251)
(0.703149 0 -0.0929472)
(0.905253 0 -0.0724924)
(0.73103 0 -0.0843884)
(0.939163 0 -0.066988)
(0.757159 0 -0.0778137)
(0.971783 0 -0.0621785)
(0.781971 0 -0.0723589)
(1.00324 0 -0.0574761)
(0.805744 0 -0.0672778)
(1.03344 0 -0.0525194)
(0.828584 0 -0.0620136)
(1.06215 0 -0.0472412)
(0.850385 0 -0.056307)
(1.08915 0 -0.0418315)
(0.870852 0 -0.0502691)
(1.11445 0 -0.0365093)
(0.889588 0 -0.044272)
(1.13835 0 -0.0311713)
(0.906505 0 -0.0385799)
(1.16119 0 -0.025282)
(0.9221 0 -0.0329177)
(1.1829 0 -0.0184651)
(0.937354 0 -0.026657)
(1.20291 0 -0.0115209)
(0.95248 0 -0.0196835)
(1.22052 0 -0.00632952)
(0.965954 0 -0.0131012)
(1.23551 0 -0.00422138)
(0.9755 0 -0.00836908)
(1.24784 0 -0.00510648)
(0.980185 0 -0.00625155)
(1.25797 0 -0.00798094)
(0.98093 0 -0.00624984)
(1.26629 0 -0.0115819)
(0.978688 0 -0.00756086)
(1.27441 0 -0.0139131)
(0.974224 0 -0.0101211)
(0.968405 0 -0.0107624)
(0.110252 0 -0.560826)
(0.0456495 0 -0.621426)
(0.204892 0 -0.492364)
(0.129634 0 -0.570225)
(0.279798 0 -0.400233)
(0.18567 0 -0.464572)
(0.339597 0 -0.321336)
(0.235874 0 -0.370372)
(0.388691 0 -0.259741)
(0.271827 0 -0.297263)
(0.429694 0 -0.212353)
(0.301017 0 -0.241158)
(0.464446 0 -0.176149)
(0.324469 0 -0.198284)
(0.494267 0 -0.148689)
(0.343377 0 -0.165653)
(0.520193 0 -0.128036)
(0.358662 0 -0.140998)
(0.543065 0 -0.11262)
(0.371087 0 -0.122525)
(0.56357 0 -0.101131)
(0.381257 0 -0.108761)
(0.582258 0 -0.0924371)
(0.389657 0 -0.0984604)
(0.599556 0 -0.0855418)
(0.396701 0 -0.0905311)
(0.615779 0 -0.0795654)
(0.402761 0 -0.0840044)
(0.631116 0 -0.0737802)
(0.408166 0 -0.0780281)
(0.645589 0 -0.0676994)
(0.413187 0 -0.0719178)
(0.659009 0 -0.0611849)
(0.417849 0 -0.0652738)
(0.671021 0 -0.0544774)
(0.421967 0 -0.0581057)
(0.681366 0 -0.0480189)
(0.42469 0 -0.0508616)
(0.690308 0 -0.0420879)
(0.425424 0 -0.0441416)
(0.698594 0 -0.0364954)
(0.423495 0 -0.0379492)
(0.706799 0 -0.0306602)
(0.420404 0 -0.0315221)
(0.714183 0 -0.0242574)
(0.416036 0 -0.023958)
(0.718964 0 -0.0176982)
(0.411416 0 -0.0158037)
(0.71905 0 -0.011817)
(0.404947 0 -0.00841639)
(0.712954 0 -0.0071851)
(0.396533 0 -0.00296654)
(0.701493 0 -0.00434018)
(0.388814 0 -0.000220251)
(0.685839 0 -0.00404358)
(0.380164 0 0.000480795)
(0.667884 0 -0.00528718)
(0.370565 0 -0.00111528)
(0.353878 0 -0.00669152)
(0.0696071 0 -0.639071)
(0.0215128 0 -0.689602)
(0.117297 0 -0.550946)
(0.0640423 0 -0.615832)
(0.14886 0 -0.442841)
(0.0700866 0 -0.494043)
(0.170044 0 -0.353486)
(0.0792749 0 -0.389685)
(0.185203 0 -0.284747)
(0.0767622 0 -0.310757)
(0.195763 0 -0.232044)
(0.0723848 0 -0.250336)
(0.202712 0 -0.191733)
(0.0649865 0 -0.204181)
(0.206732 0 -0.161034)
(0.0554766 0 -0.168983)
(0.208398 0 -0.137826)
(0.0443726 0 -0.142346)
(0.208181 0 -0.120412)
(0.0321517 0 -0.122354)
(0.206468 0 -0.107383)
(0.0191581 0 -0.10744)
(0.203594 0 -0.0975345)
(0.00566279 0 -0.0962961)
(0.19985 0 -0.089794)
(-0.00806654 0 -0.0877784)
(0.195498 0 -0.0832034)
(-0.0217623 0 -0.0808804)
(0.190803 0 -0.0769336)
(-0.0351565 0 -0.0747378)
(0.185995 0 -0.0703556)
(-0.0479416 0 -0.0686271)
(0.181117 0 -0.0631556)
(-0.0599036 0 -0.0620146)
(0.175804 0 -0.0554061)
(-0.0709171 0 -0.0546394)
(0.169057 0 -0.0474355)
(-0.081472 0 -0.0465642)
(0.159397 0 -0.0394143)
(-0.0920923 0 -0.0381331)
(0.145935 0 -0.0310306)
(-0.103919 0 -0.0297746)
(0.129011 0 -0.0218283)
(-0.116283 0 -0.0214878)
(0.11098 0 -0.0123378)
(-0.129766 0 -0.0135198)
(0.0944775 0 -0.00423826)
(-0.142665 0 -0.00647588)
(0.0810846 0 0.00108574)
(-0.154898 0 -0.00102502)
(0.072741 0 0.00369799)
(-0.165114 0 0.00152942)
(0.0673715 0 0.00413367)
(-0.17137 0 0.00260479)
(0.0629545 0 0.00265383)
(-0.176105 0 0.00274976)
(0.0575128 0 -0.00290503)
(-0.180586 0 0.00161413)
(-0.190304 0 -0.00416886)
(0.023 0 -0.672458)
(-0.0052972 0 -0.712129)
(0.0208412 0 -0.564173)
(-0.00919359 0 -0.613767)
(0.00532808 0 -0.444072)
(-0.0536018 0 -0.479558)
(-0.0125248 0 -0.348509)
(-0.0880338 0 -0.373409)
(-0.0342758 0 -0.276137)
(-0.129814 0 -0.291396)
(-0.057899 0 -0.221256)
(-0.170165 0 -0.229804)
(-0.0826299 0 -0.179576)
(-0.209998 0 -0.183195)
(-0.107798 0 -0.148081)
(-0.24837 0 -0.148131)
(-0.132989 0 -0.124453)
(-0.284883 0 -0.121967)
(-0.157927 0 -0.106855)
(-0.319258 0 -0.102656)
(-0.182415 0 -0.0938031)
(-0.351411 0 -0.0885548)
(-0.206292 0 -0.0840373)
(-0.381398 0 -0.0783166)
(-0.229431 0 -0.0764452)
(-0.409315 0 -0.0707664)
(-0.251724 0 -0.0700699)
(-0.435277 0 -0.0648772)
(-0.273013 0 -0.0641383)
(-0.459378 0 -0.0598166)
(-0.29302 0 -0.0580739)
(-0.481585 0 -0.0549356)
(-0.311361 0 -0.0515203)
(-0.501723 0 -0.0497594)
(-0.327692 0 -0.044368)
(-0.519576 0 -0.0439853)
(-0.341932 0 -0.0367564)
(-0.535061 0 -0.0374934)
(-0.35442 0 -0.028982)
(-0.548356 0 -0.0303665)
(-0.365811 0 -0.0213577)
(-0.559895 0 -0.0228572)
(-0.37639 0 -0.0142147)
(-0.570035 0 -0.0152154)
(-0.386239 0 -0.00790075)
(-0.579211 0 -0.00781778)
(-0.394964 0 -0.00300202)
(-0.588294 0 -0.00154422)
(-0.402148 0 -5.03468e-06)
(-0.596415 0 0.00293925)
(-0.408724 0 0.00158921)
(-0.604011 0 0.00507304)
(-0.41518 0 0.00267083)
(-0.610945 0 0.00600166)
(-0.42133 0 0.00285958)
(-0.617336 0 0.0059088)
(-0.425267 0 0.000377278)
(-0.623759 0 0.00358895)
(-0.629324 0 -0.00168954)
(-0.0285092 0 -0.654382)
(-0.0370554 0 -0.684206)
(-0.081773 0 -0.52803)
(-0.0900774 0 -0.562831)
(-0.141588 0 -0.404193)
(-0.182962 0 -0.423708)
(-0.203082 0 -0.309344)
(-0.261416 0 -0.317347)
(-0.263465 0 -0.237886)
(-0.34071 0 -0.237646)
(-0.321421 0 -0.184801)
(-0.414454 0 -0.179434)
(-0.375751 0 -0.145406)
(-0.481982 0 -0.137092)
(-0.425964 0 -0.116421)
(-0.542775 0 -0.106527)
(-0.471831 0 -0.0953992)
(-0.596971 0 -0.0848615)
(-0.513363 0 -0.080405)
(-0.645056 0 -0.0698516)
(-0.550794 0 -0.0698609)
(-0.68763 0 -0.0596878)
(-0.584492 0 -0.0624592)
(-0.725382 0 -0.0529415)
(-0.614876 0 -0.0570761)
(-0.758976 0 -0.0484278)
(-0.642362 0 -0.0527891)
(-0.789022 0 -0.045147)
(-0.667249 0 -0.0489077)
(-0.816045 0 -0.0423731)
(-0.689639 0 -0.0449311)
(-0.840353 0 -0.0396135)
(-0.709452 0 -0.0404972)
(-0.862007 0 -0.0365208)
(-0.726578 0 -0.0353584)
(-0.880929 0 -0.0328121)
(-0.741084 0 -0.0294054)
(-0.897118 0 -0.0282533)
(-0.753354 0 -0.0227073)
(-0.910829 0 -0.022735)
(-0.764059 0 -0.0154882)
(-0.922574 0 -0.0163565)
(-0.773819 0 -0.00814481)
(-0.93297 0 -0.00942879)
(-0.783166 0 -0.00139479)
(-0.942637 0 -0.00240651)
(-0.791595 0 0.00378414)
(-0.951537 0 0.00321986)
(-0.798926 0 0.0068701)
(-0.959449 0 0.00698533)
(-0.80629 0 0.00817424)
(-0.967445 0 0.00904101)
(-0.813442 0 0.00795101)
(-0.975194 0 0.00976464)
(-0.819676 0 0.00574203)
(-0.982729 0 0.00911104)
(-0.824561 0 0.00153938)
(-0.98989 0 0.00603915)
(-0.994247 0 0.00143648)
(-0.0839417 0 -0.585519)
(-0.0752628 0 -0.60199)
(-0.188844 0 -0.448931)
(-0.1791 0 -0.462512)
(-0.294112 0 -0.326506)
(-0.320426 0 -0.325417)
(-0.395576 0 -0.235788)
(-0.439575 0 -0.224846)
(-0.489491 0 -0.170593)
(-0.550944 0 -0.154049)
(-0.574125 0 -0.124795)
(-0.650132 0 -0.105878)
(-0.648774 0 -0.0928801)
(-0.736873 0 -0.0737451)
(-0.713899 0 -0.0708917)
(-0.811738 0 -0.0525682)
(-0.770438 0 -0.0561538)
(-0.874879 0 -0.0391232)
(-0.819527 0 -0.0466774)
(-0.928615 0 -0.0310777)
(-0.862315 0 -0.0408536)
(-0.974784 0 -0.0266893)
(-0.899829 0 -0.0374114)
(-1.01494 0 -0.0246937)
(-0.932899 0 -0.0353117)
(-1.0503 0 -0.0241145)
(-0.962314 0 -0.0337647)
(-1.08185 0 -0.0240313)
(-0.988664 0 -0.0322618)
(-1.11006 0 -0.0239044)
(-1.01225 0 -0.0304865)
(-1.13538 0 -0.0234712)
(-1.03312 0 -0.0281968)
(-1.15799 0 -0.0225749)
(-1.05122 0 -0.0251425)
(-1.17782 0 -0.0210032)
(-1.06665 0 -0.0210798)
(-1.19485 0 -0.0184283)
(-1.07982 0 -0.0158974)
(-1.20935 0 -0.0145458)
(-1.09142 0 -0.0097721)
(-1.22193 0 -0.00931169)
(-1.10213 0 -0.00328977)
(-1.23335 0 -0.00307979)
(-1.11164 0 0.00260272)
(-1.2437 0 0.00310023)
(-1.12028 0 0.00711102)
(-1.25296 0 0.00810212)
(-1.12855 0 0.00998863)
(-1.26204 0 0.0115502)
(-1.13663 0 0.0113764)
(-1.27092 0 0.0133991)
(-1.14446 0 0.0113122)
(-1.27964 0 0.0138835)
(-1.15178 0 0.0093467)
(-1.28842 0 0.0128713)
(-1.15919 0 0.00576575)
(-1.29666 0 0.00975204)
(-1.30137 0 0.00587953)
(-0.146024 0 -0.463326)
(-0.123393 0 -0.458969)