/*--------------------------------*- C++ -*----------------------------------*\
  =========                 |
  \\      /  F ield         | OpenFOAM: The Open Source CFD Toolbox
   \\    /   O peration     | Website:  https://openfoam.org
    \\  /    A nd           | Version:  dev
     \\/     M anipulation  |
\*---------------------------------------------------------------------------*/
FoamFile
{
    version     2.0;
    format      ascii;
    class       surfaceScalarField;
    location    "9.9";
    object      phi;
}
// * * * * * * * * * * * * * * * * * * * * * * * * * * * * * * * * * * * * * //

dimensions      [0 3 -1 0 0 0 0];

internalField   nonuniform List<scalar> 
5457
(
0.198418
0.0015824
0.19648
0.00193741
0.194192
0.00228815
0.191508
0.00268367
0.188427
0.00308131
0.18495
0.0034769
0.181071
0.00387874
0.176777
0.00429421
0.172049
0.00472844
0.166863
0.00518548
0.161194
0.00566879
0.155013
0.00618134
0.148288
0.0067253
0.140986
0.0073017
0.133076
0.00790987
0.124529
0.00854682
0.115323
0.00920625
0.105446
0.00987751
0.0949013
0.0105444
0.0837176
0.0111837
0.0719529
0.0117647
0.0597045
0.0122483
0.047116
0.0125886
0.034376
0.0127399
0.0216813
0.0126947
0.00903149
0.0126498
-0.00291995
0.0119514
-0.0084735
0.00555355
-0.00804345
-0.000430049
-0.00804345
0.199928
0.00165427
0.199176
0.0026899
0.197965
0.00349916
0.196331
0.00431694
0.194271
0.00514148
0.191781
0.00596712
0.188854
0.00680589
0.185477
0.00767127
0.181632
0.00857359
0.177296
0.00952114
0.172444
0.0105212
0.167045
0.01158
0.161068
0.0127024
0.154478
0.013891
0.147243
0.0151453
0.139329
0.0164603
0.130711
0.0178246
0.121371
0.019218
0.111305
0.0206095
0.100535
0.0219538
0.0891107
0.0231894
0.0771231
0.024236
0.0647172
0.0249945
0.05211
0.0253472
0.0396501
0.0251545
0.028101
0.024199
0.0185906
0.0214618
0.00879299
0.0153512
0.00118143
0.00718151
-0.00686202
0.199781
0.00187373
0.199087
0.00338379
0.197946
0.00464015
0.196409
0.00585365
0.194483
0.00706772
0.192164
0.00828631
0.189446
0.00952349
0.18632
0.0107969
0.182772
0.0121217
0.178783
0.0135103
0.174331
0.0149736
0.169389
0.0165214
0.16393
0.0181613
0.157923
0.0198986
0.151334
0.021734
0.144132
0.0236625
0.136286
0.0256704
0.127772
0.0277323
0.118575
0.0298067
0.108696
0.031832
0.0981643
0.0337214
0.0870419
0.0353584
0.0754453
0.0365911
0.0635684
0.0372241
0.051727
0.0369959
0.0403925
0.0355335
0.0297348
0.0321194
0.0191631
0.0259229
0.00959581
0.0167488
0.00273379
0.199703
0.00217069
0.199008
0.00407914
0.197887
0.00576075
0.196376
0.00736465
0.194488
0.00895595
0.192222
0.0105524
0.189574
0.0121713
0.186538
0.0138331
0.183103
0.0155564
0.179256
0.017357
0.174981
0.0192489
0.170258
0.0212443
0.165066
0.0233534
0.159382
0.0255831
0.153179
0.0279361
0.146434
0.0304081
0.139119
0.0329852
0.131211
0.03564
0.122692
0.0383263
0.113551
0.0409732
0.103793
0.0434786
0.0934507
0.0457011
0.0825895
0.0474524
0.0713269
0.0484867
0.0598354
0.0484874
0.048312
0.0470569
0.0368069
0.0436245
0.025185
0.0375448
0.0133341
0.0285996
0.0160679
0.199667
0.0025033
0.198964
0.00478245
0.197863
0.00686213
0.196381
0.00884642
0.194532
0.0108048
0.192317
0.0127672
0.189733
0.0147553
0.186775
0.0167919
0.183433
0.0188983
0.179697
0.021093
0.175553
0.0233921
0.170988
0.0258097
0.165984
0.0283575
0.160523
0.0310437
0.154587
0.033872
0.148156
0.036839
0.14121
0.0399314
0.133728
0.0431219
0.125691
0.0463635
0.117081
0.049583
0.107887
0.0526724
0.0981083
0.0554803
0.0877583
0.0578024
0.0768724
0.0593726
0.0655028
0.0598571
0.0537027
0.0588569
0.0414496
0.0558776
0.0285846
0.0504098
0.0148507
0.0423336
0.0309186
0.199653
0.00285052
0.198949
0.00548655
0.197871
0.00794014
0.196426
0.0102907
0.194626
0.0126049
0.192473
0.0149208
0.189963
0.0172651
0.187092
0.0196629
0.183852
0.0221378
0.180235
0.0247105
0.176228
0.0273989
0.171819
0.0302187
0.166994
0.0331826
0.161738
0.0363
0.156034
0.0395753
0.149867
0.043006
0.143219
0.0465801
0.136069
0.0502718
0.128396
0.0540363
0.120176
0.0578031
0.111381
0.0614672
0.101982
0.0648795
0.0919477
0.0678368
0.081247
0.0700733
0.0698475
0.0712566
0.0577108
0.0709936
0.0447556
0.0688328
0.0308455
0.06432
0.0158712
0.0573078
0.0467898
0.19965
0.00320049
0.198954
0.00618258
0.197904
0.00898983
0.196505
0.0116905
0.194762
0.0143473
0.19268
0.017003
0.190256
0.0196889
0.187486
0.0224327
0.184364
0.0252601
0.180881
0.0281936
0.177027
0.0312531
0.17279
0.0344556
0.168158
0.0378151
0.163116
0.041342
0.157649
0.045042
0.151741
0.048914
0.145373
0.0529482
0.138523
0.0571218
0.131164
0.0613951
0.123263
0.0657045
0.114775
0.0699544
0.105647
0.0740077
0.0958088
0.0776749
0.0851782
0.080704
0.0736604
0.0827743
0.0611543
0.0834998
0.0475492
0.0824379
0.0327542
0.0791149
0.0167805
0.0732815
0.0635703
0.199655
0.00354586
0.198974
0.00686273
0.197959
0.0100056
0.19661
0.0130393
0.194934
0.0160234
0.192933
0.0190037
0.190607
0.0220151
0.187951
0.0250881
0.184961
0.0282502
0.181629
0.031526
0.177945
0.0349368
0.1739
0.0385012
0.16948
0.0422349
0.164672
0.0461498
0.159461
0.0502533
0.153828
0.0545469
0.147752
0.059024
0.141207
0.0636672
0.134158
0.0684441
0.12656
0.073302
0.118354
0.0781603
0.109461
0.0829012
0.0997775
0.0873582
0.089178
0.0913035
0.0775159
0.0944364
0.0646387
0.096377
0.05041
0.0966667
0.0347626
0.0947623
0.0177868
0.0902572
0.0813572
0.199664
0.0038817
0.199006
0.00752057
0.19803
0.0109819
0.196739
0.0143308
0.195136
0.0176255
0.193226
0.0209136
0.191008
0.0242331
0.18848
0.0276169
0.185636
0.0310944
0.18247
0.0346919
0.178974
0.0384325
0.175139
0.0423365
0.170953
0.0464212
0.166402
0.0507006
0.16147
0.0551848
0.156138
0.0598788
0.150381
0.0647809
0.144168
0.0698808
0.137455
0.0751564
0.130188
0.0805693
0.122289
0.0860589
0.113657
0.0915333
0.104158
0.0968575
0.0936231
0.101838
0.0818536
0.106206
0.0686387
0.109592
0.0537925
0.111513
0.0372293
0.111325
0.0190794
0.108407
0.100437
0.199677
0.0042045
0.199047
0.00815085
0.198116
0.0119133
0.196887
0.0155591
0.195366
0.0191465
0.193556
0.0227243
0.191456
0.026333
0.189065
0.0300078
0.186379
0.0337798
0.183394
0.0376769
0.180103
0.0417239
0.176496
0.0459429
0.172564
0.0503531
0.168294
0.0549711
0.163669
0.0598101
0.158668
0.0648796
0.153264
0.0701842
0.147423
0.0757225
0.141094
0.081485
0.134212
0.0874511
0.126687
0.0935844
0.118395
0.0998255
0.109172
0.10608
0.0988067
0.112204
0.087039
0.117974
0.0735764
0.123054
0.0581362
0.126953
0.0405422
0.128919
0.0208959
0.128053
0.121332
0.199693
0.00451159
0.199095
0.00874926
0.198213
0.0127949
0.197053
0.0167188
0.19562
0.02058
0.193916
0.0244282
0.191943
0.0283061
0.1897
0.0322508
0.187184
0.036295
0.184393
0.040468
0.181321
0.0447963
0.17796
0.0493037
0.174302
0.0540114
0.170334
0.0589388
0.166042
0.0641027
0.161404
0.0695176
0.156393
0.0751952
0.150971
0.0811444
0.145086
0.08737
0.138665
0.0938715
0.131609
0.100641
0.123778
0.107656
0.114982
0.114876
0.104968
0.122219
0.0934025
0.129539
0.0798809
0.136576
0.0639515
0.142882
0.0452213
0.14765
0.0236037
0.149671
0.144936
0.199711
0.00480091
0.199148
0.00931229
0.19832
0.0136226
0.197234
0.0178052
0.195893
0.0219202
0.194303
0.0260186
0.192464
0.0301447
0.190378
0.0343371
0.188043
0.0386298
0.185458
0.0430537
0.182617
0.0476365
0.179517
0.0524036
0.17615
0.0573784
0.172507
0.0625827
0.168572
0.0680372
0.164328
0.0737614
0.159749
0.0797745
0.154798
0.0860958
0.149423
0.092745
0.143551
0.0997429
0.137081
0.107111
0.129866
0.114871
0.121701
0.123041
0.112297
0.131622
0.101253
0.140582
0.0880234
0.149806
0.0719008
0.159005
0.0520667
0.167484
0.0278733
0.173864
0.172809
0.19973
0.00507085
0.199205
0.00983709
0.198435
0.0143926
0.197427
0.0188139
0.196184
0.0231623
0.194713
0.0274899
0.193016
0.0318422
0.191094
0.036259
0.188948
0.0407758
0.186577
0.0454242
0.18398
0.0502333
0.181154
0.0552297
0.178094
0.0604387
0.174793
0.0658843
0.171239
0.0715907
0.167418
0.0775821
0.163308
0.0838845
0.158877
0.090527
0.154079
0.0975431
0.148848
0.104974
0.14309
0.11287
0.136666
0.121295
0.129376
0.130331
0.120922
0.140077
0.110859
0.150645
0.0985151
0.162149
0.0828706
0.17465
0.0624061
0.187948
0.0351041
0.201167
0.207913
0.199751
0.00532015
0.199266
0.0103213
0.198557
0.0151021
0.197629
0.0197414
0.19649
0.0243021
0.195142
0.0288372
0.193591
0.0333931
0.19184
0.0380106
0.18989
0.0427259
0.187742
0.0475716
0.185398
0.0525775
0.182857
0.0577712
0.180116
0.0631795
0.177172
0.0688281
0.174019
0.0747438
0.170646
0.0809548
0.167038
0.0874925
0.163172
0.0943936
0.159012
0.101703
0.154507
0.109478
0.149583
0.117794
0.144128
0.12675
0.137974
0.136485
0.130862
0.147188
0.122377
0.15913
0.111825
0.172702
0.0979749
0.188499
0.0784908
0.207432
0.0486253
0.231032
0.256539
0.199772
0.00554785
0.19933
0.0107633
0.198684
0.0157485
0.19784
0.020585
0.196806
0.0253366
0.195586
0.0300569
0.194186
0.0347932
0.19261
0.0395869
0.190861
0.0444747
0.188943
0.0494897
0.186858
0.0546621
0.184609
0.0600202
0.182197
0.0655912
0.179623
0.0714024
0.176885
0.077482
0.173979
0.0838604
0.170899
0.0905727
0.167632
0.0976606
0.164159
0.105176
0.160451
0.113186
0.156464
0.121781
0.152131
0.131083
0.147353
0.141263
0.14197
0.152572
0.135718
0.165382
0.128126
0.180294
0.118254
0.198372
0.103849
0.221837
0.0776088
0.257272
0.334148
0.00387541
-0.00387541
0.00756378
-0.00368836
0.0105911
-0.00302735
0.0129325
-0.00234138
0.014661
-0.00172845
0.0158558
-0.00119484
0.0165847
-0.000728894
0.0169061
-0.000321367
0.0168845
2.15643e-05
0.0165523
0.000332206
0.0159854
0.000566878
0.0152339
0.000751496
0.0143512
0.000882716
0.0133922
0.000959029
0.0124104
0.000981732
0.0114552
0.000955196
0.0105681
0.000887135
0.00977976
0.000788348
0.00910752
0.000672239
0.00855387
0.000553651
0.00810775
0.000446119
0.00774955
0.000358202
0.00745813
0.000291418
0.00721663
0.000241499
0.00701418
0.000202453
0.00684381
0.000170371
0.00669977
0.000144043
0.00657599
0.000123776
0.00646678
0.00010921
8.92021e-05
0.00360095
-0.00747637
0.00705539
-0.0071428
0.00995659
-0.00592855
0.0122916
-0.00467643
0.0141337
-0.00357054
0.0155565
-0.00261763
0.0166208
-0.00179318
0.0173719
-0.00107247
0.0178247
-0.000431242
0.0180153
0.000141647
0.0179386
0.000643594
0.0176535
0.00103652
0.0172135
0.00132271
0.0166733
0.0014993
0.0160866
0.00156839
0.0155031
0.0015387
0.0149648
0.00142548
0.0145019
0.00125115
0.0141312
0.001043
0.0138539
0.000830937
0.0136585
0.000641488
0.0135264
0.000490325
0.0134389
0.000378896
0.0133826
0.000297879
0.0133493
0.000235674
0.0133342
0.000185515
0.0133324
0.000145829
0.0133384
0.000117741
0.0133455
0.000102173
0.000100188
0.00307186
-0.0105482
0.00593117
-0.0100021
0.00829678
-0.00829415
0.010199
-0.00657867
0.011714
-0.0050855
0.0129029
-0.00380655
0.0138142
-0.00270444
0.0144869
-0.00174521
0.0149583
-0.000902685
0.0152545
-0.000154558
0.0153748
0.000523331
0.0153384
0.0010729
0.0151848
0.00147634
0.0149566
0.00172749
0.0146946
0.00183044
0.0144354
0.00179789
0.014209
0.00165189
0.0140368
0.00142336
0.0139289
0.00115082
0.013883
0.000876838
0.0138858
0.000638668
0.0139193
0.000456826
0.0139676
0.000330618
0.0140211
0.00024437
0.0140757
0.000181072
0.014129
0.000132292
0.0141781
9.66639e-05
0.0142191
7.68113e-05
0.0142451
7.61418e-05
0.000104594
0.00249217
-0.0130404
0.0046506
-0.0121605
0.00636353
-0.0100071
0.00772917
-0.00794431
0.00882311
-0.00617944
0.00968978
-0.00467322
0.0103619
-0.00337657
0.0108641
-0.00224738
0.011217
-0.00125557
0.011447
-0.000384559
0.0115731
0.000397246
0.0115908
0.00105519
0.0115369
0.00153025
0.0114484
0.00181591
0.0113549
0.00192395
0.011279
0.00187378
0.0112365
0.00169446
0.0112356
0.00142418
0.011276
0.00111043
0.0113465
0.000806331
0.0114276
0.000557592
0.0114982
0.00038623
0.0115436
0.00028528
0.011559
0.000228907
0.0115466
0.000193474
0.011509
0.000169951
0.0114482
0.00015745
0.0113663
0.000158671
0.0112666
0.000175854
0.000207353
0.00182095
-0.0148613
0.0032005
-0.0135401
0.00419242
-0.010999
0.0049632
-0.00871509
0.00557715
-0.00679339
0.00606293
-0.00515899
0.00643988
-0.00375352
0.00672031
-0.00252781
0.00691198
-0.00144724
0.00703591
-0.000508489
0.00709085
0.000342299
0.00706755
0.0010785
0.00702255
0.00157525
0.00698615
0.00185231
0.00697443
0.00193567
0.00699245
0.00185575
0.00703668
0.00165023
0.00709683
0.00136403
0.00715715
0.00105011
0.00719414
0.000769345
0.00718164
0.000570085
0.00710107
0.000466808
0.00694734
0.000439007
0.00673502
0.000441227
0.00648282
0.00044567
0.00620735
0.00044543
0.00591762
0.000447174
0.0056185
0.000457789
0.0053217
0.000472657
0.000444989
0.00105758
-0.0159189
0.00157392
-0.0140564
0.00180272
-0.0112278
0.00193389
-0.00884626
0.00200661
-0.00686611
0.00204389
-0.00519627
0.00205641
-0.00376604
0.00205143
-0.00252282
0.0020336
-0.00142941
0.00198288
-0.000457764
0.00189099
0.00043418
0.00180513
0.00116436
0.00175411
0.00162628
0.00174124
0.00186517
0.00175093
0.00192598
0.00175551
0.00185118
0.00172081
0.00168493
0.00160935
0.00147549
0.00139362
0.00126584
0.00107647
0.0010865
0.000685493
0.00096106
0.000259999
0.000892302
-0.000156519
0.000855525
-0.000547931
0.000832639
-0.000908068
0.000805806
-0.00123969
0.000777053
-0.00155042
0.000757903
-0.00184913
0.000756496
-0.002128
0.000751527
0.000677394
0.000137151
-0.0160561
-0.000239339
-0.0136799
-0.000801084
-0.0106661
-0.00136127
-0.00828608
-0.00190474
-0.00632264
-0.00240074
-0.00470027
-0.00283915
-0.00332763
-0.00321699
-0.00214499
-0.00355464
-0.00109176
-0.00390284
-0.00010956
-0.00415824
0.000689575
-0.00428215
0.00128827
-0.00436869
0.00171281
-0.00446128
0.00195777
-0.00459155
0.00205625
-0.00478306
0.00204269
-0.0050477
0.00194956
-0.00538185
0.00180965
-0.00577069
0.00165468
-0.00619475
0.00151056
-0.0066301
0.00139641
-0.00705309
0.0013153
-0.00744815
0.00125058
-0.00780049
0.00118498
-0.00810599
0.00111131
-0.00836715
0.00103821
-0.00859168
0.000982431
-0.00878532
0.000950131
-0.00894976
0.000915968
0.000857876
-0.00083207
-0.015224
-0.00219398
-0.012318
-0.00359012
-0.00926992
-0.0049409
-0.0069353
-0.00617234
-0.0050912
-0.00726349
-0.00360912
-0.00821349
-0.00237763
-0.00903087
-0.00132761
-0.00972821
-0.000394425
-0.0102294
0.000391601
-0.0105534
0.00101359
-0.0107808
0.00151574
-0.0109633
0.00189523
-0.0111472
0.00214174
-0.0113609
0.00226995
-0.0116167
0.00229843
-0.0119142
0.00224705
-0.0122451
0.00214056
-0.012599
0.00200863
-0.0129675
0.00187904
-0.0133401
0.00176905
-0.0137023
0.00167743
-0.0140385
0.00158675
-0.0143336
0.00148013
-0.0145791
0.00135685
-0.0147763
0.00123542
-0.0149338
0.00113993
-0.0150614
0.00107766
-0.0151752
0.00102977
0.000993975
-0.0019395
-0.0132845
-0.0043181
-0.00993943
-0.00666423
-0.00692378
-0.00883455
-0.00476498
-0.0107457
-0.00318009
-0.0123749
-0.00197986
-0.0137416
-0.00101098
-0.0148655
-0.000203713
-0.0157046
0.000444743
-0.0162822
0.000969133
-0.016693
0.00142446
-0.0169977
0.00182043
-0.0172351
0.00213257
-0.0174458
0.00235252
-0.0176599
0.00248405
-0.0178934
0.00253188
-0.0181497
0.00250333
-0.018425
0.00241588
-0.0187147
0.00229838
-0.0190165
0.00218077
-0.0193264
0.00207903
-0.0196351
0.0019861
-0.0199266
0.0018782
-0.0201822
0.00173574
-0.0203886
0.0015633
-0.0205448
0.00139162
-0.0206608
0.00125595
-0.0207515
0.00116828
-0.0208377
0.00111598
0.00109837
-0.00324488
-0.0100396
-0.00680715
-0.00637715
-0.0101556
-0.00357532
-0.0131024
-0.00181818
-0.0155914
-0.00069107
-0.0176269
5.56427e-05
-0.0191991
0.000561135
-0.020338
0.000935238
-0.0211571
0.00126382
-0.0217734
0.00158546
-0.0222428
0.00189388
-0.0225915
0.00216909
-0.0228531
0.00239418
-0.023066
0.00256547
-0.0232645
0.00268247
-0.02347
0.00273736
-0.0236888
0.00272222
-0.0239182
0.00264528
-0.0241557
0.00253582
-0.0244037
0.00242881
-0.0246654
0.00234071
-0.0249362
0.00225689
-0.0251999
0.00214188
-0.0254325
0.00196832
-0.025614
0.00174481
-0.0257405
0.00151813
-0.0258254
0.0013409
-0.0258898
0.00123261
-0.0259547
0.00118094
0.00117666
-0.00499135
-0.00504828
-0.0103216
-0.00104685
-0.0147558
0.000858788
-0.0182051
0.00163113
-0.020781
0.00188491
-0.0226764
0.001951
-0.0240969
0.00198164
-0.0251948
0.00203315
-0.0260449
0.00211393
-0.0266967
0.00223726
-0.0271916
0.00238873
-0.027559
0.0025365
-0.0278274
0.00266257
-0.0280335
0.00277161
-0.0282168
0.00286579
-0.0284038
0.00292435
-0.0286001
0.00291845
-0.0287985
0.00284376
-0.0289959
0.00273318
-0.0292003
0.00263325
-0.0294242
0.00256455
-0.0296694
0.0025021
-0.0299189
0.00239138
-0.0301408
0.00219021
-0.0303055
0.00190954
-0.0304057
0.00161829
-0.0304609
0.00139609
-0.0305008
0.00127257
-0.0305462
0.00122637
0.00123204
-0.00792969
0.00288141
-0.0144612
0.00548471
-0.0191549
0.00555242
-0.0225908
0.00506705
-0.0251529
0.00444699
-0.0270718
0.00386987
-0.0285294
0.00343932
-0.0296401
0.00314378
-0.0304816
0.00295549
-0.03112
0.00287564
-0.0316082
0.00287695
-0.0319735
0.0029018
-0.032233
0.00292204
-0.0324205
0.00295916
-0.0325846
0.00302987
-0.0327589
0.00309864
-0.0329446
0.00310409
-0.0331236
0.00302277
-0.0332874
0.00289702
-0.0334515
0.00279737
-0.0336421
0.00275514
-0.0338705
0.00273046
-0.0341178
0.00263872
-0.0343404
0.00241278
-0.0344942
0.00206336
-0.0345667
0.00169078
-0.0345875
0.00141692
-0.0346007
0.0012858
-0.0346276
0.00125321
0.00126739
-0.0101851
0.0130666
-0.017956
0.0132555
-0.023297
0.0108934
-0.0269655
0.0087356
-0.0295453
0.00702676
-0.0313725
0.00569704
-0.0327247
0.00479155
-0.0337563
0.00417536
-0.0345229
0.00372214
-0.0350944
0.00344709
-0.0355427
0.00332526
-0.0358894
0.00324849
-0.036125
0.00315771
-0.0362752
0.00310936
-0.0364073
0.00316193
-0.0365701
0.0032614
-0.0367561
0.0032901
-0.0369252
0.00319192
-0.0370566
0.0030284
-0.0371759
0.00291667
-0.0373316
0.00291083
-0.0375493
0.00294818
-0.0378071
0.00289646
-0.0380432
0.00264895
-0.0381919
0.00221203
-0.0382316
0.00173047
-0.0382075
0.00139288
-0.0381882
0.00126649
-0.0381986
0.00126358
0.00128707
-0.0134798
0.0265464
-0.0231595
0.0229352
-0.0285898
0.0163237
-0.0318642
0.01201
-0.0341523
0.0093149
-0.0356306
0.00717528
-0.036686
0.00584699
-0.0375485
0.00503787
-0.0381809
0.00435447
-0.0386273
0.00389349
-0.0390031
0.00370105
-0.0393263
0.00357175
-0.0395276
0.00335894
-0.0396108
0.00319256
-0.0396849
0.00323609
-0.0398339
0.00341042
-0.0400354
0.00349153
-0.0402068
0.00336339
-0.0403019
0.00312352
-0.040362
0.00297676
-0.0404736
0.0030224
-0.0406851
0.00315964
-0.0409682
0.00317961
-0.0412346
0.00291532
-0.041385
0.00236246
-0.0413824
0.00172781
-0.0412948
0.00130532
-0.0412327
0.00120444
-0.0412321
0.0012629
0.00130042
-0.0191813
0.0457276
-0.0309239
0.0346779
-0.0357394
0.0211391
-0.0374086
0.0136793
-0.0390626
0.0109689
-0.0397833
0.00789606
-0.0402533
0.00631692
-0.0409506
0.00573518
-0.0414684
0.00487232
-0.04171
0.00413501
-0.0419566
0.00394768
-0.0422596
0.00387479
-0.042423
0.00352235
-0.0423961
0.00316564
-0.0423676
0.00320757
-0.0425021
0.00354492
-0.0427475
0.00373699
-0.0429423
0.00355819
-0.0429906
0.00317177
-0.0429602
0.00294639
-0.0430058
0.00306795
-0.0432128
0.00336671
-0.0435399
0.00350667
-0.0438583
0.0032337
-0.0440197
0.00252384
-0.0439591
0.00166727
-0.0437765
0.00112267
-0.0436541
0.00108201
-0.0436541
0.00126292
0.00132913
0.207447
0.00576062
0.207034
0.0111759
0.206432
0.0163511
0.205647
0.0213695
0.204688
0.0262958
0.203561
0.0311844
0.202271
0.0360828
0.200825
0.0410327
0.199229
0.0460711
0.197488
0.0512311
0.195607
0.056543
0.193592
0.0620352
0.191448
0.0677349
0.189181
0.0736696
0.186795
0.0798679
0.184294
0.0863611
0.181682
0.093185
0.17896
0.100383
0.176128
0.108008
0.173184
0.11613
0.170124
0.124841
0.166943
0.134264
0.163636
0.144571
0.160203
0.156004
0.156666
0.168919
0.153117
0.183843
0.149918
0.201571
0.148735
0.22302
0.160326
0.245682
0.258925
0.235548
0.21249
0.00595304
0.212118
0.0115487
0.211574
0.0168946
0.210868
0.0220754
0.210008
0.0271563
0.209
0.0321919
0.207853
0.0372298
0.206574
0.0423119
0.20517
0.0474747
0.20365
0.0527512
0.202022
0.0581711
0.200295
0.0637622
0.198479
0.0695511
0.196584
0.0755645
0.194622
0.0818299
0.192606
0.0883773
0.19055
0.0952409
0.188472
0.102461
0.186392
0.110088
0.18434
0.118182
0.182355
0.126826
0.180498
0.136121
0.178867
0.146201
0.177634
0.157238
0.177119
0.169434
0.177972
0.182989
0.181606
0.197937
0.190615
0.214012
0.206
0.230296
0.24588
0.219045
0.217658
0.00612297
0.217329
0.0118777
0.21685
0.0173733
0.21623
0.022695
0.215478
0.0279086
0.214601
0.0330685
0.213609
0.038222
0.212511
0.0434105
0.211315
0.0486701
0.210034
0.0540327
0.208677
0.0595273
0.207259
0.0651803
0.205794
0.0710168
0.204297
0.0770616
0.202786
0.0833399
0.201285
0.0898784
0.199819
0.0967069
0.198421
0.103859
0.197132
0.111376
0.196009
0.119306
0.195129
0.127706
0.194605
0.136644
0.194607
0.146199
0.195399
0.156446
0.197389
0.167444
0.201187
0.179191
0.207563
0.191561
0.21718
0.204395
0.229767
0.217709
0.228932
0.246715
0.222951
0.00626841
0.22267
0.012159
0.222262
0.0177815
0.221736
0.0232213
0.2211
0.0285442
0.220365
0.033804
0.219539
0.0390476
0.218634
0.0443154
0.217661
0.0496426
0.216634
0.05506
0.215567
0.0605947
0.214476
0.0662713
0.21338
0.0721128
0.2123
0.078141
0.211263
0.0843772
0.210298
0.0908436
0.209441
0.0975632
0.20874
0.104561
0.208251
0.111865
0.208052
0.119505
0.208244
0.127513
0.208969
0.13592
0.210419
0.144749
0.212858
0.154008
0.216632
0.163671
0.22216
0.173662
0.229895
0.183827
0.240409
0.19388
0.254623
0.203496
0.210422
0.273132
0.228374
0.00638752
0.228144
0.012389
0.227812
0.018114
0.227385
0.0236476
0.226875
0.0290548
0.22629
0.0343891
0.225641
0.039696
0.224942
0.0450151
0.224204
0.0503799
0.223445
0.0558194
0.222681
0.061359
0.221931
0.0670208
0.221219
0.0728247
0.220572
0.0787886
0.220019
0.0849295
0.2196
0.0912632
0.219358
0.0978051
0.219349
0.10457
0.219643
0.111571
0.220327
0.118821
0.221515
0.126325
0.223351
0.134083
0.226021
0.142079
0.229755
0.150274
0.234834
0.158592
0.241586
0.166909
0.250393
0.17502
0.261701
0.182572
0.275986
0.189211
0.19385
0.292558
0.233929
0.0064786
0.233754
0.0125644
0.233502
0.0183661
0.233182
0.0239678
0.232803
0.0294336
0.232376
0.0348156
0.231914
0.0401583
0.23143
0.0454995
0.230938
0.0508712
0.230457
0.0563003
0.230007
0.0618097
0.229609
0.0674185
0.229291
0.0731431
0.229082
0.0789974
0.229019
0.0849928
0.229143
0.0911387
0.229506
0.0974422
0.230169
0.103907
0.231206
0.110534
0.232708
0.117318
0.234788
0.124245
0.237581
0.13129
0.241252
0.138409
0.245992
0.145533
0.252024
0.152561
0.259589
0.159344
0.268931
0.165678
0.28023
0.171273
0.293584
0.175857
0.178914
0.30852
0.23962
0.00654016
0.239502
0.0126825
0.239334
0.0185338
0.239125
0.0241768
0.238884
0.0296741
0.238623
0.0350765
0.238355
0.0404267
0.238094
0.0457608
0.237856
0.0511087
0.237661
0.0564949
0.237532
0.0619395
0.237491
0.0674586
0.23757
0.0730647
0.2378
0.0787671
0.238221
0.084572
0.238878
0.090482
0.239824
0.0964962
0.241122
0.102609
0.242846
0.10881
0.245085
0.115079
0.247942
0.121389
0.251535
0.127696
0.256002
0.133942
0.261491
0.140044
0.268159
0.145892
0.276157
0.151345
0.285606
0.156229
0.296553
0.160327
0.308987
0.163422
0.165249
0.322652
0.245448
0.00657094
0.24539
0.0127407
0.24531
0.0186137
0.245217
0.0242703
0.245119
0.0297716
0.245029
0.0351665
0.24496
0.0404958
0.244928
0.0457934
0.244949
0.0510871
0.245045
0.0563988
0.245239
0.0617456
0.245558
0.0671404
0.246031
0.0725918
0.246693
0.0781046
0.247585
0.0836798
0.248753
0.0893141
0.25025
0.0949996
0.252136
0.100723
0.254483
0.106463
0.257369
0.112193
0.260884
0.117874
0.265127
0.123453
0.270203
0.128867
0.276218
0.134029
0.283273
0.138838
0.291448
0.14317
0.300792
0.146885
0.311295
0.149824
0.32289
0.151828
0.152765
0.335373
0.251418
0.00656992
0.251422
0.0127372
0.251432
0.0186029
0.251458
0.024245
0.251507
0.0297222
0.251592
0.0350815
0.251726
0.0403615
0.251926
0.045594
0.252209
0.050804
0.252597
0.0560109
0.253114
0.061229
0.253786
0.0664677
0.254646
0.0717321
0.255728
0.0770229
0.257071
0.0823363
0.258721
0.087664
0.260729
0.0929923
0.26315
0.0983017
0.266047
0.103566
0.269489
0.108751
0.273549
0.113813
0.278304
0.118699
0.283829
0.123342
0.290194
0.127665
0.297455
0.131577
0.305647
0.134978
0.314771
0.13776
0.324784
0.139812
0.335585
0.141027
0.141347
0.347003
0.257532
0.00653635
0.257599
0.0126704
0.257702
0.0184995
0.257849
0.0240985
0.258048
0.0295236
0.25831
0.0348194
0.258649
0.0400223
0.259081
0.0451615
0.259626
0.0502597
0.260303
0.0553336
0.261137
0.0603946
0.262156
0.065449
0.26339
0.0704986
0.264872
0.0755405
0.266641
0.0805672
0.268739
0.0855661
0.271212
0.0905196
0.274109
0.0954044
0.277484
0.100191
0.281394
0.104841
0.285894
0.109313
0.291041
0.113552
0.296883
0.117499
0.303461
0.121086
0.3108
0.124238
0.318902
0.126876
0.327739
0.128922
0.337248
0.130303
0.347325
0.130951
0.130846
0.357825
0.263794
0.00646977
0.263925
0.0125397
0.264122
0.0183025
0.264391
0.0238297
0.26474
0.0291747
0.265179
0.0343796
0.265723
0.0394783
0.266387
0.0444976
0.267189
0.0494576
0.268151
0.0543725
0.269294
0.059251
0.270647
0.0640967
0.272237
0.0689085
0.274097
0.0736806
0.276261
0.0784025
0.278768
0.083059
0.281658
0.08763
0.284973
0.0920898
0.288755
0.0964078
0.293049
0.100547
0.297896
0.104466
0.303332
0.108117
0.309385
0.111446
0.316074
0.114398
0.323399
0.116913
0.331343
0.118933
0.339861
0.120404
0.348885
0.121279
0.358315
0.12152
0.121129
0.368033
0.270207
0.00637
0.270402
0.0123445
0.270693
0.0180115
0.271084
0.0234384
0.271583
0.0286759
0.272199
0.0337633
0.272946
0.0387319
0.273837
0.0436061
0.274891
0.0484036
0.276128
0.0531361
0.277569
0.05781
0.279239
0.0624265
0.281165
0.0669824
0.283376
0.0714695
0.285903
0.0758756
0.288778
0.0801836
0.292036
0.0843724
0.29571
0.0884161
0.299833
0.0922846
0.304437
0.0959436
0.309548
0.0993548
0.315188
0.102477
0.321369
0.105265
0.328091
0.107675
0.335341
0.109663
0.343087
0.111187
0.35128
0.112211
0.35985
0.112708
0.368709
0.112662
0.112082
0.377755
0.276774
0.00623714
0.277033
0.0120853
0.277417
0.0176271
0.27793
0.0229258
0.278577
0.028029
0.279367
0.0329732
0.280312
0.0377873
0.281425
0.042493
0.282722
0.0471059
0.284223
0.0516355
0.285947
0.0560861
0.287916
0.0604572
0.290155
0.0647437
0.292688
0.0689362
0.295542
0.0730212
0.298745
0.0769812
0.302322
0.0807951
0.3063
0.0844382
0.310702
0.0878823
0.315549
0.0910966
0.320856
0.0940478
0.326632
0.0967013
0.332875
0.0990219
0.339575
0.100975
0.346709
0.10253
0.354238
0.103657
0.362112
0.104337
0.370265
0.104555
0.37862
0.104307
0.103611
0.387091
0.283498
0.00607157
0.283821
0.0117627
0.284297
0.0171505
0.284929
0.0222938
0.285721
0.027237
0.286681
0.0320137
0.287818
0.0366503
0.289145
0.0411663
0.290676
0.0455749
0.292427
0.049884
0.294417
0.0540962
0.296665
0.0582095
0.299191
0.0622176
0.302016
0.0661106
0.305163
0.0698746
0.308652
0.0734926
0.312502
0.0769443
0.316734
0.0802071
0.32136
0.0832558
0.326393
0.0860636
0.331838
0.0886029
0.337693
0.0908458
0.34395
0.0927652
0.350589
0.0943362
0.357581
0.0955372
0.364887
0.0963512
0.372457
0.0967671
0.380231
0.0967813
0.388141
0.0963971
0.095635
0.396117
0.290384
0.00587393
0.290769
0.0113782
0.291335
0.0165838
0.292084
0.0215455
0.293017
0.026304
0.29414
0.0308904
0.295462
0.0353284
0.296993
0.0396353
0.298745
0.0438227
0.300732
0.0478966
0.30297
0.0518584
0.305475
0.0557052
0.308262
0.0594301
0.31135
0.063023
0.314754
0.0664706
0.31849
0.0697566
0.322571
0.0728628
0.327009
0.0757689
0.331812
0.0784532
0.336982
0.0808934
0.342518
0.0830673
0.34841
0.0849533
0.354644
0.0865315
0.361195
0.0877849
0.368033
0.0886997
0.375117
0.0892672
0.3824
0.0894835
0.38983
0.0893513
0.397349
0.0888787
0.0880869
0.404897
0.297435
0.00564509
0.29788
0.0109333
0.298534
0.0159297
0.299395
0.0206845
0.300463
0.0252352
0.301744
0.0296099
0.303242
0.0338301
0.304966
0.037911
0.306927
0.0418625
0.309134
0.0456893
0.3116
0.0493919
0.314339
0.0529669
0.317361
0.0564072
0.320681
0.0597031
0.32431
0.0628421
0.328257
0.0658097
0.33253
0.0685895
0.337135
0.0711643
0.342072
0.0735159
0.347339
0.0756265
0.352927
0.0774788
0.358824
0.0790568
0.365009
0.0803468
0.371456
0.0813379
0.378133
0.0820227
0.385002
0.0823981
0.39202
0.0824655
0.39914
0.0822312
0.406312
0.0817062
0.0809113
0.413488
0.304654
0.00538612
0.305157
0.0104302
0.305895
0.0151914
0.306864
0.0197156
0.308063
0.0240366
0.309493
0.02818
0.311158
0.0321651
0.313064
0.0360051
0.315218
0.0397084
0.317628
0.0432789
0.320304
0.0467163
0.323254
0.050017
0.326487
0.0531743
0.330011
0.0561791
0.333833
0.0590202
0.337958
0.0616848
0.342388
0.064159
0.347124
0.0664285
0.352161
0.0684787
0.357492
0.0702957
0.363104
0.0718667
0.36898
0.0731806
0.375098
0.0742286
0.381432
0.0750046
0.387948
0.075506
0.394613
0.0757335
0.401387
0.075692
0.408228
0.0753901
0.415094
0.0748398
0.0740609
0.421944
0.312046
0.00509822
0.312605
0.00987135
0.313424
0.0143727
0.314496
0.0186435
0.315818
0.0227147
0.317389
0.0266089
0.319211
0.0303433
0.321286
0.0339296
0.32362
0.0373749
0.326216
0.0406821
0.329082
0.0438508
0.332222
0.0468772
0.33564
0.0497554
0.339342
0.0524772
0.34333
0.0550327
0.347603
0.0574112
0.352161
0.0596012
0.356998
0.0615912
0.362107
0.0633699
0.367476
0.0649269
0.37309
0.0662533
0.378928
0.0673419
0.384969
0.0681878
0.391185
0.0687887
0.397546
0.0691451
0.404019
0.0692606
0.410569
0.069142
0.41716
0.0687991
0.423755
0.0682442
0.0674955
0.430321
0.319615
0.00478273
0.320227
0.0092593
0.321122
0.0134773
0.322292
0.0174739
0.32373
0.0212764
0.325434
0.0249053
0.327402
0.0283754
0.329635
0.0316971
0.332133
0.0348763
0.3349
0.0379154
0.337937
0.0408138
0.341246
0.0435681
0.344829
0.0461728
0.348685
0.0486211
0.352813
0.0509045
0.35721
0.0530144
0.36187
0.0549414
0.366784
0.0566767
0.371942
0.0582118
0.377329
0.0595396
0.382929
0.0606542
0.388719
0.0615515
0.394677
0.0622297
0.400777
0.062689
0.40699
0.0629322
0.413285
0.0629648
0.419633
0.0627945
0.426001
0.0624314
0.432357
0.0618877
0.0611796
0.438673
0.327365
0.004441
0.328028
0.00859675
0.328995
0.0125094
0.330257
0.016212
0.331805
0.0197288
0.333632
0.0230777
0.335736
0.0262716
0.338114
0.0293195
0.340764
0.0322265
0.343685
0.0349944
0.346876
0.0376226
0.350336
0.0401082
0.354062
0.0424465
0.358051
0.0446317
0.362299
0.046657
0.366798
0.0485155
0.371539
0.0502
0.376512
0.051704
0.381702
0.0530214
0.387094
0.0541477
0.392669
0.0550795
0.398405
0.0558151
0.40428
0.0563548
0.410268
0.0567007
0.416344
0.0568571
0.422478
0.0568303
0.428644
0.0566285
0.434814
0.0562616
0.44096
0.0557411