/*--------------------------------*- C++ -*----------------------------------*\
  =========                 |
  \\      /  F ield         | OpenFOAM: The Open Source CFD Toolbox
   \\    /   O peration     | Website:  https://openfoam.org
    \\  /    A nd           | Version:  dev
     \\/     M anipulation  |
\*---------------------------------------------------------------------------*/
FoamFile
{
    version     2.0;
    format      ascii;
    class       surfaceVectorField;
    location    "9.9";
    object      Uf;
}
// * * * * * * * * * * * * * * * * * * * * * * * * * * * * * * * * * * * * * //

dimensions      [0 1 -1 0 0 0 0];

internalField   nonuniform List<vector> 
5457
(
(9.92088 0 0.0251103)
(9.97124 0 0.0387467)
(9.82401 0 0.032828)
(9.92858 0 0.048587)
(9.7096 0 0.0393137)
(9.85547 0 0.0587709)
(9.57542 0 0.0460138)
(9.75679 0 0.0705971)
(9.42135 0 0.0529517)
(9.63751 0 0.0830183)
(9.24751 0 0.0601697)
(9.49858 0 0.0959426)
(9.05357 0 0.0678151)
(9.33926 0 0.10962)
(8.83886 0 0.0760395)
(9.15868 0 0.124297)
(8.60244 0 0.084976)
(8.95602 0 0.140177)
(8.34316 0 0.0947515)
(8.73029 0 0.157445)
(8.05972 0 0.105495)
(8.48029 0 0.176283)
(7.75066 0 0.117336)
(8.20464 0 0.196872)
(7.41439 0 0.130405)
(7.90179 0 0.219378)
(7.04931 0 0.144821)
(7.57013 0 0.243941)
(6.65381 0 0.160684)
(7.20798 0 0.270652)
(6.22647 0 0.178056)
(6.81376 0 0.299521)
(5.76616 0 0.19694)
(6.38607 0 0.330434)
(5.27229 0 0.217245)
(5.92389 0 0.363104)
(4.74507 0 0.238747)
(5.4268 0 0.396994)
(4.18588 0 0.261041)
(4.89534 0 0.431251)
(3.59764 0 0.283495)
(4.33131 0 0.464629)
(2.98523 0 0.305205)
(3.73827 0 0.495429)
(2.3558 0 0.325068)
(3.12194 0 0.521509)
(1.7188 0 0.342542)
(2.49075 0 0.540546)
(1.08407 0 0.361875)
(1.85556 0 0.551654)
(0.451575 0 0.348612)
(1.24522 0 0.563003)
(-0.145998 0 0.102366)
(0.608619 0 0.544787)
(-0.423675 0 -0.2071)
(0.0945777 0 0.259273)
(-0.402173 0 -0.361223)
(-0.133817 0 -0.0205629)
(-0.119681 0 -0.393903)
(9.99641 0 0.0516744)
(9.99705 0 0.0405064)
(9.95878 0 0.070865)
(9.9785 0 0.0674581)
(9.89823 0 0.0879917)
(9.93377 0 0.0898755)
(9.81657 0 0.105991)
(9.86452 0 0.113562)
(9.71356 0 0.12493)
(9.77436 0 0.138524)
(9.58905 0 0.144864)
(9.66432 0 0.164658)
(9.44269 0 0.166102)
(9.53393 0 0.192346)
(9.27384 0 0.188981)
(9.38244 0 0.222048)
(9.08158 0 0.213799)
(9.20912 0 0.254169)
(8.8648 0 0.240834)
(9.01307 0 0.289088)
(8.62218 0 0.270358)
(8.79321 0 0.327179)
(8.35224 0 0.302631)
(8.54823 0 0.368816)
(8.05339 0 0.337883)
(8.27668 0 0.41435)
(7.72392 0 0.37629)
(7.97699 0 0.464083)
(7.36215 0 0.417932)
(7.64751 0 0.518228)
(6.96647 0 0.462738)
(7.2866 0 0.576847)
(6.53556 0 0.510416)
(6.8927 0 0.639767)
(6.06853 0 0.56036)
(6.46453 0 0.706467)
(5.56527 0 0.611544)
(6.0013 0 0.775945)
(5.02677 0 0.662402)
(5.50294 0 0.846553)
(4.45554 0 0.710718)
(4.97056 0 0.915826)
(3.85615 0 0.753539)
(4.40684 0 0.980314)
(3.23586 0 0.787183)
(3.8167 0 1.03545)
(2.6055 0 0.807476)
(3.20813 0 1.07546)
(1.98251 0 0.810429)
(2.59309 0 1.0931)
(1.40505 0 0.776832)
(1.99594 0 1.07702)
(0.929532 0 0.646307)
(1.41926 0 0.978299)
(0.43965 0 0.384211)
(0.937405 0 0.716685)
(0.0590715 0 -0.118721)
(0.443602 0 0.343386)
(0.174883 0 -0.336046)
(9.98903 0 0.0594343)
(9.99481 0 0.0458801)
(9.95433 0 0.0894822)
(9.97368 0 0.0848596)
(9.89728 0 0.11804)
(9.92983 0 0.119182)
(9.82045 0 0.147909)
(9.86356 0 0.153987)
(9.72413 0 0.179435)
(9.77734 0 0.190422)
(9.60818 0 0.212792)
(9.67224 0 0.228655)
(9.4723 0 0.248412)
(9.54806 0 0.269151)
(9.31601 0 0.286797)
(9.40426 0 0.312522)
(9.13861 0 0.328424)
(9.24027 0 0.359355)
(8.93915 0 0.373752)
(9.0554 0 0.410208)
(8.71653 0 0.42324)
(8.84879 0 0.465637)
(8.46946 0 0.477334)
(8.61938 0 0.526195)
(8.19651 0 0.53644)
(8.36601 0 0.592419)
(7.89614 0 0.600886)
(8.08735 0 0.664788)
(7.56671 0 0.670855)
(7.782 0 0.743671)
(7.2066 0 0.746302)
(7.44851 0 0.829244)
(6.8143 0 0.826827)
(7.08544 0 0.921374)
(6.38859 0 0.911524)
(6.69143 0 1.01946)
(5.92873 0 0.998793)
(6.26543 0 1.12222)
(5.43482 0 1.08612)
(5.80681 0 1.22746)
(4.90822 0 1.16984)
(5.31575 0 1.33177)
(4.3521 0 1.24489)
(4.79364 0 1.4302)
(3.77226 0 1.30453)
(4.24364 0 1.51587)
(3.17842 0 1.33979)
(3.67149 0 1.57939)
(2.58635 0 1.33805)
(3.08602 0 1.60768)
(2.01962 0 1.27287)
(2.50266 0 1.58148)
(1.48674 0 1.09528)
(1.92851 0 1.46411)
(0.958153 0 0.769022)
(1.38508 0 1.21024)
(0.479791 0 0.202267)
(0.829429 0 0.800847)
(0.433675 0 0.133879)
(9.98515 0 0.0716185)
(9.99367 0 0.0531514)
(9.95038 0 0.113638)
(9.97087 0 0.102298)
(9.89435 0 0.154144)
(9.9269 0 0.147964)
(9.8188 0 0.195588)
(9.86184 0 0.193736)
(9.72439 0 0.23883)
(9.77744 0 0.241296)
(9.61109 0 0.284347)
(9.67464 0 0.291187)
(9.47869 0 0.332747)
(9.55339 0 0.343984)
(9.32689 0 0.384706)
(9.4133 0 0.400405)
(9.15515 0 0.440883)
(9.25393 0 0.461178)
(8.96282 0 0.501925)
(9.07475 0 0.527005)
(8.74905 0 0.568474)
(8.8751 0 0.598586)
(8.5129 0 0.641164)
(8.65417 0 0.676618)
(8.2533 0 0.720586)
(8.41108 0 0.761782)
(7.96908 0 0.80725)
(8.14483 0 0.854702)
(7.65897 0 0.901499)
(7.85435 0 0.955889)
(7.32169 0 1.00341)
(7.53853 0 1.06564)
(6.95595 0 1.11263)
(7.19622 0 1.18392)
(6.56057 0 1.22819)
(6.82626 0 1.31015)
(6.13459 0 1.34822)
(6.4276 0 1.44298)
(5.67753 0 1.46963)
(5.99936 0 1.57995)
(5.18967 0 1.58779)
(5.54102 0 1.71712)
(4.67254 0 1.69602)
(5.05272 0 1.84855)
(4.12947 0 1.78512)
(4.53563 0 1.96582)
(3.56634 0 1.84246)
(3.99241 0 2.05725)
(2.99177 0 1.85062)
(3.42729 0 2.10705)
(2.4156 0 1.78235)
(2.84736 0 2.09435)
(1.84035 0 1.60028)
(2.256 0 1.98855)
(1.25925 0 1.27822)
(1.66014 0 1.75282)
(0.666706 0 0.789313)
(1.02385 0 1.3675)
(0.522994 0 0.786877)
(9.98337 0 0.0844133)
(9.99316 0 0.0612957)
(9.9482 0 0.136847)
(9.96958 0 0.119936)
(9.89313 0 0.188046)
(9.92574 0 0.176253)
(9.81905 0 0.240187)
(9.86198 0 0.232716)
(9.7266 0 0.29449)
(9.77962 0 0.29111)
(9.61586 0 0.351687)
(9.67937 0 0.352302)
(9.48667 0 0.412504)
(9.56124 0 0.417011)
(9.33873 0 0.477715)
(9.42492 0 0.486048)
(9.17163 0 0.548096)
(9.27003 0 0.560251)
(8.98483 0 0.624405)
(9.09612 0 0.64044)
(8.77767 0 0.707401)
(8.90264 0 0.727428)
(8.5494 0 0.797828)
(8.68895 0 0.822023)
(8.2992 0 0.896395)
(8.4543 0 0.925015)
(8.02617 0 1.00373)
(8.19791 0 1.03713)
(7.72937 0 1.12028)
(7.91893 0 1.159)
(7.40782 0 1.24624)
(7.61647 0 1.29101)
(7.06051 0 1.38135)
(7.28961 0 1.43324)
(6.68641 0 1.52466)
(6.93736 0 1.58519)
(6.28455 0 1.67425)
(6.5587 0 1.74558)
(5.85406 0 1.82684)
(6.15256 0 1.91195)
(5.39437 0 1.97728)
(5.71789 0 2.08021)
(4.90541 0 2.11805)
(5.25373 0 2.24411)
(4.38791 0 2.23857)
(4.75939 0 2.39459)
(3.84362 0 2.32446)
(4.2346 0 2.51913)
(3.27514 0 2.35682)
(3.67956 0 2.60112)
(2.68514 0 2.31041)
(3.09542 0 2.61953)
(2.07248 0 2.15477)
(2.48144 0 2.54709)
(1.42923 0 1.86712)
(1.83972 0 2.35343)
(0.742535 0 1.41926)
(1.13124 0 2.02419)
(0.543253 0 1.51414)
(9.98264 0 0.0975046)
(9.99299 0 0.0697978)
(9.94743 0 0.159786)
(9.96924 0 0.137593)
(9.89353 0 0.221364)
(9.92596 0 0.203942)
(9.82132 0 0.284114)
(9.8638 0 0.270709)
(9.73132 0 0.349375)
(9.78384 0 0.339609)
(9.62363 0 0.418052)
(9.68662 0 0.41173)
(9.49814 0 0.490978)
(9.57214 0 0.487942)
(9.35459 0 0.569021)
(9.44017 0 0.569151)
(9.19262 0 0.653058)
(9.29037 0 0.656288)
(9.01174 0 0.743959)
(9.12234 0 0.750276)
(8.8114 0 0.842586)
(8.93562 0 0.852028)
(8.59096 0 0.949786)
(8.72961 0 0.962446)
(8.3497 0 1.06637)
(8.50368 0 1.08241)
(8.08688 0 1.19305)
(8.25712 0 1.21274)
(7.80172 0 1.3304)
(7.98919 0 1.35415)
(7.49337 0 1.4787)
(7.69908 0 1.50713)
(7.16093 0 1.63778)
(7.38593 0 1.67187)
(6.80344 0 1.80684)
(7.04876 0 1.84802)
(6.4198 0 1.98405)
(6.68645 0 2.03446)
(6.0088 0 2.1662)
(6.29769 0 2.22892)
(5.56906 0 2.34815)
(5.88085 0 2.42754)
(5.0991 0 2.52221)
(5.43397 0 2.62429)
(4.59739 0 2.67753)
(4.95474 0 2.81028)
(4.06235 0 2.7994)
(4.44047 0 2.97316)
(3.49237 0 2.86895)
(3.88816 0 3.09649)
(2.88554 0 2.8627)
(3.2949 0 3.15969)
(2.23778 0 2.75364)
(2.65661 0 3.13763)
(1.54227 0 2.52069)
(1.97462 0 3.00284)
(0.79356 0 2.13095)
(1.2071 0 2.74019)
(0.556673 0 2.29139)
(9.9825 0 0.110634)
(9.99301 0 0.0783671)
(9.9477 0 0.182338)
(9.96953 0 0.155048)
(9.89522 0 0.253836)
(9.92721 0 0.230903)
(9.82523 0 0.326792)
(9.86696 0 0.307532)
(9.73811 0 0.402586)
(9.78976 0 0.386552)
(9.634 0 0.482272)
(9.69603 0 0.469185)
(9.51281 0 0.566803)
(9.58576 0 0.556442)
(9.37432 0 0.657146)
(9.45875 0 0.649324)
(9.21821 0 0.754275)
(9.31475 0 0.748849)
(9.04405 0 0.859156)
(9.15339 0 0.856034)
(8.85134 0 0.972743)
(8.97425 0 0.971883)
(8.6395 0 1.09597)
(8.7768 0 1.09739)
(8.40788 0 1.22974)
(8.56045 0 1.23352)
(8.15578 0 1.37486)
(8.32454 0 1.38119)
(7.88244 0 1.53198)
(8.06834 0 1.5412)
(7.58704 0 1.7015)
(7.79104 0 1.71418)
(7.26864 0 1.88342)
(7.49172 0 1.90044)
(6.92614 0 2.07709)
(7.16927 0 2.09983)
(6.5582 0 2.28096)
(6.82235 0 2.31152)
(6.16313 0 2.49214)
(6.44925 0 2.5336)
(5.73876 0 2.70589)
(6.04773 0 2.76273)
(5.28235 0 2.91501)
(5.61485 0 2.99352)
(4.79044 0 3.10912)
(5.14683 0 3.21785)
(4.25891 0 3.2741)
(4.63897 0 3.42421)
(3.68302 0 3.39168)
(4.08565 0 3.597)
(3.05771 0 3.43942)
(3.48093 0 3.7163)
(2.37746 0 3.39145)
(2.81802 0 3.75779)
(1.63771 0 3.22575)
(2.09889 0 3.69356)
(0.839026 0 2.90037)
(1.27875 0 3.50398)
(0.573282 0 3.11316)
(9.98273 0 0.12359)
(9.99316 0 0.0868237)
(9.94872 0 0.204324)
(9.97026 0 0.172105)
(9.89793 0 0.285273)
(9.92926 0 0.256994)
(9.83049 0 0.367993)
(9.87122 0 0.343014)
(9.74669 0 0.453887)
(9.79714 0 0.431711)
(9.64665 0 0.54412)
(9.70732 0 0.524392)
(9.53034 0 0.639759)
(9.60177 0 0.622185)
(9.39757 0 0.741861)
(9.48034 0 0.726185)
(9.24806 0 0.851486)
(9.3428 0 0.837494)
(9.08145 0 0.969688)
(9.18887 0 0.957213)
(8.89726 0 1.09751)
(9.01815 0 1.08643)
(8.69498 0 1.23599)
(8.83019 0 1.22624)
(8.47399 0 1.3861)
(8.62442 0 1.3777)
(8.2336 0 1.54876)
(8.40021 0 1.54181)
(7.97303 0 1.72474)
(8.15684 0 1.71952)
(7.69139 0 1.91458)
(7.89343 0 1.91158)
(7.3876 0 2.11849)
(7.60896 0 2.11851)
(7.06033 0 2.3361)
(7.30215 0 2.34045)
(6.70788 0 2.56625)
(6.97134 0 2.57691)
(6.32801 0 2.80659)
(6.61437 0 2.82657)
(5.91771 0 3.05312)
(6.22833 0 3.08681)
(5.47304 0 3.29956)
(5.80932 0 3.35324)
(4.98888 0 3.53663)
(5.35221 0 3.619)
(4.4589 0 3.75131)
(4.85041 0 3.87394)
(3.87579 0 3.92626)
(4.29595 0 4.10379)
(3.23194 0 4.03955)
(3.68009 0 4.28942)
(2.5205 0 4.06457)
(2.9931 0 4.40639)
(1.73813 0 3.97562)
(2.23704 0 4.42407)
(0.889341 0 3.71817)
(1.36314 0 4.31568)
(0.598652 0 3.98422)
(9.98321 0 0.136213)
(9.99339 0 0.0950473)
(9.95032 0 0.225588)
(9.97131 0 0.188603)
(9.9015 0 0.31552)
(9.93193 0 0.28207)
(9.83693 0 0.407534)
(9.87642 0 0.376988)
(9.75682 0 0.503051)
(9.80578 0 0.474877)
(9.66132 0 0.603324)
(9.72028 0 0.577095)
(9.55042 0 0.709516)
(9.61993 0 0.684869)
(9.42399 0 0.822769)
(9.50461 0 0.799381)
(9.28178 0 0.944224)
(9.37417 0 0.921811)
(9.12348 0 1.07502)
(9.22837 0 1.05334)
(8.9487 0 1.21629)
(9.06688 0 1.19514)
(8.75694 0 1.36916)
(8.88928 0 1.34839)
(8.54763 0 1.53471)
(8.69508 0 1.51425)
(8.32009 0 1.71398)
(8.48368 0 1.69385)
(8.07351 0 1.90789)
(8.25433 0 1.88826)
(7.80692 0 2.11719)
(8.00616 0 2.09843)
(7.51907 0 2.34232)
(7.73802 0 2.32514)
(7.20839 0 2.58332)
(7.44846 0 2.56886)
(6.87277 0 2.83954)
(7.13554 0 2.82963)
(6.5094 0 3.1094)
(6.79665 0 3.1068)
(6.11447 0 3.38991)
(6.42827 0 3.39876)
(5.68287 0 3.67608)
(6.0256 0 3.7024)
(5.2079 0 3.9602)
(5.58219 0 4.01253)
(4.68115 0 4.23088)
(5.08969 0 4.32093)
(4.09268 0 4.4721)
(4.53761 0 4.61524)
(3.43193 0 4.66219)
(3.91404 0 4.87758)
(2.68962 0 4.77265)
(3.20506 0 5.08313)
(1.86147 0 4.77176)
(2.41075 0 5.19734)
(0.953971 0 4.58898)
(1.47592 0 5.18352)
(0.639028 0 4.91857)
(9.98386 0 0.14838)
(9.99368 0 0.102951)
(9.95235 0 0.245989)
(9.9726 0 0.204409)
(9.90578 0 0.344425)
(9.9351 0 0.305992)
(9.84436 0 0.445232)
(9.8824 0 0.409301)
(9.76831 0 0.549854)
(9.81551 0 0.515856)
(9.67778 0 0.659611)
(9.73469 0 0.62706)
(9.57278 0 0.77575)
(9.63996 0 0.744217)
(9.45323 0 0.899492)
(9.53126 0 0.868587)
(9.31896 0 1.03205)
(9.40849 0 1.00142)
(9.16971 0 1.17465)
(9.27146 0 1.14397)
(9.00514 0 1.32851)
(9.11992 0 1.29749)
(8.82482 0 1.49484)
(8.95352 0 1.46325)
(8.62822 0 1.67485)
(8.77183 0 1.64251)
(8.41469 0 1.8697)
(8.57429 0 1.83652)
(8.18343 0 2.0805)
(8.36021 0 2.04652)
(7.93339 0 2.30824)
(8.1287 0 2.27369)
(7.66322 0 2.55369)
(7.87857 0 2.51908)
(7.37114 0 2.81737)
(7.60827 0 2.78361)
(7.05471 0 3.0993)
(7.31566 0 3.0679)
(6.71062 0 3.39882)
(6.99782 0 3.37217)
(6.33435 0 3.71422)
(6.65075 0 3.69596)
(5.91974 0 4.04219)
(6.26889 0 4.03781)
(5.4586 0 4.37708)
(5.84472 0 4.3946)
(4.94033 0 4.7098)
(5.36813 0 4.76072)
(4.35195 0 5.02631)
(4.82597 0 5.12661)
(3.67882 0 5.30578)
(4.20232 0 5.47675)
(2.90681 0 5.51757)
(3.47705 0 5.78695)
(2.02711 0 5.6222)
(2.64428 0 6.01873)
(1.04479 0 5.52848)
(1.63718 0 6.12291)
(0.704219 0 5.94188)
(9.98465 0 0.159993)
(9.99402 0 0.110471)
(9.95473 0 0.265401)
(9.97408 0 0.219416)
(9.91064 0 0.371849)
(9.93867 0 0.328637)
(9.85266 0 0.480921)
(9.88904 0 0.439809)
(9.78098 0 0.594092)
(9.82617 0 0.554476)
(9.69579 0 0.712738)
(9.75036 0 0.674078)
(9.59713 0 0.838176)
(9.66164 0 0.799981)
(9.48498 0 0.971697)
(9.56 0 0.933512)
(9.35922 0 1.11459)
(9.44539 0 1.07598)
(9.21967 0 1.26814)
(9.31771 0 1.22872)
(9.06605 0 1.43364)
(9.17678 0 1.39304)
(8.89801 0 1.61242)
(9.02232 0 1.57029)
(8.71509 0 1.80579)
(8.854 0 1.76184)
(8.51671 0 2.01507)
(8.67133 0 1.96908)
(8.30208 0 2.24156)
(8.47369 0 2.1934)
(8.07018 0 2.48651)
(8.26026 0 2.43622)
(7.81963 0 2.75112)
(8.02989 0 2.69894)
(7.54853 0 3.03641)
(7.78103 0 2.98292)
(7.25428 0 3.34321)
(7.5115 0 3.28947)
(6.93326 0 3.67192)
(7.21829 0 3.61974)
(6.58045 0 4.02237)
(6.89716 0 3.97464)
(6.1889 0 4.39329)
(6.54218 0 4.35456)
(5.74912 0 4.7817)
(6.14506 0 4.75898)
(5.24838 0 5.1817)
(5.69432 0 5.18564)
(4.67013 0 5.58262)
(5.17421 0 5.62917)
(3.99405 0 5.96615)
(4.56413 0 6.07856)
(3.19758 0 6.30104)
(3.83532 0 6.51306)
(2.26106 0 6.53969)
(2.96986 0 6.89317)
(1.18018 0 6.56384)
(1.87839 0 7.15656)
(0.812431 0 7.0978)
(9.98553 0 0.170976)
(9.9944 0 0.117555)
(9.95738 0 0.283719)
(9.97572 0 0.233536)
(9.916 0 0.397665)
(9.94258 0 0.349895)
(9.86168 0 0.514451)
(9.89623 0 0.468386)
(9.79467 0 0.635584)
(9.83764 0 0.590585)
(9.71515 0 0.762489)
(9.76712 0 0.717965)
(9.62322 0 0.89654)
(9.68473 0 0.851943)
(9.51891 0 1.03909)
(9.59053 0 0.9939)
(9.40217 0 1.19148)
(9.48452 0 1.1452)
(9.27288 0 1.35506)
(9.36669 0 1.30723)
(9.13087 0 1.53122)
(9.23693 0 1.48136)
(8.97587 0 1.72135)
(9.09507 0 1.66902)
(8.80752 0 1.92687)
(8.94087 0 1.87167)
(8.62533 0 2.14927)
(8.77397 0 2.09082)
(8.4286 0 2.39005)
(8.59386 0 2.32803)
(8.21641 0 2.65075)
(8.39985 0 2.58494)
(7.98745 0 2.93297)
(8.19092 0 2.8633)
(7.73988 0 3.23832)
(7.96568 0 3.16494)
(7.47113 0 3.56844)
(7.72211 0 3.49184)
(7.17756 0 3.92497)
(7.45736 0 3.84614)
(6.85403 0 4.30939)
(7.16736 0 4.23018)
(6.49328 0 4.72286)
(6.84629 0 4.6464)
(6.08503 0 5.16568)
(6.48581 0 5.09723)
(5.61484 0 5.63634)
(6.07389 0 5.58463)
(5.06265 0 6.12967)
(5.59307 0 6.10909)
(4.40117 0 6.63336)
(5.01848 0 6.66736)
(3.59504 0 7.12043)
(4.31129 0 7.24798)
(2.60333 0 7.53938)
(3.43436 0 7.81915)
(1.39366 0 7.73874)
(2.25534 0 8.31338)
(1.00201 0 8.46281)
(9.9865 0 0.181265)
(9.9948 0 0.124165)
(9.96026 0 0.300853)
(9.97747 0 0.246697)
(9.92176 0 0.421764)
(9.94676 0 0.369673)
(9.87133 0 0.54569)
(9.90387 0 0.494921)
(9.80922 0 0.674174)
(9.84976 0 0.62405)
(9.73566 0 0.808676)
(9.78477 0 0.758564)
(9.65079 0 0.950619)
(9.70901 0 0.899916)
(9.55469 0 1.1014)
(9.62256 0 1.04953)
(9.44739 0 1.26242)
(9.52553 0 1.20882)
(9.32886 0 1.43508)
(9.41795 0 1.3792)
(9.19902 0 1.62081)
(9.29984 0 1.56211)
(9.05772 0 1.8211)
(9.17112 0 1.75903)
(8.90471 0 2.03748)
(9.03169 0 1.9715)
(8.73963 0 2.27156)
(8.88132 0 2.20112)
(8.56195 0 2.52502)
(8.71968 0 2.44962)
(8.37092 0 2.79971)
(8.54626 0 2.71884)
(8.16542 0 3.09758)
(8.3603 0 3.01082)
(7.94386 0 3.42085)
(8.16069 0 3.32783)
(7.70396 0 3.77196)
(7.94579 0 3.67248)
(7.44242 0 4.15374)
(7.71322 0 4.04785)
(7.15449 0 4.56944)
(7.45953 0 4.4576)
(6.8333 0 5.02279)
(7.17972 0 4.90623)
(6.46879 0 5.5179)
(6.86637 0 5.39925)
(6.04608 0 6.05887)
(6.50843 0 5.94334)
(5.54294 0 6.64872)
(6.08893 0 6.54638)
(4.92575 0 7.28667)
(5.58175 0 7.21674)
(4.14353 0 7.96062)
(4.94086 0 7.96111)
(3.12031 0 8.63207)
(4.10742 0 8.77455)
(1.7552 0 9.12552)
(2.87665 0 9.61883)
(1.36363 0 10.1819)
(9.98754 0 0.190812)
(9.99523 0 0.130269)
(9.96332 0 0.316729)
(9.97932 0 0.258842)
(9.92785 0 0.444053)
(9.95115 0 0.387895)
(9.88147 0 0.574531)
(9.91187 0 0.519322)
(9.82448 0 0.709732)
(9.86243 0 0.654761)
(9.75711 0 0.851151)
(9.80316 0 0.795743)
(9.67956 0 1.00024)
(9.73424 0 0.943748)
(9.59199 0 1.15844)
(9.65581 0 1.10023)
(9.49448 0 1.32718)
(9.56803 0 1.26663)
(9.38711 0 1.50791)
(9.47104 0 1.4444)
(9.26991 0 1.70211)
(9.36495 0 1.63501)
(9.14283 0 1.91132)
(9.24981 0 1.83998)
(9.00579 0 2.13715)
(9.12565 0 2.0609)
(8.8586 0 2.38132)
(8.99242 0 2.29947)
(8.70094 0 2.64569)
(8.85 0 2.55751)
(8.5323 0 2.93231)
(8.69814 0 2.83704)
(8.35191 0 3.24351)
(8.5364 0 3.14032)
(8.15858 0 3.58196)
(8.36409 0 3.46997)
(7.95058 0 3.95084)
(8.18014 0 3.82911)
(7.72535 0 4.35405)
(7.98297 0 4.22154)
(7.47915 0 4.79643)
(7.77021 0 4.65207)
(7.2064 0 5.28415)
(7.53835 0 5.12688)
(6.89872 0 5.8252)
(7.28215 0 5.65418)
(6.54312 0 6.4299)
(6.99361 0 6.24509)
(6.11887 0 7.11163)
(6.65999 0 6.9151)
(5.59123 0 7.88748)
(6.2607 0 7.68641)
(4.89875 0 8.77718)
(5.75529 0 8.59243)
(3.92454 0 9.79982)
(5.0845 0 9.68419)
(2.43127 0 10.8534)
(3.97631 0 11.0469)
(2.14395 0 12.5632)
(9.98861 0 0.199576)
(9.99567 0 0.135844)
(9.96652 0 0.331284)
(9.98124 0 0.269924)
(9.9342 0 0.464451)
(9.9557 0 0.404499)
(9.89202 0 0.600864)
(9.92016 0 0.541513)
(9.8403 0 0.742121)
(9.87552 0 0.682631)
(9.77931 0 0.889737)
(9.82215 0 0.829399)
(9.70931 0 1.04519)
(9.76027 0 0.983318)
(9.63049 0 1.20995)
(9.69009 0 1.14586)
(9.54305 0 1.38546)
(9.61184 0 1.31848)
(9.44714 0 1.57319)
(9.52575 0 1.50264)
(9.34291 0 1.77467)
(9.43203 0 1.69984)
(9.23046 0 1.99146)
(9.33088 0 1.91161)
(9.10987 0 2.22523)
(9.22247 0 2.13957)
(8.98116 0 2.47778)
(9.10696 0 2.38547)
(8.84425 0 2.75109)
(8.98447 0 2.6512)
(8.69897 0 3.04736)
(8.85503 0 2.93886)
(8.54496 0 3.36917)
(8.71862 0 3.25087)
(8.3816 0 3.71953)
(8.57508 0 3.59007)
(8.20795 0 4.10217)
(8.42407 0 3.95986)
(8.02254 0 4.52173)
(8.265 0 4.36453)
(7.82318 0 4.98426)
(8.09696 0 4.80954)
(7.60656 0 5.4978)
(7.91858 0 5.30212)
(7.36764 0 6.07338)
(7.72787 0 5.85213)
(7.09848 0 6.72665)
(7.52193 0 6.47349)
(6.7859 0 7.48076)
(7.2965 0 7.18676)
(6.40632 0 8.37236)
(7.04604 0 8.02429)
(5.91269 0 9.46576)
(6.76028 0 9.04246)
(5.19245 0 10.9068)
(6.45802 0 10.3567)
(3.88044 0 13.1738)
(6.18357 0 12.3015)
(5.24955 0 16.3638)
(0.193771 0 -0.1154)
(0.114169 0 -0.189786)
(0.378189 0 -0.0978946)
(0.276969 0 -0.17636)
(0.529557 0 -0.074334)
(0.439249 0 -0.141335)
(0.646625 0 -0.0528722)
(0.575328 0 -0.106728)
(0.733048 0 -0.0348371)
(0.680385 0 -0.0769277)
(0.79279 0 -0.0199093)
(0.758069 0 -0.0519225)
(0.829235 0 -0.00754573)
(0.812884 0 -0.0309264)
(0.845303 0 0.00256049)
(0.848277 0 -0.0133133)
(0.844225 0 0.0101348)
(0.866785 0 0.000872247)
(0.827615 0 0.0153366)
(0.870246 0 0.0131199)
(0.799271 0 0.0188975)
(0.859728 0 0.0218592)
(0.761696 0 0.0211081)
(0.837975 0 0.0282937)
(0.71756 0 0.0220618)
(0.807699 0 0.0324492)
(0.669609 0 0.0218458)
(0.771615 0 0.0344219)
(0.620522 0 0.0205968)
(0.732457 0 0.0344045)
(0.572762 0 0.0185125)
(0.692857 0 0.0326839)
(0.528405 0 0.0158631)
(0.655166 0 0.0296382)
(0.488988 0 0.0129799)
(0.621258 0 0.0257157)
(0.455376 0 0.0102016)
(0.592363 0 0.0214104)
(0.427694 0 0.00780262)
(0.568957 0 0.017217)
(0.405388 0 0.00593083)
(0.550762 0 0.0135454)
(0.387478 0 0.00458635)
(0.536928 0 0.0106191)
(0.372907 0 0.00365649)
(0.526377 0 0.00843521)
(0.360832 0 0.00299194)
(0.518157 0 0.00682519)
(0.350709 0 0.00248068)
(0.511632 0 0.00558654)
(0.34219 0 0.00207287)
(0.506448 0 0.00459022)
(0.334988 0 0.00175968)
(0.502366 0 0.00378923)
(0.328799 0 0.00153196)
(0.499136 0 0.00317918)
(0.323339 0 0.00128716)
(0.496437 0 0.0027388)
(0.493572 0 0.0021842)
(0.180048 0 -0.275837)
(0.0959307 0 -0.366132)
(0.352769 0 -0.24108)
(0.24764 0 -0.341535)
(0.497829 0 -0.190078)
(0.390622 0 -0.27678)
(0.614582 0 -0.142819)
(0.511957 0 -0.213167)
(0.706686 0 -0.10275)
(0.608202 0 -0.158913)
(0.777826 0 -0.069255)
(0.683013 0 -0.113751)
(0.83104 0 -0.0411156)
(0.740139 0 -0.0760831)
(0.868595 0 -0.0173087)
(0.782342 0 -0.0444293)
(0.891235 0 0.00260299)
(0.811544 0 -0.0174432)
(0.900763 0 0.0186318)
(0.829485 0 0.00559413)
(0.896928 0 0.0309276)
(0.835751 0 0.0248174)
(0.882676 0 0.0397022)
(0.831631 0 0.0390249)
(0.860677 0 0.0450986)
(0.819482 0 0.0486235)
(0.833663 0 0.0473313)
(0.80171 0 0.0538136)
(0.80433 0 0.0467477)
(0.780746 0 0.0549639)
(0.775155 0 0.043833)
(0.758911 0 0.0526496)
(0.748238 0 0.0391949)
(0.738247 0 0.0476236)
(0.725097 0 0.0335358)
(0.720358 0 0.0408123)
(0.70656 0 0.0275973)
(0.706259 0 0.0332187)
(0.692695 0 0.0220533)
(0.696273 0 0.0258398)
(0.682927 0 0.017372)
(0.690036 0 0.0194773)
(0.676321 0 0.0137208)
(0.686692 0 0.014536)
(0.671947 0 0.0109871)
(0.685247 0 0.0109673)
(0.669128 0 0.008917)
(0.684911 0 0.00841857)
(0.667467 0 0.00728328)
(0.685237 0 0.00650324)
(0.66671 0 0.00596543)
(0.686022 0 0.00499824)
(0.66662 0 0.00492846)
(0.687125 0 0.00383622)
(0.666922 0 0.00416146)
(0.688353 0 0.00302417)
(0.667274 0 0.00358244)
(0.689406 0 0.00256231)
(0.689858 0 0.00245321)
(0.153593 0 -0.438192)
(0.0758306 0 -0.516567)
(0.296559 0 -0.38406)
(0.204928 0 -0.478254)
(0.414839 0 -0.306209)
(0.315312 0 -0.387221)
(0.509951 0 -0.23468)
(0.409376 0 -0.299878)
(0.585699 0 -0.174347)
(0.483566 0 -0.226339)
(0.645145 0 -0.124103)
(0.542019 0 -0.165416)
(0.690708 0 -0.0821241)
(0.587478 0 -0.114747)
(0.724345 0 -0.046748)
(0.621862 0 -0.0722988)
(0.747917 0 -0.0163979)
(0.646611 0 -0.0365124)
(0.762727 0 0.00945702)
(0.66349 0 -0.00610403)
(0.76874 0 0.0302308)
(0.673694 0 0.0201799)
(0.766922 0 0.0455406)
(0.675978 0 0.0403944)
(0.75924 0 0.0553846)
(0.672511 0 0.0542712)
(0.74783 0 0.0600572)
(0.665316 0 0.0620039)
(0.734728 0 0.0601238)
(0.656287 0 0.0641472)
(0.721768 0 0.0563753)
(0.64709 0 0.0615183)
(0.710448 0 0.0497908)
(0.639086 0 0.0551877)
(0.701838 0 0.0415044)
(0.633252 0 0.0464297)
(0.696446 0 0.0327329)
(0.630108 0 0.0366529)
(0.694151 0 0.0246)
(0.629621 0 0.0272672)
(0.694292 0 0.0178864)
(0.631192 0 0.0193917)
(0.695967 0 0.0128518)
(0.633851 0 0.0135429)
(0.698381 0 0.00927541)
(0.636612 0 0.00956987)
(0.701057 0 0.0067127)
(0.638815 0 0.00690632)
(0.703787 0 0.00479318)
(0.640241 0 0.00499656)
(0.706448 0 0.00334261)
(0.640935 0 0.00356428)
(0.708906 0 0.0023257)
(0.640953 0 0.00254286)
(0.710953 0 0.00176231)
(0.640282 0 0.00197289)
(0.712254 0 0.00173813)
(0.638851 0 0.0019095)
(0.636002 0 0.00256109)
(0.124609 0 -0.566144)
(0.0556986 0 -0.638613)
(0.23253 0 -0.491345)
(0.156771 0 -0.58146)
(0.318177 0 -0.390614)
(0.228501 0 -0.46719)
(0.386458 0 -0.300403)
(0.291889 0 -0.362128)
(0.441155 0 -0.225126)
(0.339993 0 -0.275027)
(0.484489 0 -0.162597)
(0.378437 0 -0.203077)
(0.518096 0 -0.110339)
(0.408639 0 -0.143265)
(0.543205 0 -0.0663446)
(0.431665 0 -0.0931025)
(0.560849 0 -0.0290699)
(0.448393 0 -0.0507863)
(0.572349 0 0.00244331)
(0.459328 0 -0.0151875)
(0.578653 0 0.0281215)
(0.467183 0 0.015318)
(0.579539 0 0.0472595)
(0.468946 0 0.0397279)
(0.576843 0 0.059542)
(0.466987 0 0.0562531)
(0.572422 0 0.0653231)
(0.463539 0 0.0651773)
(0.567747 0 0.0653753)
(0.460129 0 0.0674243)
(0.563952 0 0.0607297)
(0.457666 0 0.0641152)
(0.561823 0 0.052655)
(0.456643 0 0.0566099)
(0.561782 0 0.0426391)
(0.457191 0 0.0464566)
(0.563802 0 0.0322831)
(0.459088 0 0.0353664)
(0.567327 0 0.0230348)
(0.461733 0 0.0250746)
(0.571381 0 0.0158108)
(0.464145 0 0.01693)
(0.574911 0 0.0107861)
(0.465208 0 0.01145)
(0.577178 0 0.00751416)
(0.464039 0 0.00825755)
(0.577951 0 0.00533191)
(0.460344 0 0.00646932)
(0.577331 0 0.00376933)
(0.454483 0 0.00533877)
(0.575448 0 0.00266358)
(0.447092 0 0.0045789)
(0.572409 0 0.00202858)
(0.438646 0 0.0041419)
(0.568315 0 0.00189804)
(0.4294 0 0.00407546)
(0.56333 0 0.00239139)
(0.419604 0 0.00441011)
(0.407972 0 0.00507723)
(0.0910474 0 -0.661705)
(0.0346328 0 -0.727789)
(0.160025 0 -0.565515)
(0.102537 0 -0.647423)
(0.209621 0 -0.446792)
(0.130892 0 -0.513499)
(0.24816 0 -0.344199)
(0.161783 0 -0.397263)
(0.278858 0 -0.259605)
(0.180729 0 -0.302352)
(0.303146 0 -0.189511)
(0.196217 0 -0.224187)
(0.321994 0 -0.130911)
(0.207966 0 -0.159259)
(0.336015 0 -0.0814733)
(0.216636 0 -0.10472)
(0.345599 0 -0.039664)
(0.222685 0 -0.058539)
(0.351795 0 -0.00425828)
(0.226273 0 -0.0200819)
(0.354543 0 0.024998)
(0.227323 0 0.0131992)
(0.353378 0 0.0468558)
(0.225546 0 0.0406052)
(0.351128 0 0.0605622)
(0.222305 0 0.0579072)
(0.349307 0 0.066648)
(0.219986 0 0.0664838)
(0.348721 0 0.0661921)
(0.219058 0 0.0678351)
(0.349623 0 0.0605547)
(0.219137 0 0.0634983)
(0.351834 0 0.051307)
(0.219409 0 0.0551324)
(0.354842 0 0.0401855)
(0.218725 0 0.0444944)
(0.357858 0 0.0290267)
(0.215879 0 0.0334453)
(0.359707 0 0.0195265)
(0.210169 0 0.0239244)
(0.359082 0 0.0127565)
(0.20149 0 0.0173093)
(0.355053 0 0.00885971)
(0.190255 0 0.0138388)
(0.347367 0 0.00712611)
(0.176895 0 0.0127072)
(0.336751 0 0.00653556)
(0.162431 0 0.0124698)
(0.324141 0 0.00637262)
(0.147224 0 0.0122979)
(0.310367 0 0.00635707)
(0.1318 0 0.012001)
(0.295881 0 0.00649623)
(0.116546 0 0.0117634)
(0.280925 0 0.00692476)
(0.101471 0 0.0117583)
(0.266085 0 0.00744992)
(0.0863713 0 0.0118534)
(0.0706023 0 0.010896)
(0.0528789 0 -0.720407)
(0.0117152 0 -0.77958)
(0.0786962 0 -0.602664)
(0.0412965 0 -0.672112)
(0.0901359 0 -0.470816)
(0.0235467 0 -0.524181)
(0.0966945 0 -0.361463)
(0.0195873 0 -0.403242)
(0.100331 0 -0.27221)
(0.00658813 0 -0.305588)
(0.102195 0 -0.198623)
(-0.00443823 0 -0.225807)
(0.102821 0 -0.1373)
(-0.0150692 0 -0.15979)
(0.102572 0 -0.0856952)
(-0.0246428 0 -0.104513)
(0.10168 0 -0.0422716)
(-0.0329677 0 -0.0578177)
(0.0991438 0 -0.00506108)
(-0.0407989 0 -0.0180786)
(0.0945497 0 0.027029)
(-0.052736 0 0.0167422)
(0.0902567 0 0.0506662)
(-0.0569131 0 0.0438379)
(0.0877054 0 0.0637213)
(-0.0618136 0 0.059783)
(0.0870622 0 0.0680983)
(-0.0650892 0 0.0669456)
(0.0875466 0 0.0658765)
(-0.0680186 0 0.0674955)
(0.0877754 0 0.0590017)
(-0.0719794 0 0.0633418)
(0.0860406 0 0.0493663)
(-0.0782716 0 0.0562915)
(0.0804675 0 0.0389162)
(-0.0879435 0 0.0481303)
(0.0696812 0 0.0295918)
(-0.101614 0 0.0403161)
(0.0538234 0 0.0228971)
(-0.119011 0 0.0337871)
(0.0342747 0 0.0193727)
(-0.138976 0 0.0291804)
(0.0129999 0 0.0183737)
(-0.159914 0 0.0264528)
(-0.00782594 0 0.0184011)
(-0.180665 0 0.0247635)
(-0.0273966 0 0.0182593)
(-0.199835 0 0.0235318)
(-0.0454034 0 0.0177154)
(-0.217348 0 0.0222356)
(-0.0619846 0 0.0170821)
(-0.233114 0 0.0209358)
(-0.077521 0 0.0167683)
(-0.247224 0 0.0199376)
(-0.0924564 0 0.0166136)
(-0.26014 0 0.0194305)
(-0.1064 0 0.0152866)
(-0.272573 0 0.018847)
(-0.283602 0 0.0165866)
(0.00685756 0 -0.736857)
(-0.0151209 0 -0.786297)
(-0.011967 0 -0.598554)
(-0.0289807 0 -0.65411)
(-0.0400542 0 -0.458858)
(-0.0922916 0 -0.497955)
(-0.0680633 0 -0.348234)
(-0.13562 0 -0.377707)
(-0.0952371 0 -0.259128)
(-0.182858 0 -0.2814)
(-0.120037 0 -0.186712)
(-0.224141 0 -0.204253)
(-0.141958 0 -0.127075)
(-0.260744 0 -0.141189)
(-0.16085 0 -0.076972)
(-0.292359 0 -0.0888606)
(-0.177732 0 -0.0333625)
(-0.319187 0 -0.0441604)
(-0.195142 0 0.00468227)
(-0.343097 0 -0.00432689)
(-0.207912 0 0.0343466)
(-0.362235 0 0.0265904)
(-0.214108 0 0.0537682)
(-0.370507 0 0.0485033)
(-0.218434 0 0.0643291)
(-0.378314 0 0.0629641)
(-0.223064 0 0.0679394)
(-0.385187 0 0.070269)
(-0.229578 0 0.0665754)
(-0.393067 0 0.0720608)
(-0.239153 0 0.0619994)
(-0.403192 0 0.0698949)
(-0.252385 0 0.0557765)
(-0.41618 0 0.0651325)
(-0.269092 0 0.0492478)
(-0.431971 0 0.0590303)
(-0.288535 0 0.0433647)
(-0.450055 0 0.0527006)
(-0.309738 0 0.0385988)
(-0.469687 0 0.0469741)
(-0.331505 0 0.0350312)
(-0.489924 0 0.0423986)
(-0.352655 0 0.0324168)
(-0.509848 0 0.0389927)
(-0.372407 0 0.0302885)
(-0.528756 0 0.0361986)
(-0.390024 0 0.0282373)
(-0.545887 0 0.0334895)
(-0.4053 0 0.0261888)
(-0.560831 0 0.0306658)
(-0.418358 0 0.0243855)
(-0.573382 0 0.0279721)
(-0.429584 0 0.0230272)
(-0.583787 0 0.025844)
(-0.439266 0 0.021801)
(-0.592699 0 0.024404)
(-0.447488 0 0.0200794)
(-0.600706 0 0.0229709)
(-0.606427 0 0.0210059)
(-0.0416035 0 -0.704631)
(-0.047949 0 -0.745549)
(-0.109699 0 -0.551654)
(-0.10837 0 -0.58899)
(-0.179506 0 -0.412261)
(-0.21809 0 -0.432775)
(-0.247045 0 -0.30503)
(-0.304893 0 -0.316134)
(-0.308617 0 -0.220833)
(-0.388118 0 -0.226593)
(-0.363175 0 -0.153561)
(-0.460562 0 -0.156836)
(-0.410675 0 -0.0984579)
(-0.522643 0 -0.100881)
(-0.451544 0 -0.052138)
(-0.574983 0 -0.0549989)
(-0.48641 0 -0.0127326)
(-0.61889 0 -0.015954)
(-0.511468 0 0.0189741)
(-0.652284 0 0.0154656)
(-0.527669 0 0.0424662)
(-0.672694 0 0.0390845)
(-0.539042 0 0.0590349)
(-0.687445 0 0.0570673)
(-0.548163 0 0.0693581)
(-0.698944 0 0.06967)
(-0.557362 0 0.0741393)
(-0.70899 0 0.0768722)
(-0.568047 0 0.0746611)
(-0.719317 0 0.0795497)
(-0.580833 0 0.072068)
(-0.730955 0 0.0786454)
(-0.595708 0 0.0674039)
(-0.744244 0 0.0750712)
(-0.612253 0 0.0617097)
(-0.759003 0 0.0698245)
(-0.629951 0 0.0559601)
(-0.774864 0 0.0639738)
(-0.648375 0 0.0508832)
(-0.791503 0 0.0584328)
(-0.667007 0 0.0467402)
(-0.808576 0 0.0537131)
(-0.685114 0 0.0432543)
(-0.825605 0 0.0497285)
(-0.701923 0 0.0399105)
(-0.841921 0 0.045929)
(-0.71668 0 0.0364003)
(-0.856683 0 0.0418311)
(-0.728957 0 0.0328561)
(-0.869181 0 0.0374411)
(-0.738817 0 0.0297276)
(-0.879122 0 0.0332853)
(-0.746692 0 0.0273252)
(-0.886836 0 0.0299873)
(-0.753068 0 0.0254292)
(-0.89314 0 0.0276795)
(-0.758759 0 0.0236928)
(-0.898575 0 0.0258249)
(-0.901899 0 0.0243384)
(-0.0969749 0 -0.623239)
(-0.088934 0 -0.650568)
(-0.215905 0 -0.460691)
(-0.199306 0 -0.475257)
(-0.333212 0 -0.326455)
(-0.36066 0 -0.323244)
(-0.441728 0 -0.228273)
(-0.491408 0 -0.217204)
(-0.537283 0 -0.154859)
(-0.609319 0 -0.141535)