/*--------------------------------*- C++ -*----------------------------------*\
  =========                 |
  \\      /  F ield         | OpenFOAM: The Open Source CFD Toolbox
   \\    /   O peration     | Website:  https://openfoam.org
    \\  /    A nd           | Version:  dev
     \\/     M anipulation  |
\*---------------------------------------------------------------------------*/
FoamFile
{
    version     2.0;
    format      ascii;
    class       volScalarField;
    location    "3.9";
    object      p;
}
// * * * * * * * * * * * * * * * * * * * * * * * * * * * * * * * * * * * * * //

dimensions      [0 2 -2 0 0 0 0];

internalField   nonuniform List<scalar> 
2790
(
147.223
147.13
147.398
147.969
148.749
149.706
150.838
152.145
153.621
155.262
157.062
159.013
161.106
163.331
165.672
168.107
170.611
173.15
175.682
178.156
180.514
182.692
184.623
186.243
187.503
188.377
188.813
188.869
188.92
189.132
147.02
147.038
147.33
147.898
148.675
149.629
150.757
152.057
153.526
155.159
156.949
158.889
160.972
163.186
165.515
167.941
170.437
172.97
175.5
177.978
180.347
182.542
184.496
186.145
187.429
188.304
188.701
188.755
188.888
189.173
146.822
146.909
147.22
147.778
148.542
149.483
150.596
151.878
153.326
154.934
156.696
158.605
160.653
162.828
165.117
167.499
169.951
172.441
174.933
177.381
179.73
181.923
183.895
185.585
186.936
187.912
188.505
188.861
189.176
189.475
146.597
146.715
147.039
147.588
148.337
149.262
150.355
151.613
153.032
154.607
156.33
158.195
160.194
162.314
164.543
166.86
169.245
171.668
174.095
176.485
178.793
180.964
182.946
184.686
186.14
187.292
188.16
188.831
189.384
189.903
146.336
146.468
146.801
147.342
148.074
148.978
150.046
151.273
152.655
154.186
155.86
157.669
159.605
161.655
163.807
166.043
168.341
170.676
173.017
175.33
177.575
179.71
181.693
183.483
185.054
186.396
187.526
188.489
189.3
190.047
146.035
146.173
146.508
147.04
147.752
148.63
149.665
150.855
152.192
153.672
155.287
157.029
158.89
160.858
162.919
165.057
167.252
169.481
171.718
173.933
176.095
178.173
180.135
181.955
183.619
185.12
186.467
187.672
188.692
189.61
145.692
145.832
146.163
146.682
147.371
148.219
149.218
150.363
151.649
153.069
154.616
156.282
158.056
159.929
161.886
163.912
165.988
168.093
170.206
172.302
174.357
176.348
178.256
180.066
181.772
183.372
184.866
186.246
187.41
188.457
145.308
145.445
145.769
146.272
146.935
147.749
148.706
149.802
151.029
152.382
153.853
155.432
157.11
158.876
160.717
162.616
164.556
166.521
168.488
170.44
172.357
174.225
176.032
177.774
179.452
181.071
182.626
184.098
185.348
186.499
144.882
145.015
145.329
145.811
146.446
147.222
148.133
149.174
150.337
151.616
153.002
154.486
156.059
157.707
159.418
161.176
162.965
164.769
166.568
168.346
170.09
171.788
173.435
175.036
176.597
178.132
179.64
181.111
182.382
183.621
144.415
144.543
144.844
145.304
145.907
146.641
147.502
148.483
149.577
150.775
152.07
153.451
154.908
156.428
157.998
159.602
161.223
162.845
164.451
166.025
167.553
169.027
170.445
171.813
173.145
174.464
175.784
177.122
178.322
179.626
143.91
144.031
144.317
144.752
145.32
146.011
146.818
147.734
148.753
149.866
151.063
152.334
153.668
155.051
156.468
157.904
159.341
160.762
162.149
163.483
164.751
165.941
167.047
168.075
169.039
169.967
170.897
171.896
172.858
174.176
143.368
143.482
143.75
144.159
144.69
145.333
146.083
146.932
147.872
148.894
149.988
151.143
152.346
153.583
154.838
156.095
157.333
158.534
159.676
160.738
161.699
162.541
163.249
163.815
164.24
164.55
164.792
165.1
165.481
166.654
142.791
142.898
143.147
143.527
144.019
144.613
145.303
146.081
146.939
147.866
148.853
149.886
150.953
152.037
153.122
154.188
155.215
156.179
157.054
157.813
158.426
158.86
159.082
159.056
158.753
158.154
157.279
156.286
155.337
155.841
142.181
142.28
142.51
142.859
143.31
143.853
144.481
145.186
145.959
146.788
147.664
148.572
149.497
150.424
151.332
152.201
153.007
153.721
154.312
154.744
154.973
154.95
154.611
153.879
152.655
150.825
148.261
144.958
141.007
138.97
141.542
141.632
141.842
142.16
142.568
143.059
143.623
144.252
144.937
145.667
146.429
147.209
147.991
148.756
149.484
150.151
150.728
151.184
151.481
151.571
151.398
150.887
149.942
148.426
146.147
142.814
137.969
130.95
120.484
108.254
1.62661
1.60485
1.52844
1.42188
1.30894
1.20069
1.1005
1.00876
0.924842
0.847635
0.775793
0.708011
0.643236
0.580789
0.520433
0.462359
0.407062
0.355116
0.306973
0.262931
0.223321
0.188884
0.160744
0.138715
0.120646
0.103391
0.0846092
0.0636238
0.0403793
0.0153699
1.57017
1.54488
1.47327
1.37547
1.27164
1.17123
1.07742
0.990808
0.910953
0.836887
0.767415
0.701362
0.637774
0.576067
0.516115
0.458244
0.403082
0.351279
0.30324
0.25916
0.219506
0.185421
0.157937
0.136943
0.120111
0.103734
0.0854021
0.0647326
0.0418462
0.0172325
1.51091
1.48042
1.41164
1.32181
1.2274
1.13551
1.04886
0.968146
0.893051
0.822736
0.756145
0.692227
0.630135
0.569387
0.509982
0.452414
0.397498
0.346019
0.298366
0.254583
0.21504
0.181138
0.15454
0.135078
0.119636
0.103976
0.0855817
0.0648951
0.0419174
0.0159292
1.45749
1.4219
1.35487
1.27145
1.18529
1.10103
1.02095
0.945723
0.875123
0.80841
0.74464
0.682867
0.622335
0.562651
0.503918
0.446764
0.392168
0.341072
0.293917
0.250562
0.210956
0.176421
0.149646
0.131753
0.118767
0.1051
0.0875953
0.0671443
0.0438584
0.0159587
1.42619
1.38568
1.32055
1.24125
1.16058
1.08115
1.00514
0.933239
0.865311
0.800712
0.73858
0.678047
0.618438
0.559441
0.501226
0.44447
0.390182
0.339347
0.292538
0.249887
0.211748
0.179302
0.154022
0.135067
0.119814
0.103325
0.0846731
0.0642907
0.042399
0.0151206
1.43009
1.38345
1.31961
1.24043
1.16071
1.08163
1.00577
0.933884
0.865901
0.801231
0.739043
0.678503
0.618978
0.560196
0.502342
0.44604
0.392176
0.341597
0.294894
0.25241
0.214719
0.183101
0.158593
0.140067
0.123902
0.106659
0.0871178
0.0652675
0.0407568
0.0134159
1.47739
1.42285
1.35381
1.27032
1.18481
1.10086
1.02085
0.94551
0.874696
0.807752
0.743824
0.682082
0.621887
0.562928
0.505306
0.449516
0.396282
0.346316
0.30014
0.258138
0.220875
0.189284
0.163349
0.142938
0.125057
0.10647
0.0859012
0.0631129
0.0379095
0.0122232
1.56888
1.50127
1.41808
1.32134
1.22395
1.13025
1.04245
0.961013
0.885533
0.815137
0.748774
0.685489
0.624525
0.565405
0.508065
0.452832
0.400306
0.351127
0.305783
0.264611
0.227999
0.19641
0.169686
0.147211
0.127249
0.107116
0.0851408
0.060507
0.0340996
0.0107112
1.69196
1.60089
1.49384
1.3761
1.26232
1.15667
1.06023
0.97248
0.892248
0.818601
0.750202
0.685879
0.624686
0.565883
0.509192
0.454773
0.403158
0.355017
0.310836
0.270795
0.234942
0.203148
0.175425
0.151307
0.12936
0.10757
0.0840123
0.057535
0.0304306
0.00938215
1.81694
1.69212
1.55997
1.4221
1.29042
1.17135
1.06594
0.972965
0.890276
0.8153
0.746149
0.681552
0.620694
0.562903
0.507492
0.454282
0.40383
0.357048
0.314526
0.276156
0.241371
0.209755
0.181177
0.155303
0.131351
0.107818
0.0825564
0.0542627
0.026682
0.00806789
1.91036
1.75477
1.59368
1.43585
1.29275
1.16677
1.05728
0.96225
0.879112
0.804695
0.736406
0.672854
0.613411
0.557319
0.503531
0.451563
0.402147
0.356734
0.316232
0.280207
0.247301
0.216334
0.186914
0.159165
0.133121
0.107827
0.0809616
0.0511002
0.023224
0.00687497
1.95209
1.76078
1.57463
1.40087
1.25212
1.12714
1.02136
0.930887
0.852619
0.782742
0.717906
0.657025
0.600403
0.547474
0.496426
0.446107
0.397622
0.353589
0.315681
0.282998
0.252869
0.222983
0.19269
0.1628
0.134454
0.107428
0.0792697
0.0482699
0.0202763
0.00586581
1.87357
1.62868
1.43966
1.28125
1.15116
1.04488
0.955004
0.877156
0.810114
0.749823
0.691358
0.634322
0.581515
0.533284
0.486309
0.437903
0.389753
0.34672
0.312103
0.284305
0.258348
0.230125
0.198768
0.166179
0.135091
0.106372
0.0774557
0.0459448
0.018013
0.00509439
1.53421
1.24922
1.13439
1.05515
0.978262
0.915527
0.858293
0.80163
0.751999
0.707184
0.657966
0.604637
0.555926
0.514586
0.473968
0.427801
0.37855
0.335323
0.304726
0.284125
0.264417
0.238543
0.205591
0.169273
0.134658
0.104273
0.0754335
0.0443028
0.0165916
0.00461081
0.759695
0.442024
0.576469
0.720917
0.736057
0.748956
0.744355
0.709485
0.677434
0.656441
0.621481
0.569966
0.524118
0.492674
0.4621
0.418028
0.36411
0.317628
0.291681
0.282096
0.271933
0.249238
0.21365
0.17194
0.13256
0.100511
0.0730316
0.0435885
0.0161782
0.00446035
140.863
140.944
141.132
141.417
141.782
142.217
142.715
143.267
143.862
144.489
145.134
145.782
146.415
147.015
147.558
148.017
148.36
148.552
148.546
148.286
147.699
146.69
145.126
142.812
139.449
134.542
127.169
115.414
93.2422
33.4033
140.136
140.207
140.373
140.623
140.942
141.32
141.749
142.22
142.722
143.242
143.766
144.279
144.761
145.19
145.543
145.79
145.897
145.82
145.51
144.9
143.907
142.417
140.271
137.238
132.961
126.854
117.884
104.318
84.7925
56.3453
139.366
139.428
139.57
139.784
140.056
140.375
140.733
141.122
141.528
141.939
142.341
142.716
143.044
143.302
143.465
143.501
143.371
143.032
142.426
141.484
140.113
138.194
135.562
131.986
127.142
120.574
111.694
99.8628
85.6363
69.0373
138.556
138.607
138.726
138.903
139.126
139.385
139.671
139.975
140.285
140.587
140.865
141.102
141.277
141.366
141.341
141.169
140.812
140.222
139.34
138.094
136.394
134.121
131.123
127.206
122.121
115.576
107.275
96.8868
84.3509
69.2299
137.706
137.747
137.841
137.981
138.155
138.353
138.567
138.786
138.999
139.191
139.347
139.447
139.471
139.394
139.188
138.818
138.246
137.423
136.291
134.782
132.808
130.264
127.019
122.92
117.785
111.414
103.609
94.1268
82.8007
69.8381
136.819
136.85
136.919
137.021
137.145
137.283
137.424
137.559
137.676
137.76
137.794
137.761
137.639
137.403
137.024
136.469
135.698
134.666
133.317
131.587
129.398
126.661
123.269
119.104
114.036
107.93
100.665
92.1398
82.3474
71.7004
135.898
135.918
135.963
136.027
136.102
136.179
136.248
136.3
136.322
136.3
136.218
136.056
135.794
135.406
134.866
134.14
133.192
131.976
130.445
128.539
126.193
123.332
119.875
115.735
110.824
105.064
98.4012
90.824
82.3764
73.394
134.946
134.956
134.976
135.003
135.029
135.046
135.045
135.016
134.946
134.821
134.626
134.342
133.947
133.42
132.732
131.853
130.747
129.377
127.697
125.658
123.206
120.282
116.826
112.778
108.085
102.707
96.6312
89.8771
82.495
74.7566
133.966
133.966
133.962
133.952
133.931
133.889
133.82
133.712
133.553
133.331
133.029
132.629
132.113
131.457
130.636
129.621
128.383
126.885
125.091
122.958
120.445
117.506
114.101
110.19
105.744
100.75
95.2132
89.1678
82.6674
75.9395
132.963
132.953
132.926
132.88
132.812
132.714
132.579
132.395
132.152
131.838
131.435
130.93
130.301
129.529
128.591
127.461
126.112
124.514
122.635
120.444
117.907
114.992
111.672
107.925
103.738
99.1128
94.0662
88.6378
82.8808
76.9798
131.941
131.921
131.871
131.792
131.679
131.527
131.328
131.073
130.752
130.35
129.856
129.253
128.524
127.65
126.61
125.383
123.945
122.271
120.336
118.115
115.584
112.722
109.512
105.943
102.014
97.7347
93.129
88.2359
83.1034
77.8798
130.905
130.876
130.805
130.692
130.537
130.334
130.076
129.754
129.358
128.878
128.299
127.608
126.79
125.827
124.702
123.396
121.89
120.162
118.195
115.968
113.467
110.677
107.59
104.204
100.524
96.5653
92.3523
87.9216
83.315
78.6517
129.861
129.822
129.731
129.587
129.392
129.141
128.828
128.444
127.981
127.427
126.773
126.005
125.109
124.071
122.876
121.507
119.95
118.189
116.208
113.996
111.541
108.837
105.881
102.676
99.2317
95.5644
91.6989
87.6676
83.5062
79.3109
128.814
128.767
128.656
128.483
128.251
127.955
127.591
127.15
126.626
126.008
125.286
124.45
123.488
122.388
121.136
119.721
118.129
116.35
114.373
112.189
109.794
107.183
104.36
101.33
98.1039
94.7002
91.1412
87.4553
83.6726
79.8709
127.769
127.715
127.586
127.387
127.12
126.783
126.373
125.881
125.301
124.625
123.845
122.952
121.934
120.783
119.488
118.039
116.427
114.644
112.683
110.539
108.21
105.697
103.004
100.139
97.1148
93.9478
90.6586
87.2716
83.8123
80.3438
126.735
126.673
126.528
126.304
126.006
125.632
125.18
124.642
124.014
123.288
122.458
121.515
120.452
119.261
117.934
116.463
114.843
113.066
111.131
109.034
106.776
104.361
101.794
99.0836
96.243
93.2875
90.2354
87.1076
83.9254
80.7406
125.717
125.649
125.489
125.242
124.916
124.509
124.019
123.441
122.77
122.002
121.129
120.146
119.047
117.826
116.477
114.994
113.374
111.613
109.71
107.666
105.481
103.161
100.713
98.1456
95.4713
92.7042
89.8602
86.9573
84.0134
81.0709
124.722
124.648
124.475
124.209
123.857
123.421
122.898
122.285
121.578
120.772
119.865
118.85
117.723
116.481
115.118
113.631
112.019
110.28
108.415
106.424
104.312
102.084
99.7467
97.3104
94.7859
92.1859
89.5245
86.8169
84.0784
81.3437
123.758
123.679
123.494
123.209
122.835
122.374
121.822
121.179
120.441
119.606
118.67
117.63
116.483
115.226
113.857
112.373
110.775
109.062
107.236
105.3
103.259
101.117
98.8834
96.5662
94.1757
91.7236
89.222
86.6841
84.1227
81.5668
122.831
122.748
122.552
122.253
121.859
121.375
120.8
120.131
119.368
118.508
117.55
116.491
115.33
114.064
112.694
111.218
109.638
107.954
106.169
104.287
102.313
100.252
98.113
95.9031
93.6321
91.3103
88.9485
86.5579
84.1494
81.7472
121.95
121.863
121.658
121.345
120.935
120.432
119.836
119.147
118.362
117.483
116.508
115.435
114.265
112.997
111.63
110.166
108.606
106.953
105.209
103.378
101.467
99.4811
97.4273
95.3135
93.1483
90.941
88.7009
86.4379
84.1614
81.8913
121.122
121.031
120.819
120.494
120.07
119.551
118.938
118.232
117.431
116.537
115.549
114.467
113.292
112.024
110.665
109.215
107.677
106.054
104.349
102.568
100.715
98.7969
96.8199
94.7914
92.7195
90.6121
88.4778
86.3249
84.1618
82.0051
120.355
120.262
120.042
119.708
119.272
118.74
118.113
117.392
116.579
115.673
114.676
113.589
112.413
111.148
109.798
108.363
106.848
105.254
103.587
101.851
100.052
98.1943
96.2855
94.3323
92.3416
90.321
88.2778
86.2195
84.1534
82.0935
119.658
119.562
119.336
118.993
118.547
118.004
117.366
116.635
115.811
114.897
113.895
112.805
111.63
110.371
109.031
107.612
106.118
104.553
102.921
101.226
99.4737
97.6702
95.8213
93.9334
92.013
90.0669
88.1016
86.124
84.1404
82.1625
119.039
118.94
118.709
118.358
117.903
117.351
116.705
115.965
115.134
114.214
113.208
112.118
110.945
109.693
108.363
106.96
105.487
103.947
102.346
100.688
98.9775
97.2208
95.4235
93.5915
91.7309
89.8478
87.9482
86.0382
84.1236
82.2142
118.507
118.405
118.169
117.811
117.349
116.789
116.136
115.39
114.554
113.631
112.623
111.533
110.364
109.119
107.8
106.411
104.957
103.44
101.866
100.239
98.5643
96.8474
95.0936
93.3085
91.4977
89.667
87.8219
85.968
84.1104
82.2577
118.072
117.967
117.723
117.357
116.888
116.323
115.664
114.913
114.073
113.148
112.139
111.051
109.886
108.648
107.338
105.963
104.524
103.027
101.475
99.8747
98.2295
96.545
94.8264
93.0791
91.3083
89.5195
87.7177
85.908
84.0954
82.2866
117.746
117.635
117.382
117.01
116.536
115.966
115.303
114.548
113.706
112.779
111.771
110.685
109.524
108.291
106.99
105.624
104.199
102.717
101.184
99.6042
97.9823
96.3232
94.6322
92.9144
91.1747
89.4183
87.6501
85.8749
84.0975
82.3239
117.544
117.409
117.139
116.761
116.285
115.713
115.047
114.29
113.447
112.52
111.513
110.429
109.271
108.043
106.748
105.39
103.974
102.504
100.983
99.4173
97.811
96.1692
94.4966
92.7983
91.0791
89.344
87.5977
85.8447
84.0895
82.337
117.526
117.327
117.029
116.644
116.165
115.59
114.921
114.163
113.318
112.392
111.385
110.303
109.148
107.923
106.633
105.281
103.871
102.408
100.896
99.3399
97.744
96.1133
94.4525
92.7665
91.0603
89.3384
87.6055
85.8661
84.1245
82.385
-50.6109
-30.4105
-11.0526
36.0305
28.7074
16.9192
51.6003
39.5743
28.4466
52.9883
42.5915
34.5806
57.3102
49.0433
42.3084
61.6872
54.7947
48.9185
64.9471
59.0773
54.0383
67.5303
62.5136
58.2113
69.7075
65.381
61.6769
71.5448
67.7702
64.5464
73.0893
69.7619
66.9271
74.3902
71.4297
68.9127
75.4881
72.8315
70.5762
76.4149
74.0125
71.975
77.1972
75.0091
73.1547
77.8567
75.8508
74.1512
78.4116
76.5614
74.9937
78.8771
77.1607
75.7057
79.2659
77.6648
76.3066
79.5893
78.0877
76.8126
79.8566
78.4408
77.2371
80.0765
78.7346
77.592
80.2556
78.977
77.8867
80.402
79.1773
78.1311
80.5181
79.3386
78.3296
80.6158
79.4736
78.4946
80.6862
79.5739
78.6196
80.7581
79.6686
78.7315
80.7915
79.7183
78.7952
80.8604
79.8013
78.8847
-2.2392
-2.0895
-0.65227
0.435203
0.498135
0.558636
0.611562
0.586685
0.575033
0.607868
0.598683
0.535733
0.481663
0.461703
0.449224
0.408167
0.344213
0.28992
0.270503
0.279201
0.28415
0.265253
0.22464
0.17454
0.128197
0.0942091
0.0700022
0.0443233
0.0171007
0.00468986
3.20496
0.127687
1.36801
1.02163
-0.126621
-0.0318338
0.489525
0.553753
0.525707
0.604011
0.589638
0.473708
0.39766
0.413461
0.453361
0.418903
0.331204
0.255524
0.240049
0.274781
0.302647
0.287477
0.237561
0.174637
0.118457
0.0825564
0.0652654
0.0474214
0.0200696
0.00534634
14.2214
5.79476
2.9445
0.7083
0.244564
1.20258
1.42765
0.445667
-0.02161
0.253576
0.597514
0.477923
0.362331
0.420535
0.503281
0.436495
0.289411
0.167391
0.158037
0.249843
0.336628
0.327878
0.260045
0.177488
0.107158
0.0680446
0.061273
0.0568234
0.0277396
0.00644353
23.8674
14.0154
8.17962
4.43635
2.584
1.86143
0.854457
0.167858
0.253044
1.36437
1.44089
0.38641
-0.0492569
0.04394
0.402737
0.503294
0.295496
0.107024
0.11592
0.309531
0.425525
0.382617
0.276582
0.164556
0.0744772
0.030044
0.0408686
0.0665778
0.039619
0.00730383
32.9931
23.2517
15.9443
10.6428
6.97798
4.48534
2.65856
1.59516
1.19895
1.27255
0.784505
0.209911
0.000474717
0.546427
1.16221
0.846631
0.222324
-0.172268
-0.244591
0.0796235
0.479814
0.469912
0.311191
0.163916
0.0550376
0.00913752
0.0505018
0.128955
0.0819519
0.00909993
40.9363
32.023
24.142
17.7114
12.7805
9.12122
6.43389
4.52797
3.22995
2.34568
1.5612
0.94481
0.612259
0.712181
0.765452
0.59509
0.159742
-0.216256
-0.160843
0.601877
0.946411
0.554296
0.282736
0.0964456
-0.0282456
-0.0878598
-0.042412
0.0975124
0.121299
0.00434811
47.4148
39.6178
31.8487
24.9621
19.3334
14.862
11.3284
8.56562
6.45457
4.86826
3.62779
2.63615
1.92867
1.52883
1.24922
0.942507
0.494751
0.124965
0.115508
0.466064
0.61118
0.515977
0.322897
0.140018
-0.00044405
-0.0660929
0.0273506
0.310482
0.330807
0.00404168
52.6921
45.9661
38.7133
31.8859
26.001
21.0495
16.9029
13.4719
10.687
8.4559
6.64882
5.17552
4.02712
3.1881
2.55073
1.97045
1.38666
0.928105
0.743523
0.794181
0.824623
0.708902
0.473948
0.247984
0.0850341
0.0137479
0.0699655
0.217121
0.300779
-0.0557484
56.9976
51.1836
44.602
38.1298
32.3107
27.1953
22.7203
18.8502
15.555
12.7806
10.4498
8.50047
6.90137
5.61783
4.57138
3.66652
2.8664
2.22515
1.80948
1.59085
1.41978
1.17156
0.859964
0.573592
0.360566
0.240194
0.221442
0.262179
0.22851
-0.292839
60.5111
55.4447
49.5432
43.5586
38.0035
32.9554
28.3856
24.2901
20.6702
17.5075
14.7643
12.401
10.3854
8.68232
7.23858
5.99555
4.92211
4.03022
3.34183
2.83128
2.406
1.98138
1.5533
1.16662
0.854596
0.629073
0.484429
0.370287
0.15129
-0.511762
63.3965
58.9372
53.6572
48.1884
42.9905
38.1464
33.6434
29.4932
25.7167
22.3193
19.2888
16.6049
14.2453
12.1846
10.3885
8.81955
7.45146
6.27803
5.29908
4.49112
3.797
3.16064
2.5656
2.02851
1.56794
1.18794
0.872599
0.568009
0.162625
-0.594917
65.7862
61.8221
57.0834
52.1033
47.2866
42.7117
38.3717
34.2838
30.4775
26.9715
23.7696
20.866
18.2503
15.9079
13.8185
11.9583
10.3075
8.85443
7.59016
6.49431
5.52979
4.65777
3.85838
3.13267
2.48675
1.91718
1.40291
0.894979
0.311683
-0.526745
67.7795
64.2232
59.947
55.4064
50.9578
46.6714
42.5412
38.5843
34.8323
31.3099
28.0296
24.9959
22.2075
19.6588
17.3396
15.2365
13.3358
11.6268
10.0984
8.73397
7.50816
6.39346
5.3711
4.43417
3.57985
2.79936
2.07099
1.35474
0.594647
-0.333183
69.4512
66.2343
62.3513
58.1968
54.0865
50.0823
46.1768
42.3846
38.7361
35.2576
31.9662
28.8717
25.9794
23.2903
20.8014
18.5065
16.3978
14.4671
12.705
11.0985
9.63004
8.2797
7.0313
5.87454
4.80154
3.80083
2.8525
1.92579
0.984125
-0.0530844
70.8589
67.9271
64.3788
60.5602
56.7532
53.0122
49.3282
45.7123
42.1921
38.7933
35.5346
32.4286
29.4844
26.7074
24.0995
21.6597
19.3847
17.2695
15.3074
13.4891
11.8021
10.232
8.76554
7.39165
6.10039
4.87958
3.71198
2.57457
1.44384
0.27197
72.0478
69.3567
66.0943
62.567
59.0286
55.5274
52.0523
48.6114
45.2288
41.9285
38.7289
35.6439
32.6846
29.8589
27.1721
24.6266
22.2224
19.9576
17.8283
15.8281
13.9486
12.1793
10.5095
8.92892
7.42733
5.993
4.61125
3.26468
1.9375
0.605586
73.0532
70.5665
67.549
64.2742
60.9723
57.6863
54.4039
51.1298
47.8848
44.6907
41.5648
38.5212
35.5716
32.7254
29.9899
27.3697
24.8673
22.4832
20.2159
18.0617
16.015
14.0683
12.2131
10.4405
8.74096
7.10357
5.51574
3.96356
2.43494
0.921636
73.9038
71.5912
68.784
65.7281
62.6336
59.5393
56.4317
53.3128
50.2002
47.1133
44.068
41.0776
38.154
35.307
32.5449
29.874
27.2983
24.8203
22.4401
20.1564
17.9656
15.8626
13.8409
11.8928
10.0098
8.18197
6.39808
4.64604
2.91476
1.20547
74.6229
72.4588
69.8324
66.9663
64.0533
61.1286
58.178
55.2012
52.213
49.2301
46.2671
43.3361
40.4484
37.6141
34.8417
32.1383
29.5091
26.9577
24.4859
22.0938
19.7797
17.5401
15.3701
13.2633
11.2121
9.20741
7.23887
5.295
3.36409
1.45206
75.2298
73.1924
70.7216
68.0197
65.265
62.4897
59.679
56.8308
53.9572
51.0728
48.1904
45.321
42.475
39.6622
36.891
34.1688
31.5016
28.8937
26.348
23.8657
21.4465
19.0882
16.7871
14.5379
12.3338
10.1664
8.02571
5.90016
3.77677
1.66289
75.7404
73.8111
71.474
68.9142
66.2971
63.6525
60.9655
58.2325
55.463
52.6699
49.8642
47.0558
44.2541
41.4681
38.7061
35.9754
33.2822
30.6314
28.0266
25.4697
22.9614
20.5006
18.0844
15.7084
13.3665
11.0507
8.75118
6.45596
4.15071
1.84231
76.1687
74.3314
72.1088
69.6712
67.1732
64.6425
62.064
59.4329
56.7569
54.0469
51.3126
48.5626
45.8053
43.0489
40.3013
37.5695
34.8596
32.1769
29.5252
26.9071
24.3238
21.775
19.2585
16.7706
14.3056
11.8559
9.41152
6.96019
4.48637
1.99549
76.5257
74.7662
72.6412
70.3084
67.9127
65.4803
62.9962
60.4544
57.8611
55.2257
52.5564
49.8608
47.1463
44.4203
41.69
38.9621
36.2425
33.5365
30.848
28.18
25.5341
22.9104
20.3074
17.7217
15.1479
12.5787
10.0041
7.41132
4.78413
2.126
76.8222
75.1282
73.0859
70.842
68.5334
66.185
63.7819
61.3174
58.7962
56.2265
53.6153
50.9691
48.2945
45.598
42.8862
40.1653
37.4411
34.7184
32.0014
29.2932
26.5956
23.9089
21.232
18.5618
15.8933
13.219
10.5291
7.81046
5.04629
2.23772
77.0646
75.4249
73.4515
71.2822
69.0468
66.7691
64.4345
62.0357
59.5762
57.0631
54.5025
51.9
49.2613
46.5922
43.8987
41.1865
38.4609
35.7268
32.988
30.2477
27.5078
24.7689
22.0299
19.2879
16.5381
13.7732
10.9832
8.15473
5.27087
2.33032
77.2644
75.6689
73.7523
71.6442
69.4689
67.2496
64.9717
62.6275
60.2196
57.7541
55.2364
52.6713
50.0638
47.419
44.7425
42.0393
39.3146
36.5727
33.8176
31.0522
28.2784
25.497
22.7068
19.9053
17.0875
14.2462
11.3714
8.44954
5.46354
2.40897
77.4187
75.858
73.9861
71.9267
69.7992
67.6263
65.3937
63.0932
60.7267
58.2997
55.8168
53.2823
50.7006
48.0763
45.4143
42.7195
39.9965
37.2496
34.4824
31.6978
28.8976
26.0826
23.2517
20.4024
17.5297
14.6264
11.6823
8.68403
5.61439
2.46668
77.5495
76.0145
74.1767
72.1541
70.0628
67.925
65.7267
63.4593
61.1245
58.7269
56.2707
53.7598
51.198
48.5897
45.9394
43.2515
40.5304
37.7802
35.0042
32.2054
29.3855
26.5451
23.6832
20.7973
17.8824
14.9312
11.9334
8.87541
5.73982
2.51608
77.6299
76.111
74.2956
72.298
70.2311
68.1168
65.9414
63.6963
61.3827
59.0048
56.5666
54.0716
51.5234
48.926
46.2837
43.6006
40.881
38.1288
35.3472
32.5391
29.706
26.8487
23.9661
21.0554
18.1119
15.128
12.0933
8.99377
5.81202
2.53581
77.7186
76.2009
74.3977
72.4151
70.3619
68.2602
66.097
63.8636
61.561
59.1932
56.7641
54.2769
51.7351
49.1427
46.5037
43.8222
41.1024
38.348
35.5623
32.748
29.9069
27.0395
24.1447
21.22
18.2603
15.258
12.2024
9.07858
5.86656
2.54237
)
;

boundaryField
{
    inlet
    {
        type            zeroGradient;
    }
    outlet
    {
        type            fixedValue;
        value           uniform 0;
    }
    flap
    {
        type            zeroGradient;
    }
    upperWall
    {
        type            zeroGradient;
    }
    lowerWall
    {
        type            zeroGradient;
    }
    frontAndBack
    {
        type            empty;
    }
}


// ************************************************************************* //
