/*--------------------------------*- C++ -*----------------------------------*\
  =========                 |
  \\      /  F ield         | OpenFOAM: The Open Source CFD Toolbox
   \\    /   O peration     | Website:  https://openfoam.org
    \\  /    A nd           | Version:  dev
     \\/     M anipulation  |
\*---------------------------------------------------------------------------*/
FoamFile
{
    version     2.0;
    format      ascii;
    class       surfaceScalarField;
    location    "3.9";
    object      phi;
}
// * * * * * * * * * * * * * * * * * * * * * * * * * * * * * * * * * * * * * //

dimensions      [0 3 -1 0 0 0 0];

internalField   nonuniform List<scalar> 
5457
(
0.198418
0.00158236
0.19648
0.00193733
0.194192
0.00228803
0.191509
0.0026835
0.188428
0.0030811
0.184951
0.00347665
0.181073
0.00387844
0.176779
0.00429386
0.172051
0.00472805
0.166866
0.00518502
0.161197
0.00566828
0.155017
0.00618078
0.148292
0.00672469
0.140991
0.00730104
0.133082
0.00790918
0.124536
0.00854612
0.11533
0.00920555
0.105453
0.00987685
0.0949094
0.0105438
0.0837261
0.0111833
0.0719617
0.0117644
0.0597135
0.0122482
0.0471248
0.0125887
0.0343845
0.0127403
0.0216893
0.0126952
0.00903897
0.0126503
-0.00291534
0.0119543
-0.00847187
0.00555652
-0.00804293
-0.000428937
-0.00804293
0.199928
0.00165418
0.199176
0.00268973
0.197965
0.00349891
0.196332
0.00431661
0.194272
0.00514106
0.191782
0.00596662
0.188855
0.0068053
0.185478
0.00767058
0.181634
0.00857279
0.177298
0.00952023
0.172446
0.0105202
0.167048
0.0115789
0.161072
0.0127012
0.154483
0.0138897
0.147248
0.0151439
0.139336
0.0164589
0.130718
0.0178231
0.121378
0.0192167
0.111314
0.0206083
0.100544
0.0219528
0.0891199
0.0231887
0.0771323
0.0242357
0.0647264
0.0249946
0.0521188
0.0253479
0.0396582
0.0251558
0.0281077
0.0242009
0.0185969
0.0214651
0.0087989
0.0153545
0.00118434
0.00718563
-0.0068586
0.199781
0.0018736
0.199087
0.00338354
0.197946
0.00463979
0.196409
0.00585316
0.194483
0.00706712
0.192164
0.00828557
0.189447
0.00952261
0.186322
0.0107959
0.182774
0.0121205
0.178785
0.0135089
0.174333
0.0149721
0.169392
0.0165197
0.163934
0.0181595
0.157927
0.0198966
0.151339
0.0217319
0.144138
0.0236603
0.136293
0.0256683
0.127779
0.0277303
0.118583
0.0298049
0.108705
0.0318305
0.0981732
0.0337204
0.087051
0.0353579
0.0754543
0.0365914
0.0635771
0.0372251
0.051735
0.0369979
0.0403993
0.0355365
0.0297408
0.0321237
0.0191673
0.025928
0.00959839
0.0167545
0.00273979
0.199703
0.00217052
0.199008
0.00407882
0.197887
0.00576027
0.196376
0.00736401
0.194488
0.00895516
0.192223
0.0105515
0.189575
0.0121702
0.186539
0.0138318
0.183105
0.0155548
0.179258
0.0173553
0.174984
0.0192469
0.170261
0.0212421
0.16507
0.023351
0.159386
0.0255805
0.153184
0.0279333
0.14644
0.0304052
0.139125
0.0329824
0.131218
0.0356373
0.1227
0.0383238
0.113559
0.0409711
0.103802
0.0434771
0.0934597
0.0457004
0.0825985
0.0474526
0.0713356
0.048488
0.0598435
0.0484901
0.0483191
0.0470609
0.0368127
0.04363
0.0251891
0.0375516
0.0133362
0.0286074
0.0160759
0.199667
0.00250309
0.198964
0.00478205
0.197863
0.00686154
0.196381
0.00884564
0.194533
0.0108039
0.192318
0.012766
0.189734
0.0147539
0.186776
0.0167903
0.183434
0.0188964
0.179699
0.0210908
0.175556
0.0233897
0.170991
0.025807
0.165988
0.0283545
0.160528
0.0310405
0.154592
0.0338686
0.148162
0.0368355
0.141216
0.0399279
0.133735
0.0431185
0.125699
0.0463604
0.11709
0.0495802
0.107896
0.0526703
0.0981174
0.0554792
0.0877675
0.0578025
0.0768814
0.0593741
0.0655112
0.0598603
0.0537102
0.058862
0.0414557
0.0558845
0.0285889
0.0504184
0.014853
0.0423434
0.0309289
0.199653
0.00285028
0.198949
0.00548608
0.197871
0.00793945
0.196427
0.0102898
0.194627
0.0126038
0.192473
0.0149194
0.189964
0.0172634
0.187093
0.019661
0.183854
0.0221356
0.180237
0.0247079
0.17623
0.027396
0.171822
0.0302155
0.166997
0.0331791
0.161742
0.0362962
0.156039
0.0395712
0.149873
0.0430018
0.143225
0.0465758
0.136076
0.0502676
0.128404
0.0540324
0.120184
0.0577996
0.11139
0.0614645
0.101992
0.0648779
0.0919575
0.0678366
0.0812567
0.0700749
0.0698567
0.0712602
0.0577191
0.0709996
0.0447624
0.0688411
0.0308504
0.0643305
0.0158738
0.05732
0.0468027
0.19965
0.00320021
0.198954
0.00618204
0.197905
0.00898904
0.196505
0.0116894
0.194763
0.014346
0.192681
0.0170014
0.190257
0.019687
0.187488
0.0224305
0.184366
0.0252575
0.180883
0.0281907
0.177029
0.0312498
0.172793
0.0344519
0.168161
0.037811
0.163119
0.0413376
0.157653
0.0450372
0.151746
0.0489091
0.145379
0.0529431
0.13853
0.0571168
0.131172
0.0613903
0.123271
0.0657002
0.114785
0.0699509
0.105657
0.0740055
0.0958195
0.0776743
0.085189
0.0807055
0.0736709
0.0827783
0.0611638
0.0835066
0.0475572
0.0824478
0.03276
0.0791276
0.0167836
0.0732964
0.0635863
0.199655
0.00354555
0.198975
0.00686214
0.197959
0.0100048
0.19661
0.0130381
0.194934
0.016022
0.192934
0.0190019
0.190608
0.022013
0.187953
0.0250856
0.184963
0.0282474
0.181631
0.0315227
0.177947
0.0349331
0.173902
0.0384971
0.169483
0.0422303
0.164676
0.0461448
0.159465
0.0502479
0.153833
0.0545411
0.147758
0.059018
0.141214
0.0636612
0.134166
0.0684383
0.126569
0.0732966
0.118364
0.0781558
0.109472
0.082898
0.0997894
0.0873569
0.0891903
0.0913046
0.0775281
0.0944405
0.0646501
0.0963846
0.0504198
0.0966781
0.0347699
0.0947775
0.0177907
0.0902756
0.081377
0.199664
0.00388137
0.199006
0.00751993
0.19803
0.010981
0.196739
0.0143295
0.195137
0.017624
0.193227
0.0209117
0.191009
0.0242308
0.188481
0.0276142
0.185637
0.0310913
0.182471
0.0346883
0.178976
0.0384284
0.175141
0.0423318
0.170956
0.046416
0.166405
0.0506949
0.161475
0.0551787
0.156143
0.0598722
0.150387
0.064774
0.144175
0.0698737
0.137464
0.0751494
0.130198
0.0805627
0.1223
0.0860531
0.11367
0.0915288
0.104171
0.096855
0.0936373
0.101839
0.0818681
0.10621
0.0686527
0.1096
0.0538049
0.111526
0.0372388
0.111344
0.0190846
0.10843
0.100462
0.199677
0.00420414
0.199047
0.00815016
0.198116
0.0119123
0.196887
0.0155578
0.195367
0.0191448
0.193556
0.0227222
0.191456
0.0263306
0.189065
0.0300049
0.18638
0.0337764
0.183396
0.037673
0.180105
0.0417195
0.176499
0.0459378
0.172567
0.0503475
0.168297
0.0549648
0.163673
0.0598032
0.158673
0.0648721
0.15327
0.0701762
0.14743
0.0757142
0.141103
0.0814766
0.134222
0.087443
0.126699
0.0935769
0.118408
0.0998192
0.109187
0.106076
0.0988233
0.112203
0.0870566
0.117976
0.073594
0.123063
0.0581523
0.126968
0.040555
0.128941
0.0209031
0.128082
0.121365
0.199693
0.00451121
0.199095
0.00874853
0.198213
0.0127939
0.197053
0.0167174
0.19562
0.0205782
0.193916
0.024426
0.191943
0.0283036
0.1897
0.0322477
0.187185
0.0362914
0.184395
0.0404638
0.181322
0.0447915
0.177962
0.0492982
0.174304
0.0540053
0.170337
0.0589319
0.166045
0.064095
0.161408
0.0695092
0.156398
0.0751862
0.150978
0.0811349
0.145094
0.0873601
0.138676
0.0938616
0.131621
0.100631
0.123793
0.107648
0.115
0.114869
0.104987
0.122215
0.093424
0.129539
0.0799034
0.136583
0.0639732
0.142898
0.0452392
0.147675
0.0236143
0.149707
0.144979
0.199711
0.00480052
0.199148
0.00931154
0.19832
0.0136215
0.197234
0.0178037
0.195894
0.0219183
0.194303
0.0260164
0.192465
0.030142
0.190379
0.0343339
0.188044
0.0386261
0.185459
0.0430493
0.182619
0.0476315
0.179519
0.0523978
0.176152
0.0573718
0.172509
0.0625753
0.168575
0.0680288
0.164332
0.0737521
0.159754
0.0797643
0.154804
0.0860848
0.149431
0.0927334
0.143562
0.0997309
0.137094
0.107099
0.129882
0.11486
0.12172
0.123031
0.11232
0.131615
0.101279
0.14058
0.0880523
0.14981
0.0719303
0.15902
0.0520928
0.167512
0.0278898
0.17391
0.172869
0.19973
0.00507045
0.199205
0.00983632
0.198435
0.0143915
0.197427
0.0188124
0.196185
0.0231604
0.194713
0.0274876
0.193016
0.0318394
0.191094
0.0362557
0.188948
0.0407719
0.186578
0.0454197
0.183981
0.050228
0.181156
0.0552236
0.178096
0.0604316
0.174795
0.0658763
0.171242
0.0715816
0.167422
0.0775719
0.163313
0.0838732
0.158883
0.0905146
0.154087
0.0975296
0.148859
0.104959
0.143103
0.112855
0.136683
0.12128
0.129397
0.130317
0.120948
0.140064
0.11089
0.150637
0.0985522
0.162148
0.0829114
0.174661
0.0624458
0.187978
0.035132
0.201223
0.208001
0.199751
0.00531975
0.199266
0.0103206
0.198557
0.0151009
0.197629
0.0197399
0.19649
0.0243002
0.195142
0.0288349
0.193591
0.0333903
0.19184
0.0380072
0.18989
0.0427219
0.187743
0.0475669
0.185399
0.052572
0.182857
0.0577649
0.180117
0.0631721
0.177174
0.0688197
0.174021
0.0747342
0.170649
0.0809438
0.167042
0.0874801
0.163177
0.0943797
0.159019
0.101688
0.154517
0.109461
0.149596
0.117776
0.144145
0.126731
0.137997
0.136465
0.130892
0.14717
0.122415
0.159114
0.111872
0.172692
0.0980317
0.188501
0.0785532
0.207457
0.0486776
0.231099
0.256678
0.199772
0.00554745
0.19933
0.0107625
0.198684
0.0157474
0.19784
0.0205835
0.196806
0.0253347
0.195586
0.0300546
0.194186
0.0347904
0.19261
0.0395835
0.190861
0.0444707
0.188943
0.049485
0.186858
0.0546565
0.18461
0.0600137
0.182198
0.0655836
0.179624
0.0713936
0.176887
0.0774718
0.173982
0.0838487
0.170902
0.0905594
0.167637
0.0976454
0.164165
0.105159
0.16046
0.113167
0.156476
0.12176
0.152148
0.131059
0.147376
0.141238
0.142001
0.152544
0.135761
0.165354
0.128184
0.180268
0.118331
0.198354
0.103949
0.221839
0.0777204
0.257328
0.334399
0.00412149
-0.00412149
0.0080371
-0.00391561
0.0113145
-0.00327739
0.0139736
-0.00265915
0.016121
-0.0021474
0.0178606
-0.00173953
0.019281
-0.00142044
0.0204571
-0.00117611
0.0214504
-0.000993275
0.0223097
-0.000859279
0.023072
-0.000762335
0.0237633
-0.000691242
0.0243984
-0.000635096
0.0249821
-0.000583709
0.025511
-0.000528978
0.0259777
-0.000466657
0.0263746
-0.000396904
0.0266963
-0.000321727
0.026936
-0.000239633
0.0270794
-0.000143427
0.027111
-3.16526e-05
0.0270126
9.8444e-05
0.0268058
0.000206758
0.0265445
0.000261298
0.0262951
0.00024942
0.0260967
0.000198441
0.025962
0.000134665
0.0259017
6.03554e-05
0.0259288
-2.71158e-05
-0.000121728
0.00366063
-0.00778213
0.00721819
-0.00747316
0.0102561
-0.0063153
0.0127856
-0.00518865
0.014903
-0.00426475
0.0166968
-0.00353341
0.0182398
-0.00296343
0.0195908
-0.00252713
0.0207972
-0.00219963
0.0218963
-0.00195837
0.0229169
-0.0017829
0.0238797
-0.00165409
0.024798
-0.00155342
0.0256777
-0.00146342
0.0265185
-0.0013697
0.0273161
-0.0012643
0.0280668
-0.00114764
0.0287707
-0.00102559
0.0294307
-0.000899605
0.0300447
-0.000757437
0.0305915
-0.00057846
0.0310501
-0.000360117
0.0314138
-0.000157034
0.0317162
-4.10552e-05
0.0320064
-4.07618e-05
0.0323118
-0.000107021
0.0326407
-0.000194196
0.0329926
-0.000291508
0.0333526
-0.000387116
-0.000411062
0.00296777
-0.0107499
0.00576683
-0.0102722
0.00811503
-0.00866351
0.0100581
-0.0071317
0.0116864
-0.0058931
0.0130705
-0.0049175
0.0142661
-0.00415904
0.0153168
-0.0035778
0.016257
-0.00313978
0.017114
-0.00281547
0.0179097
-0.00257857
0.0186601
-0.00240446
0.0193758
-0.00226914
0.0200618
-0.00214945
0.0207177
-0.00202554
0.0213388
-0.00188546
0.0219206
-0.00172946
0.0224636
-0.00156858
0.0229755
-0.00141142
0.0234639
-0.00124584
0.023924
-0.00103856
0.0243384
-0.00077461
0.0246875
-0.000506055
0.0249715
-0.000325105
0.0252212
-0.000290451
0.0254477
-0.000333496
0.0256459
-0.000392466
0.025822
-0.000467603
0.0259945
-0.000559573
-0.000563941
0.00222217
-0.0129721
0.00413552
-0.0121856
0.0056539
-0.0101819
0.00687707
-0.00835486
0.00788689
-0.00690293
0.00873184
-0.00576246
0.00944846
-0.00487566
0.0100639
-0.0041932
0.0105994
-0.00367535
0.0110727
-0.0032887
0.0114978
-0.00300373
0.0118863
-0.00279292
0.0122466
-0.00262944
0.0125841
-0.00248697
0.0129002
-0.00234159
0.013191
-0.00217626
0.0134488
-0.00198729
0.0136677
-0.00178748
0.0138533
-0.00159698
0.0140254
-0.00141799
0.0141984
-0.00121152
0.0143498
-0.000925995
0.0144032
-0.000559479
0.0142931
-0.000215059
0.0140392
-3.65252e-05
0.0137121
-6.38794e-06
0.0133392
-1.95501e-05
0.0129396
-6.80213e-05
0.0125673
-0.000187232
-0.000431561
0.00137104
-0.0143431
0.00230651
-0.013121
0.00292639
-0.0108018
0.00334699
-0.00877546
0.00364826
-0.00720419
0.00385396
-0.00596816
0.00398385
-0.00500555
0.00405254
-0.00426189
0.00407211
-0.00369492
0.00405238
-0.00326897
0.00400167
-0.00295302
0.0039274
-0.00271864
0.00383614
-0.00253818
0.00373393
-0.00238477
0.0036259
-0.00223355
0.00351376
-0.00206413
0.00339106
-0.00186459
0.00323741
-0.00163383
0.00302014
-0.00137971
0.00271347
-0.00111132
0.002322
-0.000820051
0.00188572
-0.000489713
0.00148408
-0.00015784
0.00118292
8.61023e-05
0.00097748
0.000168914
0.000840833
0.000130259
0.000754946
6.63364e-05
0.00067675
1.01744e-05
0.000581954
-9.24355e-05
-0.000345361
0.000392489
-0.0147356
0.000291565
-0.0130201
-6.29639e-05
-0.0104472
-0.000456581
-0.00838185
-0.000929579
-0.0067312
-0.0014423
-0.00545544
-0.00197832
-0.00446953
-0.00252406
-0.00371615
-0.0030711
-0.00314788
-0.0036138
-0.00272627
-0.00414778
-0.00241904
-0.00466904
-0.00219739
-0.00517389
-0.00203333
-0.00565857
-0.00190009
-0.0061179
-0.00177422
-0.00654451
-0.00163751
-0.00693031
-0.00147879
-0.0072702
-0.00129395
-0.00756675
-0.00108316
-0.00783062
-0.000847456
-0.0080653
-0.000585372
-0.00825785
-0.000297161
-0.0083891
-2.65933e-05
-0.00848595
0.000182956
-0.00858554
0.000268498
-0.00870579
0.000250517
-0.00883368
0.000194222
-0.00894997
0.000126467
-0.00903167
-1.07413e-05
-0.000250037
-0.000673004
-0.0140626
-0.00183879
-0.0118543
-0.00311468
-0.00917134
-0.00442269
-0.00707384
-0.00570143
-0.00545246
-0.00692468
-0.00423219
-0.00807071
-0.0033235
-0.00912922
-0.00265763
-0.0100951
-0.00218199
-0.0109684
-0.00185298
-0.0117538
-0.0016336
-0.012459
-0.00149224
-0.0130925
-0.00139982
-0.0136623
-0.00133026
-0.0141736
-0.00126291
-0.0146277
-0.00118345
-0.0150229
-0.00108358
-0.0153583
-0.000958614
-0.0156371
-0.000804313
-0.0158682
-0.000616396
-0.01606
-0.000393567
-0.0162158
-0.000141361
-0.0163353
9.29209e-05
-0.0164269
0.000274611
-0.0165263
0.000367863
-0.0166488
0.00037299
-0.0167834
0.00032881
-0.0169061
0.000249162
-0.0170061
8.92992e-05
-0.000115128
-0.00182042
-0.0122422
-0.00404509
-0.00962966
-0.00626995
-0.00694649
-0.008402
-0.00494178
-0.0103642
-0.00349022
-0.0121236
-0.0024728
-0.0136707
-0.00177647
-0.0150167
-0.00131156
-0.0161829
-0.00101584
-0.0171932
-0.000842614
-0.0180717
-0.000755161
-0.018839
-0.000724953
-0.0195127
-0.000726045
-0.0201083
-0.00073467
-0.020637
-0.000734266
-0.0211048
-0.000715581
-0.0215135
-0.000674963
-0.0218625
-0.000609586
-0.0221537
-0.000513055
-0.0223937
-0.000376409
-0.0225918
-0.000195504
-0.0227501
1.69881e-05
-0.0228817
0.000224483
-0.0229974
0.000390335
-0.0231141
0.000484495
-0.0232437
0.000502607
-0.0233825
0.000467662
-0.0235174
0.000384063
-0.0236548
0.000226688
5.92802e-05
-0.00309007
-0.0091521
-0.00642834
-0.00629139
-0.00956002
-0.00381481
-0.0123838
-0.00211801
-0.0148463
-0.00102773
-0.0169572
-0.000361905
-0.0187429
9.28886e-06
-0.0202258
0.000171351
-0.0214525
0.000210757
-0.0224809
0.000185789
-0.0233613
0.000125327
-0.0241309
4.45851e-05
-0.024811
-4.59041e-05
-0.0254144
-0.000131312
-0.0259513
-0.000197295
-0.02643
-0.000236915
-0.0268524
-0.000252628
-0.0272164
-0.00024558
-0.0275217
-0.000207693
-0.0277741
-0.000124034
-0.027983
1.33601e-05
-0.0281568
0.000190836
-0.0283104
0.000378105
-0.028456
0.000535911
-0.028601
0.000629476
-0.0287514
0.000653
-0.0289064
0.000622685
-0.0290653
0.000542992
-0.0292441
0.000405488
0.00027031
-0.0046567
-0.00449541
-0.00953199
-0.0014161
-0.0137494
0.000402647
-0.0171796
0.00131214
-0.0199013
0.00169395
-0.022047
0.0017838
-0.0237499
0.0017122
-0.0251314
0.00155289
-0.0262771
0.00135642
-0.0272405
0.00114921
-0.028062
0.000946847
-0.0287704
0.00075299
-0.029389
0.000572611
-0.0299388
0.000418564
-0.0304371
0.000300994
-0.030892
0.000218019
-0.0313027
0.000157988
-0.0316623
0.000114075
-0.0319665
9.64783e-05
-0.0322189
0.000128331
-0.0324318
0.000226335
-0.0326239
0.000382896
-0.0328089
0.00056315
-0.0329911
0.000718113
-0.033172
0.000810317
-0.0333514
0.000832468
-0.0335292
0.000800402
-0.0337105
0.000724295
-0.0339116
0.000606612
0.000501225
-0.0065673
0.00207189
-0.012297
0.0043136
-0.0167733
0.00487898
-0.0202823
0.00482107
-0.0230739
0.0044856
-0.0253016
0.00401148
-0.0270905
0.00350114
-0.0285406
0.00300299
-0.029727
0.00254282
-0.0307169
0.00213906
-0.0315634
0.00179338
-0.0322998
0.00148935
-0.0329438
0.00121664
-0.0335108
0.000985524
-0.0340196
0.000809816
-0.034485
0.000683396
-0.0349079
0.000580946
-0.0352781
0.00048429
-0.0355878
0.000406161
-0.0358442
0.000384726
-0.0360685
0.000450618
-0.0362829
0.000597319
-0.0364999
0.000780161
-0.0367204
0.000938609
-0.036938
0.00102793
-0.0371456
0.00104002
-0.037342
0.000996859
-0.0375381
0.000920335
-0.0377531
0.000821666
0.000745423
-0.00775723
0.00982913
-0.0142019
0.0107582
-0.0192205
0.00989764
-0.0230696
0.00867015
-0.0260096
0.00742558
-0.0282751
0.00627702
-0.0300548
0.00528081
-0.0314797
0.0044279
-0.0326345
0.0036976
-0.0335934
0.00309801
-0.0344211
0.00262108
-0.0351518
0.00222004
-0.0357939
0.00185876
-0.0363577
0.00154931
-0.0368676
0.00131969
-0.0373459
0.00116167
-0.0377924
0.00102751
-0.0381863
0.000878194
-0.0385096
0.000729423
-0.0387696
0.000644693
-0.0389972
0.000678295
-0.0392253
0.000825346
-0.0394694
0.0010243
-0.0397257
0.00119489
-0.0399782
0.00128041
-0.0402114
0.00127322
-0.0404231
0.00120859
-0.0406295
0.00112677
-0.0408544
0.00104653
0.000998578
-0.00928786
0.019117
-0.0169301
0.0184004
-0.0223537
0.0153213
-0.0262057
0.0125221
-0.0290371
0.010257
-0.0311455
0.00838548
-0.0327714
0.00690667
-0.0340747
0.0057312
-0.0351248
0.00474774
-0.0359924
0.00396555
-0.0367608
0.00338952
-0.0374664
0.00292558
-0.0380938
0.00248618
-0.0386374
0.00209295
-0.0391309
0.00181319
-0.0396127
0.00164347
-0.0400823
0.00149707
-0.0405002
0.00129607
-0.0408294
0.00105869
-0.0410769
0.000892196
-0.0412914
0.000892747
-0.0415228
0.00105676
-0.0417913
0.00129276
-0.0420852
0.00148879
-0.0423755
0.00157074
-0.0426353
0.00153299
-0.0428596
0.00143297
-0.0430719
0.00133898
-0.0433022
0.00127686
0.00125679
-0.0121127
0.0312297
-0.0212604
0.0275481
-0.0265962
0.0206571
-0.0298709
0.0157968
-0.0322733
0.0126594
-0.0339868
0.0100989
-0.0352772
0.00819713
-0.0363617
0.00681562
-0.0372457
0.00563176
-0.0379583
0.00467817
-0.0386252
0.00405643
-0.0392971
0.00359746
-0.0399059
0.00309499
-0.0404083
0.00259537
-0.0408579
0.00226276
-0.0413293
0.00211489
-0.0418251
0.00199285
-0.0422734
0.00174438
-0.0426023
0.00138759
-0.0428159
0.00110582
-0.0429947
0.00107152
-0.0432182
0.00128032
-0.0435113
0.00158585
-0.0438491
0.00182654
-0.0441836
0.00190532
-0.0444719
0.00182121
-0.0447041
0.00166525
-0.0449146
0.00154945
-0.0451454
0.00150761
0.00151586
-0.0170984
0.048328
-0.0281105
0.0385602
-0.0326146
0.0251612
-0.0340939
0.0172761
-0.0357276
0.0142931
-0.0367696
0.011141
-0.0374858
0.00891336
-0.0383054
0.00763519
-0.0390359
0.00636231
-0.0395198
0.00516203
-0.0400156
0.00455225
-0.0406553
0.00423718
-0.0412574
0.00369706
-0.0416944
0.00303232
-0.0420582
0.00262655
-0.0425043
0.00256101
-0.0430448
0.00253335
-0.0435472
0.00224685
-0.0438757
0.00171608
-0.0440246
0.00125468
-0.0441348
0.00118169
-0.0443372
0.00148272
-0.0446592
0.00190786
-0.045052
0.0022194
-0.045441
0.0022943
-0.0457606
0.00214075
-0.045993
0.00189768
-0.0461896
0.0017461
-0.0464155
0.00173344
0.00177247
0.207447
0.00576022
0.207034
0.0111751
0.206432
0.01635
0.205647
0.021368
0.204688
0.026294
0.20356
0.0311821
0.202271
0.03608
0.200825
0.0410293
0.199229
0.0460671
0.197487
0.0512264
0.195606
0.0565374
0.193591
0.0620286
0.191448
0.0677272
0.189181
0.0736606
0.186795
0.0798573
0.184295
0.0863488
0.181684
0.0931707
0.178963
0.100366
0.176133
0.107989
0.173191
0.116109
0.170135
0.124816
0.166959
0.134235
0.163658
0.144538
0.160235
0.155968
0.156712
0.168877
0.153185
0.183795
0.15002
0.201518
0.148899
0.222959
0.160631
0.245596
0.25872
0.23631
0.21249
0.00595266
0.212118
0.011548
0.211574
0.0168936
0.210868
0.022074
0.210007
0.0271545
0.209
0.0321897
0.207853
0.0372272
0.206573
0.0423086
0.20517
0.0474708
0.203649
0.0527465
0.202021
0.0581656
0.200294
0.0637556
0.198478
0.0695433
0.196583
0.0755553
0.194622
0.0818191
0.192606
0.0883646
0.190551
0.0952261
0.188473
0.102444
0.186395
0.110067
0.184345
0.118159
0.182363
0.126798
0.18051
0.136088
0.178886
0.146162
0.177662
0.157191
0.177161
0.169378
0.178038
0.182919
0.18171
0.197846
0.190784
0.213885
0.20627
0.23011
0.245591
0.219399
0.217658
0.00612261
0.217329
0.011877
0.21685
0.0173723
0.21623
0.0226937
0.215478
0.0279069
0.214601
0.0330664
0.213609
0.0382195
0.21251
0.0434074
0.211314
0.0486663
0.210033
0.0540283
0.208676
0.0595219
0.207258
0.0651739
0.205792
0.0710092
0.204295
0.0770525
0.202785
0.0833291
0.201284
0.0898656
0.199818
0.0966917
0.19842
0.103842
0.197133
0.111355
0.196011
0.119281
0.195133
0.127676
0.194612
0.136608
0.194619
0.146155
0.195418
0.156393
0.197418
0.167378
0.201231
0.179106
0.207626
0.191451
0.217263
0.204248
0.229859
0.217515
0.228673
0.246777
0.222951
0.00626808
0.22267
0.0121583
0.222262
0.0177805
0.221735
0.0232201
0.2211
0.0285426
0.220364
0.0338021
0.219538
0.0390453
0.218633
0.0443126
0.21766
0.0496392
0.216633
0.0550558
0.215565
0.0605896
0.214474
0.0662653
0.213377
0.0721055
0.212297
0.0781322
0.21126
0.0843667
0.210294
0.090831
0.209438
0.0975481
0.208736
0.104543
0.208248
0.111844
0.208049
0.119479
0.208243
0.127482
0.208969
0.135882
0.210421
0.144703
0.212863
0.153951
0.216641
0.163601
0.222173
0.173574
0.229908
0.183715
0.240417
0.193739
0.254615
0.203317
0.210194
0.273094
0.228374
0.00638722
0.228144
0.0123884
0.227812
0.0181131
0.227385
0.0236465
0.226874
0.0290535
0.226289
0.0343874
0.22564
0.039694
0.22494
0.0450125
0.224203
0.0503768
0.223443
0.0558157
0.222678
0.0613544
0.221928
0.0670152
0.221216
0.0728179
0.220567
0.0787804
0.220015
0.0849196
0.219594
0.0912512
0.219352
0.0977907
0.219342
0.104553
0.219636
0.11155
0.22032
0.118795
0.221507
0.126295
0.223343
0.134046
0.226012
0.142034
0.229745
0.150218
0.234821
0.158524
0.241569
0.166826
0.250366
0.174918
0.261659
0.182447
0.275919
0.189057
0.193664
0.292448
0.233929
0.00647835
0.233754
0.0125639
0.233502
0.0183654
0.233181
0.0239669
0.232802
0.0294324
0.232375
0.0348142
0.231913
0.0401565
0.231428
0.0454973
0.230936
0.0508685
0.230455
0.0562971
0.230004
0.0618057
0.229605
0.0674136
0.229286
0.0731371
0.229077
0.07899
0.229012
0.0849838
0.229136
0.0911278
0.229498
0.0974289
0.230159
0.103891
0.231194
0.110515
0.232695
0.117295
0.234773
0.124217
0.237563
0.131255
0.24123
0.138367
0.245966
0.145482
0.251991
0.1525
0.259546
0.15927
0.268873
0.16559
0.280151
0.171169
0.293473
0.175735
0.178776
0.308361
0.23962
0.00653996
0.239502
0.0126821
0.239334
0.0185333
0.239124
0.0241761
0.238884
0.0296733
0.238622
0.0350754
0.238353
0.0404254
0.238092
0.0457591
0.237854
0.0511066
0.237658
0.0564923
0.237528
0.0619362
0.237487
0.0674545
0.237564
0.0730596
0.237793
0.0787609
0.238213
0.0845642
0.238868
0.0904725
0.239812
0.0964846
0.241109
0.102595
0.242831
0.108793
0.245067
0.115059
0.24792
0.121364
0.251509
0.127666
0.25597
0.133906
0.261451
0.140001
0.268109
0.145842
0.276094
0.151286
0.285525
0.15616
0.296446
0.160248
0.308847
0.163335
0.165154
0.322468
0.245448
0.00657079
0.24539
0.0127404
0.24531
0.0186133
0.245216
0.0242699
0.245118
0.029771
0.245028
0.0351657
0.244959
0.0404948
0.244926
0.0457923
0.244947
0.0510856
0.245042
0.0563969
0.245235
0.0617432
0.245552
0.0671373
0.246024
0.0725879
0.246685
0.0780997
0.247576
0.0836737
0.248741
0.0893065
0.250236
0.0949902
0.25212
0.100711
0.254463
0.106449
0.257346
0.112176
0.260856
0.117853
0.265094
0.123429
0.270162
0.128838
0.276167
0.133996
0.28321
0.138799
0.29137
0.143126
0.300694
0.146835
0.311172
0.14977
0.322735
0.151771
0.152708
0.335182
0.251418
0.00656984
0.251422
0.012737
0.251432
0.0186027
0.251457
0.0242448
0.251506
0.029722
0.251591
0.0350812
0.251725
0.0403611
0.251923
0.0455934
0.252206
0.0508032
0.252593
0.0560099
0.253109
0.0612276
0.25378
0.0664658
0.254638
0.0717296
0.255718
0.0770196
0.25706
0.0823321
0.258708
0.0876586
0.260712
0.0929856
0.26313
0.0982934
0.266024
0.103556
0.269461
0.108739
0.273516
0.113799
0.278264
0.118681
0.28378
0.123322
0.290134
0.127641
0.297382
0.131551
0.305559
0.13495
0.314664
0.13773
0.324653
0.139781
0.335426
0.140998
0.141322
0.346813
0.257532
0.00653634
0.257599
0.0126704
0.257702
0.0184996
0.257848
0.0240986
0.258047
0.0295237
0.258308
0.0348195
0.258647
0.0400224
0.259079
0.0451616
0.259622
0.0502598
0.260298
0.0553336
0.261132
0.0603943
0.262149
0.0654485
0.263381
0.0704977
0.264862
0.0755391
0.266629
0.0805651
0.268724
0.0855633
0.271194
0.090516
0.274087
0.0953997
0.277458
0.100185
0.281363
0.104834
0.285857
0.109304
0.290996
0.113543
0.296829
0.117488
0.303396
0.121074
0.310722
0.124225
0.318808
0.126863
0.327628
0.12891
0.337116
0.130293
0.347169
0.130945
0.130847
0.357644
0.263794
0.00646983
0.263925
0.0125398
0.264122
0.0183028
0.26439
0.02383
0.264739
0.0291752
0.265178
0.0343802
0.265721
0.039479
0.266384
0.0444984
0.267186
0.0494585
0.268146
0.0543735
0.269288
0.0592519
0.270639
0.0640975
0.272228
0.0689092
0.274085
0.0736811
0.276248
0.0784028
0.278752
0.0830591
0.281638
0.0876296
0.284949
0.0920891
0.288727
0.0964066
0.293016
0.100546
0.297856
0.104464
0.303284
0.108115
0.309328
0.111444
0.316006
0.114396
0.323319
0.116912
0.331249
0.118934
0.339751
0.120408
0.348757
0.121287
0.358167
0.121535
0.121151
0.367863
0.270207
0.00637013
0.270402
0.0123448
0.270692
0.018012
0.271083
0.0234391
0.271582
0.0286768
0.272198
0.0337644
0.272943
0.0387333
0.273834
0.0436077
0.274887
0.0484054
0.276123
0.0531381
0.277562
0.0578122
0.279231
0.0624289
0.281155
0.0669849
0.283364
0.0714722
0.285889
0.0758784
0.288761
0.0801866
0.292015
0.0843755
0.295685
0.0884194
0.299803
0.0922882
0.304402
0.0959476
0.309507
0.0993594
0.315139
0.102482
0.321311
0.105272
0.328023
0.107684
0.335262
0.109674
0.342995
0.111201
0.351174
0.112229
0.359729
0.112732
0.368572
0.112692
0.112121
0.377601
0.276774
0.00623735
0.277033
0.0120857
0.277417
0.0176278
0.277929
0.0229268
0.278576
0.0280303
0.279365
0.0329749
0.280309
0.0377893
0.281422
0.0424954
0.282718
0.0471086
0.284218
0.0516386
0.28594
0.0560897
0.287908
0.0604612
0.290145
0.0647481
0.292676
0.068941
0.295528
0.0730265
0.298727
0.0769871
0.302301
0.0808017
0.306275
0.0844455
0.310673
0.0878905
0.315514
0.0911059
0.320815
0.0940586
0.326584
0.0967138
0.332819
0.0990365
0.33951
0.100993
0.346633
0.10255
0.354152
0.103682
0.362014
0.104367
0.370155
0.104591
0.378496
0.104351
0.103663
0.386954
0.283498
0.00607186
0.283821
0.0117634
0.284297
0.0171514
0.284929
0.0222952
0.28572
0.0272387
0.286679
0.0320159
0.287815
0.0366529
0.289141
0.0411694
0.290672
0.0455786
0.292422
0.0498882
0.294411
0.054101
0.296657
0.0582149
0.299181
0.0622238
0.302005
0.0661175
0.305149
0.0698824
0.308634
0.0735013
0.312482
0.0769542
0.316709
0.0802182
0.321331
0.0832684
0.326359
0.086078
0.331798
0.0886194
0.337648
0.0908647
0.343897
0.092787
0.350528
0.0943615
0.357512
0.0955666
0.364809
0.0963853
0.372369
0.0968069
0.380132
0.0968275
0.388032
0.0964505
0.0956965
0.395999
0.290384
0.0058743
0.290768
0.0113789
0.291335
0.0165849
0.292083
0.0215471
0.293015
0.0263061
0.294138
0.030893
0.29546
0.0353316
0.29699
0.0396392
0.298741
0.0438272
0.300727
0.0479019
0.302964
0.0518645
0.305467
0.0557121
0.308253
0.059438
0.311338
0.063032
0.31474
0.0664807
0.318473
0.0697681
0.322552
0.0728758
0.326986
0.0757835
0.331785
0.0784698
0.33695
0.0809123
0.342481
0.0830888
0.348368
0.0849778
0.354596
0.0865595
0.36114
0.0878167
0.367971
0.0887361
0.375047
0.0893087
0.382323
0.0895309
0.389746
0.0894051
0.397257
0.0889395
0.0881555
0.404798
0.297435
0.00564553
0.297879
0.0109342
0.298533
0.0159311
0.299394
0.0206865
0.300462
0.0252377
0.301742
0.0296131
0.30324
0.0338339
0.304964
0.0379156
0.306923
0.0418679
0.309129
0.0456956
0.311594
0.0493991
0.314331
0.0529751
0.317353
0.0564167
0.320671
0.0597139
0.324297
0.0628544
0.328242
0.0658236
0.332512
0.0686052
0.337114
0.0711821
0.342047
0.0735361
0.34731
0.0756493
0.352895
0.0775045
0.358787
0.0790859
0.364966
0.0803797
0.371408
0.081375
0.37808
0.0820646
0.384943
0.0824453
0.391955
0.0825184
0.39907
0.0822905
0.406237
0.0817722
0.0809845
0.413408
0.304654
0.00538662
0.305157
0.0104312
0.305895
0.015193
0.306864
0.0197177
0.308062
0.0240394
0.309492
0.0281836
0.311156
0.0321694
0.313061
0.0360102
0.315215
0.0397145
0.317624
0.043286
0.320299
0.0467246
0.323248
0.0500265
0.326479
0.0531852
0.330002
0.0561915
0.333822
0.0590342
0.337945
0.0617007
0.342373
0.0641771
0.347106
0.0664489
0.35214
0.0685017
0.357468
0.0703216
0.363076
0.0718959
0.368949
0.0732134
0.375063
0.0742653
0.381393
0.0750457
0.387905
0.0755519
0.394566
0.0757846
0.401336
0.0757488
0.408173
0.0754528
0.415037
0.074909
0.0741367
0.421884
0.312046
0.00509878
0.312605
0.00987249
0.313423
0.0143744
0.314495
0.0186459
0.315817
0.0227178
0.317388
0.0266128
0.319209
0.0303481
0.321284
0.0339353
0.323617
0.0373816
0.326213
0.04069
0.329077
0.0438599
0.332216
0.0468877
0.335634
0.0497674
0.339335
0.0524908
0.343321
0.0550483
0.347592
0.0574288
0.352148
0.0596211
0.356984
0.0616136
0.36209
0.0633951
0.367457
0.0649552
0.373068
0.066285
0.378904
0.0673773
0.384942
0.0682272
0.391155
0.0688324
0.397514
0.0691935
0.403984
0.0693141
0.410532
0.0692009
0.417121
0.0688636
0.423716
0.0683146
0.067572
0.43028
0.319615
0.00478333
0.320227
0.00926052
0.321122
0.0134792
0.322292
0.0174764
0.32373
0.0212797
0.325433
0.0249094
0.327401
0.0283805
0.329633
0.0317031
0.332131
0.0348835
0.334897
0.0379238
0.337934
0.0408235
0.341242
0.0435793
0.344824
0.0461857
0.348679
0.0486357
0.352806
0.0509212
0.357202
0.0530332
0.36186
0.0549626
0.366773
0.0567005
0.37193
0.0582385
0.377316
0.0595695
0.382913
0.0606875
0.388702
0.0615885
0.394658
0.0622706
0.400757
0.0627341
0.406968
0.0629819
0.413263
0.0630193
0.41961
0.062854
0.425978
0.0624961
0.432335
0.0619577
0.0612551
0.438651
0.327365
0.00444164
0.328027
0.00859803
0.328995
0.0125114
0.330257
0.0162147
0.331804
0.0197322
0.333632
0.023082
0.335735
0.0262769
0.338113
0.0293259
0.340762
0.032234
0.343683
0.0350032
0.346874
0.0376328
0.350333
0.0401199
0.354059
0.0424599
0.358048
0.0446469
0.362295
0.0466743
0.366793
0.048535
0.371533
0.0502219
0.376505