/*--------------------------------*- C++ -*----------------------------------*\
  =========                 |
  \\      /  F ield         | OpenFOAM: The Open Source CFD Toolbox
   \\    /   O peration     | Website:  https://openfoam.org
    \\  /    A nd           | Version:  dev
     \\/     M anipulation  |
\*---------------------------------------------------------------------------*/
FoamFile
{
    version     2.0;
    format      ascii;
    class       volScalarField;
    location    "7";
    object      p;
}
// * * * * * * * * * * * * * * * * * * * * * * * * * * * * * * * * * * * * * //

dimensions      [0 2 -2 0 0 0 0];

internalField   nonuniform List<scalar> 
2790
(
146.794
146.701
146.969
147.54
148.32
149.277
150.409
151.716
153.193
154.834
156.633
158.584
160.678
162.903
165.243
167.679
170.183
172.722
175.254
177.728
180.086
182.264
184.195
185.815
187.075
187.949
188.385
188.44
188.491
188.704
146.591
146.609
146.901
147.469
148.246
149.2
150.328
151.628
153.097
154.73
156.52
158.461
160.544
162.758
165.087
167.513
170.008
172.542
175.072
177.55
179.919
182.114
184.068
185.717
187.001
187.876
188.272
188.327
188.459
188.744
146.393
146.48
146.792
147.349
148.113
149.054
150.167
151.449
152.897
154.505
156.267
158.176
160.224
162.4
164.688
167.071
169.522
172.013
174.505
176.953
179.302
181.495
183.468
185.157
186.508
187.484
188.077
188.432
188.748
189.046
146.168
146.286
146.61
147.159
147.908
148.833
149.926
151.184
152.603
154.178
155.901
157.767
159.765
161.886
164.114
166.432
168.817
171.24
173.667
176.057
178.365
180.536
182.518
184.258
185.712
186.864
187.732
188.403
188.956
189.475
145.907
146.039
146.372
146.913
147.645
148.549
149.617
150.844
152.226
153.757
155.431
157.24
159.176
161.227
163.379
165.614
167.912
170.247
172.589
174.902
177.147
179.283
181.265
183.055
184.626
185.968
187.098
188.061
188.872
189.619
145.606
145.744
146.079
146.611
147.323
148.201
149.237
150.426
151.763
153.243
154.858
156.6
158.461
160.429
162.49
164.628
166.823
169.052
171.289
173.505
175.667
177.745
179.707
181.528
183.191
184.692
186.039
187.244
188.264
189.182
145.263
145.403
145.734
146.253
146.942
147.79
148.789
149.934
151.22
152.64
154.187
155.853
157.628
159.5
161.458
163.483
165.559
167.665
169.778
171.874
173.929
175.92
177.828
179.638
181.344
182.945
184.439
185.818
186.983
188.029
144.879
145.016
145.34
145.843
146.506
147.32
148.277
149.373
150.6
151.953
153.424
155.003
156.682
158.448
160.288
162.187
164.128
166.092
168.06
170.012
171.929
173.797
175.604
177.346
179.025
180.644
182.199
183.671
184.921
186.071
144.453
144.586
144.9
145.382
146.017
146.793
147.704
148.745
149.908
151.187
152.573
154.057
155.63
157.278
158.989
160.747
162.537
164.34
166.14
167.918
169.662
171.36
173.008
174.608
176.17
177.705
179.214
180.684
181.956
183.194
143.986
144.114
144.415
144.875
145.478
146.212
147.073
148.054
149.148
150.346
151.641
153.022
154.479
156
157.569
159.173
160.794
162.417
164.023
165.596
167.125
168.599
170.017
171.385
172.718
174.037
175.358
176.696
177.896
179.201
143.481
143.602
143.888
144.323
144.891
145.582
146.389
147.305
148.324
149.437
150.634
151.905
153.239
154.621
156.039
157.475
158.912
160.333
161.72
163.055
164.323
165.513
166.62
167.648
168.613
169.542
170.472
171.471
172.434
173.752
142.939
143.053
143.321
143.73
144.261
144.904
145.654
146.503
147.443
148.465
149.559
150.714
151.917
153.154
154.409
155.665
156.904
158.105
159.247
160.309
161.271
162.113
162.822
163.388
163.814
164.125
164.368
164.677
165.06
166.233
142.362
142.469
142.718
143.098
143.59
144.184
144.874
145.652
146.51
147.437
148.423
149.457
150.523
151.608
152.693
153.759
154.786
155.75
156.625
157.384
157.997
158.432
158.654
158.629
158.326
157.73
156.856
155.866
154.919
155.425
141.753
141.851
142.081
142.43
142.881
143.424
144.052
144.757
145.529
146.359
147.234
148.142
149.068
149.994
150.903
151.772
152.577
153.291
153.882
154.314
154.544
154.521
154.183
153.451
152.229
150.4
147.84
144.541
140.597
138.566
141.113
141.203
141.413
141.731
142.139
142.629
143.193
143.823
144.508
145.238
146
146.78
147.561
148.326
149.054
149.721
150.298
150.754
151.051
151.141
150.968
150.457
149.512
147.998
145.719
142.388
137.548
130.537
120.085
107.88
0.761663
0.741584
0.673465
0.580295
0.485072
0.399379
0.327138
0.268627
0.222508
0.186685
0.159281
0.138439
0.122232
0.109121
0.0979947
0.0880651
0.0788431
0.0700538
0.0615809
0.0535237
0.0457757
0.0383799
0.0313202
0.0245461
0.0181054
0.0122253
0.00725992
0.00353611
0.00112596
-0.000387746
0.714607
0.692216
0.628347
0.542641
0.455138
0.376078
0.309163
0.254845
0.212066
0.179228
0.154319
0.135195
0.120169
0.1079
0.097343
0.0877456
0.0786865
0.069948
0.0614214
0.0534112
0.0456615
0.0382743
0.031219
0.0244085
0.0178771
0.0119059
0.00691542
0.00324579
0.00102315
0.000129706
0.66227
0.635719
0.57451
0.4958
0.416652
0.345361
0.285111
0.236343
0.198071
0.168708
0.146408
0.129467
0.116319
0.105583
0.0961648
0.0873565
0.0787771
0.0702555
0.0618758
0.0535184
0.0456358
0.0382198
0.0311312
0.0242054
0.0174155
0.0110598
0.0057952
0.00223357
0.000522431
0.000309765
0.611416
0.580504
0.521025
0.44824
0.376882
0.313107
0.259494
0.216335
0.18262
0.1569
0.137648
0.123235
0.111975
0.102521
0.0939906
0.0858056
0.0775897
0.0692297
0.0608546
0.0526266
0.0448505
0.0376243
0.0307177
0.0238487
0.0169455
0.0103996
0.00501368
0.00140973
-0.000384377
-0.000472144
0.575316
0.540118
0.482054
0.413406
0.347702
0.289311
0.240457
0.201278
0.170739
0.147558
0.130496
0.117959
0.108186
0.0997965
0.091997
0.0842228
0.0762496
0.0680132
0.0596996
0.05158
0.0438707
0.036741
0.0299926
0.0232441
0.0162744
0.00960738
0.00435277
0.00123944
-0.000124713
-0.000656174
0.566192
0.525649
0.468294
0.40082
0.337141
0.280555
0.233208
0.195165
0.165385
0.142835
0.126556
0.114523
0.10479
0.0967271
0.0899373
0.0826365
0.0748031
0.0665926
0.0583775
0.0505892
0.0434971
0.0368219
0.0302207
0.0234505
0.0164081
0.00934167
0.00347081
0.000182044
-0.00104241
-0.000949096
0.594992
0.546609
0.487249
0.416277
0.349097
0.289421
0.239465
0.199201
0.167572
0.143691
0.127184
0.115928
0.106504
0.0977416
0.0892344
0.0814338
0.0734455
0.0650427
0.0565837
0.0486184
0.0415321
0.0351143
0.0288668
0.0224052
0.0156784
0.00908111
0.0036672
0.000194453
-0.00152637
-0.00113171
0.666861
0.608804
0.539696
0.459005
0.382228
0.31468
0.258642
0.213827
0.17886
0.151858
0.130979
0.115728
0.104918
0.0961622
0.087996
0.080075
0.0720323
0.0637605
0.0555128
0.0476781
0.0404923
0.0338222
0.0273494
0.0208551
0.0143707
0.00825335
0.00317772
-0.000490066
-0.00249309
-0.00139463
0.780928
0.703713
0.615883
0.518872
0.427659
0.348604
0.283805
0.231992
0.190751
0.158982
0.135517
0.118452
0.105788
0.095705
0.0868056
0.0783573
0.0700119
0.0617411
0.0537066
0.0460538
0.0387662
0.0316811
0.0247088
0.0179936
0.0118332
0.00649906
0.00210346
-0.00144243
-0.00343099
-0.00164158
0.917544
0.808588
0.692213
0.574954
0.469097
0.377811
0.302961
0.244056
0.19882
0.164254
0.138281
0.11923
0.105205
0.0942576
0.0847546
0.0757679
0.0670806
0.0588784
0.0512765
0.0440415
0.0367053
0.0289558
0.0210203
0.013672
0.00772532
0.00339415
0.000105705
-0.00280057
-0.00434789
-0.00186621
1.04174
0.895575
0.750592
0.608851
0.48698
0.38795
0.30903
0.247321
0.200156
0.164353
0.137271
0.11721
0.102617
0.0914719
0.0817033
0.0721516
0.0629323
0.0547644
0.0478646
0.0414465
0.0342539
0.025604
0.0161248
0.00758794
0.00171166
-0.0012702
-0.00284351
-0.0044973
-0.00520712
-0.00206592
1.14111
0.94225
0.764084
0.605821
0.475755
0.373902
0.29533
0.235392
0.190474
0.15655
0.130383
0.110718
0.0968717
0.0867924
0.0775229
0.0674362
0.0573253
0.0490733
0.0433055
0.0383901
0.0317014
0.0218248
0.0099155
-0.000691843
-0.00673599
-0.00779558
-0.00672433
-0.00640213
-0.00597168
-0.00223558
1.15522
0.888355
0.686167
0.528269
0.409184
0.321372
0.254743
0.203967
0.167144
0.139614
0.116846
0.0987628
0.0870664
0.0799229
0.0724138
0.0617353
0.0499189
0.0412168
0.0372854
0.0351113
0.029634
0.0180982
0.00239394
-0.0117054
-0.0183446
-0.0165712
-0.011424
-0.00826916
-0.00659631
-0.00237105
0.917765
0.582578
0.438702
0.345553
0.270632
0.222851
0.185439
0.15215
0.129635
0.114078
0.0971085
0.080625
0.0722463
0.071019
0.0675266
0.055978
0.0406224
0.0304359
0.0293741
0.032083
0.0290896
0.0152826
-0.00632038
-0.0261854
-0.0341912
-0.0281629
-0.0166742
-0.009614
-0.00699367
-0.00246916
0.233171
-0.165453
-0.079011
0.0396758
0.0509513
0.0856886
0.0999939
0.0824675
0.0748195
0.0800635
0.0732306
0.0566448
0.0517859
0.0608644
0.0651196
0.0515308
0.0286057
0.0145497
0.018072
0.0296105
0.0315092
0.0146512
-0.0159819
-0.0451507
-0.0559023
-0.0434601
-0.0219598
-0.00950719
-0.00697412
-0.00252812
140.434
140.515
140.703
140.988
141.353
141.788
142.286
142.837
143.432
144.059
144.704
145.352
145.986
146.585
147.128
147.586
147.93
148.122
148.115
147.855
147.268
146.259
144.695
142.381
139.019
134.114
126.745
115
92.8574
33.1398
139.707
139.778
139.944
140.194
140.513
140.891
141.32
141.791
142.292
142.813
143.337
143.849
144.331
144.76
145.113
145.36
145.466
145.389
145.078
144.468
143.475
141.984
139.838
136.805
132.527
126.42
117.451
103.888
84.3639
55.8971
138.938
138.999
139.142
139.355
139.627
139.946
140.304
140.692
141.098
141.51
141.911
142.286
142.614
142.872
143.035
143.07
142.94
142.6
141.994
141.051
139.68
137.76
135.127
131.55
126.703
120.133
111.246
99.4045
85.1536
68.4959
138.127
138.178
138.297
138.474
138.697
138.956
139.242
139.546
139.856
140.157
140.435
140.672
140.846
140.935
140.91
140.738
140.381
139.79
138.907
137.661
135.959
133.685
130.686
126.766
121.677
115.126
106.816
96.4119
83.8504
68.6898
137.277
137.318
137.412
137.552
137.726
137.924
138.138
138.357
138.57
138.762
138.917
139.017
139.041
138.963
138.757
138.387
137.814
136.99
135.858
134.347
132.372
129.826
126.579
122.477
117.337
110.959
103.144
93.6468
82.2997
69.3089
136.391
136.421
136.491
136.592
136.716
136.854
136.995
137.13
137.246
137.33
137.364
137.331
137.209
136.972
136.592
136.037
135.265
134.232
132.883
131.151
128.961
126.222
122.828
118.659
113.585
107.472
100.197
91.6588
81.8484
71.1779
135.47
135.489
135.534
135.599
135.673
135.75
135.819
135.871
135.893
135.871
135.788
135.626
135.363
134.976
134.435
133.708
132.759
131.543
130.01
128.103
125.755
122.892
119.432
115.288
110.372
104.605
97.933
90.3441
81.8813
72.8806
134.517
134.527
134.547
134.574
134.6
134.617
134.616
134.586
134.516
134.391
134.196
133.911
133.517
132.989
132.3
131.42
130.315
128.943
127.262
125.222
122.768
119.841
116.382
112.33
107.632
102.248
96.1643
89.4004
82.0062
74.2542
133.538
133.537
133.533
133.524
133.502
133.46
133.39
133.282
133.124
132.901
132.599
132.199
131.682
131.025
130.204
129.189
127.95
126.451
124.656
122.522
120.006
117.065
113.657
109.742
105.292
100.293
94.749
88.6955
82.1859
75.4478
132.535
132.524
132.497
132.452
132.383
132.285
132.15
131.966
131.723
131.408
131.006
130.499
129.871
129.098
128.16
127.029
125.679
124.08
122.2
120.007
117.468
114.551
111.229
107.479
103.288
98.6576
93.6054
88.1708
82.4067
76.4982
131.513
131.492
131.443
131.363
131.25
131.098
130.899
130.644
130.322
129.921
129.426
128.823
128.093
127.219
126.179
124.951
123.512
121.837
119.901
117.679
115.146
112.282
109.069
105.497
101.565
97.2823
92.6723
87.7743
82.6366
77.4076
130.477
130.447
130.376
130.263
130.108
129.905
129.647
129.325
128.929
128.448
127.869
127.178
126.36
125.397
124.271
122.964
121.457
119.729
117.76
115.533
113.03
110.238
107.149
103.761
100.078
96.1162
91.8998
87.4655
82.8552
78.1882
129.433
129.394
129.302
129.159
128.963
128.712
128.399
128.015
127.552
126.998
126.344
125.575
124.679
123.64
122.445
121.076
119.518
117.756
115.774
113.561
111.105
108.4
105.442
102.235
98.7883
95.1188
91.2508
87.2169
83.0531
78.8554
128.385
128.339
128.228
128.055
127.822
127.527
127.162
126.722
126.197
125.579
124.857
124.021
123.058
121.957
120.705
119.289
117.697
115.918
113.94
111.755
109.359
106.747
103.922
100.891
97.6634
94.2581
90.6975
87.0098
83.2256
79.4226
127.341
127.287
127.158
126.959
126.692
126.355
125.944
125.452
124.872
124.197
123.416
122.522
121.505
120.353
119.058
117.608
115.996
114.212
112.25
110.106
107.776
105.262
102.568
99.7025
96.6773
93.5092
90.2191
86.8311
83.371
79.902
126.307
126.245
126.1
125.876
125.578
125.204
124.752
124.214
123.585
122.859
122.029
121.086
120.023
118.832
117.504
116.033
114.412
112.636
110.7
108.602
106.344
103.928
101.36
98.6496
95.8085
92.8525
89.8
86.6718
83.4895
80.3047
125.289
125.221
125.061
124.815
124.488
124.081
123.591
123.013
122.342
121.573
120.701
119.718
118.619
117.397
116.048
114.565
112.945
111.184
109.281
107.235
105.05
102.73
100.282
97.7142
95.0398
92.2725
89.4286
86.5259
83.5823
80.6404
124.294
124.221
124.047
123.781
123.429
122.993
122.47
121.857
121.15
120.345
119.437
118.422
117.295
116.052
114.689
113.203
111.591
109.852
107.986
105.995
103.883
101.655
99.3177
96.8816
94.3572
91.7574
89.0964
86.3895
83.6517
80.918
123.33
123.251
123.066
122.782
122.408
121.946
121.395
120.752
120.014
119.179
118.243
117.203
116.056
114.798
113.429
111.946
110.347
108.634
106.809
104.873
102.831
100.69
98.4566
96.1397
93.7497
91.2981
88.7973
86.2603
83.7
81.1454
122.404
122.32
122.125
121.825
121.432
120.948
120.373
119.704
118.941
118.081
117.123
116.064
114.902
113.637
112.267
110.792
109.211
107.528
105.743
103.861
101.887
99.8272
97.6882
95.4789
93.2086
90.8877
88.5269
86.1374
83.7303
81.3297
121.523
121.435
121.231
120.918
120.508
120.005
119.409
118.72
117.936
117.056
116.081
115.009
113.839
112.57
111.204
109.74
108.18
106.527
104.783
102.954
101.043
99.0576
97.0044
94.8914
92.7272
90.5209
88.2821
86.0205
83.7455
81.4772
120.695
120.604
120.392
120.067
119.643
119.124
118.512
117.805
117.004
116.11
115.122
114.041
112.866
111.598
110.239
108.789
107.252
105.629
103.925
102.145
100.292
98.3749
96.3988
94.3714
92.3005
90.1944
88.0615
85.9102
83.7488
81.5941
119.929
119.835
119.616
119.281
118.845
118.313
117.686
116.966
116.152
115.247
114.25
113.163
111.987
110.723
109.373
107.939
106.424
104.831
103.164
101.429
99.6303
97.7738
95.8661
93.914
91.9246
89.9054
87.8637
85.8072
83.743
81.6852
119.231
119.135
118.91
118.567
118.121
117.578
116.94
116.209
115.385
114.472
113.469
112.38
111.205
109.946
108.607
107.188
105.695
104.13
102.499
100.805
99.0536
97.2511
95.4034
93.5167
91.5978
89.6531
87.6896
85.7138
83.7322
81.7565
118.612
118.514
118.283
117.932
117.477
116.925
116.279
115.539
114.708
113.789
112.783
111.693
110.521
109.269
107.94
106.537
105.065
103.526
101.925
100.268
98.5585
96.803
95.0069
93.1763
91.3171
89.4357
87.5379
85.6299
83.7173
81.8101
118.081
117.979
117.743
117.385
116.923
116.363
115.71
114.964
114.128
113.205
112.198
111.109
109.94
108.695
107.377
105.989
104.535
103.019
101.446
99.8198
98.1463
96.4306
94.6781
92.8944
91.0853
89.2563
87.413
85.5611
83.7057
81.8553
117.646
117.541
117.297
116.931
116.462
115.897
115.238
114.487
113.648
112.723
111.715
110.627
109.463
108.224
106.916
105.541
104.103
102.606
101.056
99.4563
97.8123
96.129
94.4119
92.666
90.8969
89.1098
87.3099
85.5023
83.6919
81.8855
117.32
117.209
116.956
116.584
116.11
115.541
114.877
114.123
113.281
112.355
111.347
110.261
109.1
107.868
106.568
105.203
103.778
102.297
100.765
99.1864
97.5656
95.9079
94.2184
92.502
90.7641
89.0095
87.2432
85.4702
83.695
81.9237
117.118
116.983
116.713
116.335
115.859
115.287
114.621
113.865
113.022
112.096
111.089
110.005
108.848
107.62
106.326
104.969
103.554
102.084
100.564
98.9999
97.3948
95.7543
94.0832
92.3864
90.669
88.9358
87.1914
85.4406
83.6876
81.9375
117.1
116.901
116.603
116.218
115.74
115.164
114.495
113.737
112.894
111.967
110.961
109.879
108.724
107.5
106.211
104.86
103.451
101.989
100.478
98.9227
97.328
95.6986
94.0393
92.3549
90.6504
88.9303
87.1994
85.4622
83.7228
81.9857
-50.5626
-30.3094
-11.1684
35.5192
28.0614
16.0011
50.9743
38.8748
27.649
52.4046
41.9754
33.9246
56.7471
48.4536
41.6908
61.1368
54.2237
48.3283
64.4135
58.529
53.4773
67.0132
61.986
57.675
69.2051
64.8711
61.1609
71.0556
67.2756
64.0476
72.6118
69.2806
66.4431
73.9231
70.9601
68.4413
75.0302
72.3721
70.1158
75.9653
73.5621
71.5242
76.7549
74.5666
72.7121
77.421
75.4152
73.716
77.9817
76.132
74.5649
78.4523
76.7367
75.2826
78.8459
77.2457
75.8884
79.1733
77.6728
76.3988
79.4443
78.0297
76.8271
79.6674
78.3268
77.1855
79.8493
78.5721
77.4831
79.9981
78.7748
77.73
80.1162
78.9383
77.9306
80.2156
79.075
78.0974
80.2874
79.1767
78.2238
80.3602
79.2723
78.3367
80.3944
79.3227
78.4011
80.4635
79.4059
78.4908
-2.9012
-2.80232
-1.33768
-0.197125
-0.162372
-0.0657189
-0.00284784
-0.026171
-0.00949176
0.0515335
0.0632614
0.0320327
0.021148
0.0454785
0.0668091
0.0503982
0.0133219
-0.00867861
0.0025385
0.0300012
0.0408878
0.0192137
-0.0258197
-0.0702464
-0.0864449
-0.0643264
-0.0264762
-0.0061406
-0.00603368
-0.00254984
2.22729
-0.685066
0.905056
0.378708
-0.963784
-0.721839
-0.0866356
-0.0463281
-0.0283444
0.0728249
0.05636
-0.0342638
-0.058068
0.0186797
0.0935279
0.069641
9.95146e-05
-0.0436348
-0.0242754
0.0310518
0.0588283
0.0295626
-0.0377042
-0.105922
-0.13158
-0.0943158
-0.0286122
0.00427241
-0.00272742
-0.0025553
13.3797
5.0129
2.21047
-0.236199
-0.558556
0.888449
1.0682
-0.253736
-0.626989
-0.270486
0.0760329
-0.0241325
-0.0681917
0.0753966
0.168804
0.092009
-0.0455695
-0.128923
-0.0859407
0.0371971
0.105337
0.0612591
-0.041125
-0.146966
-0.191561
-0.135618
-0.0252897
0.0286498
0.00641723
-0.00263311
23.16
13.2741
7.39539
3.62528
1.90009
1.35806
0.154462
-0.519899
-0.150068
1.01868
0.912523
-0.171095
-0.552533
-0.339312
0.145288
0.191309
-0.0425219
-0.187558
-0.108168
0.107522
0.190229
0.100005
-0.0597665
-0.224229
-0.302651
-0.220715
-0.0159789
0.0775348
0.0276639
-0.00306386
32.3373
22.564
15.2412
9.95188
6.32198
3.8541
1.98995
0.994788
0.72821
0.721913
0.209627
-0.382606
-0.452679
0.480946
1.01179
0.411748
-0.181191
-0.51335
-0.465977
-0.0223793
0.276857
0.17831
-0.0519142
-0.283799
-0.397127
-0.244917
0.0231706
0.166306
0.068715
-0.004598
40.3218
31.3887
23.4976
17.0655
12.1424
8.50309
5.83663
3.95966
2.69057
1.78344
1.01546
0.424412
0.20843
0.487034
0.492554
0.238605
-0.224038
-0.528531
-0.279514
0.527068
0.71383
0.246591
-0.09905
-0.422612
-0.655027
-0.586114
-0.0114101
0.294478
0.133378
-0.00966884
46.8383
39.0267
31.2459
24.3534
18.7298
14.2752
10.7575
8.00751
5.91464
4.34287
3.12377
2.16795
1.5338
1.2168
0.950709
0.610494
0.1401
-0.167405
-0.0602282
0.303579
0.435891
0.253991
-0.0712053
-0.44862
-0.703992
-0.423143
0.363513
0.563745
0.210898
-0.0226863
52.1456
45.4093
38.1471
31.3148
25.4325
20.4901
16.3534
12.9346
10.168
7.95609
6.17041
4.72995
3.63298
2.85119
2.23916
1.64491
1.05711
0.644669
0.52924
0.608707
0.622304
0.415013
0.0505193
-0.320691
-0.517729
-0.306848
0.165534
0.402082
0.307186
-0.0635348
56.4749
50.6544
44.0664
37.5906
31.7727
26.6628
22.1963
18.338
15.0585
12.3017
9.99209
8.07179
6.51164
5.26923
4.24623
3.3442
2.55244
1.94422
1.57303
1.3751
1.17696
0.851575
0.439898
0.0670836
-0.130042
-0.0390432
0.240667
0.395964
0.263986
-0.30235
60.008
54.9377
49.0322
43.0456
37.4915
32.448
27.8859
23.801
20.1947
17.0483
14.3251
11.9867
10.001
8.32817
6.90629
5.67549
4.61541
3.74702
3.08567
2.5848
2.13595
1.65638
1.16131
0.729591
0.45141
0.382802
0.450735
0.437129
0.175657
-0.517304
62.9099
58.4484
53.1663
47.6968
42.5005
37.6607
33.1648
29.0241
25.2598
21.8773
18.8648
16.202
13.8662
11.8294
10.0536
8.50017
7.14656
5.99049
5.02817
4.22493
3.51482
2.84342
2.20868
1.65343
1.23117
0.965895
0.798642
0.580463
0.17406
-0.592542
65.3134
61.3485
56.6091
51.6294
46.8149
42.2444
37.9109
33.8317
30.0366
26.544
23.3578
20.4722
17.8763
15.554
13.483
11.6386
10.002
8.56305
7.31058
6.21865
5.24564
4.35447
3.53578
2.80873
2.20007
1.71476
1.3058
0.871773
0.310059
-0.521975
67.3184
63.7623
59.4864
54.9471
50.5012
46.2193
42.0954
38.1465
34.4046
30.8942
27.6279
24.6098
21.8383
19.307
17.0044
14.9164
13.0296
11.3331
9.81489
8.45562
7.22792
6.1061
5.07867
4.15038
3.33034
2.61327
1.96234
1.30829
0.579621
-0.331118
69.0003
65.7842
61.9023
57.7497
53.6425
49.6428
45.7433
41.9587
38.3195
34.8518
31.5728
28.4921
25.6147
22.9409
20.4671
18.1866
16.0912
14.1726
12.4207
10.8215
9.35646
8.0076
6.76348
5.62103
4.5792
3.62801
2.7388
1.86438
0.957479
-0.0558897
70.4168
67.4862
63.9396
60.1234
56.3198
52.5834
48.9052
45.2964
41.7847
38.3959
35.1483
32.0547
29.1237
26.3606
23.7666
21.3405
19.0784
16.9753
15.0242
13.2151
11.5358
9.97309
8.5168
7.16032
5.89763
4.71718
3.59671
2.50388
1.40816
0.263753
71.6133
68.9238
65.6635
62.139
58.6042
55.1076
51.6382
48.204
44.8293
41.5381
38.3487
35.275
32.3278
29.5148
26.841
24.3085
21.9171
19.6647
17.5471
15.558
13.6891
11.9311
10.2751
8.71353
7.23851
5.83854
4.49607
3.18837
1.89514
0.592277
72.6254
70.1405
67.1254
63.8537
60.5556
57.2742
53.9972
50.7296
47.4921
44.3064
41.19
38.1568
35.2184
32.3841
29.6609
27.0532
24.5635
22.192
19.9372
17.7954
15.7613
13.8283
11.9891
10.2364
8.56197
6.95502
5.40132
3.8839
2.38782
0.904053
73.4819
71.1712
68.3667
65.314
62.2234
59.1337
56.0314
52.9188
49.8133
46.7344
43.698
40.7174
37.8042
34.9684
32.2182
29.5594
26.9963
24.531
22.1639
19.8936
17.7168
15.629
13.6246
11.6967
9.83774
8.03775
6.28462
4.56446
2.8644
1.18463
74.2061
72.0441
69.4205
66.5577
63.6487
60.7286
57.7833
54.8126
51.8311
48.8559
45.9013
42.9796
40.1019
37.2783
34.5173
31.8257
29.209
26.6705
24.2121
21.8341
19.5348
17.3114
15.1593
13.0729
11.0449
9.06637
7.12637
5.21239
3.31164
1.42897
74.8174
72.7823
70.3144
67.6161
64.8654
62.0946
59.2891
56.4468
53.5798
50.7027
47.8284
44.9679
42.1315
39.329
36.5688
33.8584
31.2034
28.6085
26.0765
23.6087
21.2048
18.8632
16.5804
14.3516
12.1701
10.0277
7.9141
5.81709
3.72306
1.63839
75.3321
73.4051
71.0709
68.5147
65.9016
63.2616
60.5797
57.8524
55.0894
52.3034
49.5055
46.7057
43.9133
41.1374
38.3861
35.667
32.986
30.3482
27.7571
25.2149
22.7224
20.2785
17.8808
15.5251
13.2054
10.9138
8.64036
6.37278
4.09633
1.81706
75.7638
73.9288
71.7092
69.2753
66.7813
64.2552
61.6818
59.0563
56.3866
53.6836
50.9569
48.2153
45.467
42.7205
39.9835
37.263
34.5652
31.8954
29.2575
26.6542
24.0869
21.5551
19.0572
16.5895
14.1464
11.7203
9.3014
6.87709
4.43169
1.96991
76.1237
74.3666
72.2448
69.9156
67.524
65.0961
62.617
60.0808
57.4937
54.8651
52.2033
49.5159
46.8103
44.0939
41.374
38.6573
35.9498
33.2566
30.5819
27.9288
25.2989
22.6923
20.1078
17.5422
14.9901
12.4442
9.89456
7.32843
4.7294
2.10038
76.4228
74.7312
72.692
70.4519
68.1474
65.8035
63.4054
60.9464
58.4313
55.8683
53.2644
50.6263
47.9604
45.2734
42.5719
39.8621
37.1498
34.4399
31.7368
29.0434
26.3617
23.6922
21.0338
18.3836
15.7365
13.0853
10.4201
7.72781
4.99162
2.2122
76.6673
75.0301
73.0599
70.8943
68.6629
66.3898
64.0602
61.6668
59.2134
56.7069
54.1536
51.559
48.9289
46.2691
43.5858
40.8846
38.1709
35.4495
32.7245
29.999
27.275
24.5532
21.8327
19.1106
16.3821
13.6401
10.8746
8.07232
5.21632
2.30497
76.869
75.2759
73.3624
71.2581
69.0869
66.8721
64.5992
62.2603
59.8585
57.3995
54.889
52.3317
49.7327
47.0973
44.4308
41.7385
39.0255
36.2964
33.555
30.8043
28.0465
25.2821
22.5104
19.7286
16.9321
14.1136
11.2631
8.36732
5.4091
2.38381
77.0246
75.4664
73.5977
71.542
69.4187
67.2502
65.0225
62.7274
60.3669
57.9464
55.4707
52.9439
50.3706
47.7555
45.1035
42.4196
39.7083
36.974
34.2204
31.4505
28.6663
25.8683
23.0558
20.2261
17.3746
14.494
11.5743
8.60197
5.56009
2.44172
77.1564
75.6239
73.7893
71.7705
69.6833
67.5499
65.3565
63.0946
60.7656
58.3745
55.9254
53.4222
50.8688
48.2697
45.6292
42.9521
40.2427
37.505
34.7427
31.9586
29.1545
26.3311
23.4876
20.6213
17.7275
14.799
11.8254
8.79337
5.68552
2.49123
77.2376
75.7212
73.9089
71.9151
69.8523
67.7424
65.5719
63.3322
61.0245
58.653
56.2219
53.7345
51.1947
48.6064
45.974
43.3017
40.5937
37.854
35.0861
32.2925
29.4753
26.6349
23.7706
20.8796
17.9572
14.9959
11.9854
8.9118
5.75781
2.51114
77.3265
75.8113
74.0113
72.0324
69.9833
67.886
65.7277
63.4997
61.2029
58.8415
56.4194
53.9399
51.4065
48.8231
46.1939
43.5232
40.8149
38.0731
35.301
32.5013
29.676
26.8255
23.949
21.0439
18.1053
15.1256
12.0942
8.99629
5.81205
2.51757
)
;

boundaryField
{
    inlet
    {
        type            zeroGradient;
    }
    outlet
    {
        type            fixedValue;
        value           uniform 0;
    }
    flap
    {
        type            zeroGradient;
    }
    upperWall
    {
        type            zeroGradient;
    }
    lowerWall
    {
        type            zeroGradient;
    }
    frontAndBack
    {
        type            empty;
    }
}


// ************************************************************************* //
