/*--------------------------------*- C++ -*----------------------------------*\
  =========                 |
  \\      /  F ield         | OpenFOAM: The Open Source CFD Toolbox
   \\    /   O peration     | Website:  https://openfoam.org
    \\  /    A nd           | Version:  dev
     \\/     M anipulation  |
\*---------------------------------------------------------------------------*/
FoamFile
{
    version     2.0;
    format      ascii;
    class       surfaceScalarField;
    location    "7";
    object      phi;
}
// * * * * * * * * * * * * * * * * * * * * * * * * * * * * * * * * * * * * * //

dimensions      [0 3 -1 0 0 0 0];

internalField   nonuniform List<scalar> 
5457
(
0.198418
0.00158236
0.19648
0.00193733
0.194192
0.00228803
0.191509
0.00268351
0.188428
0.00308112
0.184951
0.00347668
0.181072
0.00387848
0.176779
0.00429391
0.17205
0.00472812
0.166865
0.00518512
0.161197
0.00566841
0.155016
0.00618094
0.148291
0.00672488
0.14099
0.00730126
0.13308
0.00790944
0.124534
0.0085464
0.115328
0.00920585
0.105451
0.00987716
0.0949069
0.0105441
0.0837234
0.0111835
0.0719588
0.0117646
0.0597104
0.0122483
0.0471217
0.0125888
0.0343814
0.0127403
0.0216863
0.0126951
0.00903608
0.0126502
-0.00291719
0.0119533
-0.00847257
0.00555538
-0.00804318
-0.000429383
-0.00804318
0.199928
0.00165419
0.199176
0.00268974
0.197965
0.00349892
0.196332
0.00431663
0.194272
0.00514109
0.191782
0.00596666
0.188855
0.00680537
0.185478
0.00767068
0.181633
0.00857293
0.177298
0.00952043
0.172446
0.0105204
0.167048
0.0115792
0.161071
0.0127016
0.154482
0.0138901
0.147247
0.0151445
0.139334
0.0164595
0.130716
0.0178238
0.121376
0.0192173
0.111311
0.0206089
0.100541
0.0219534
0.0891168
0.0231892
0.0771291
0.024236
0.0647231
0.0249948
0.0521155
0.0253478
0.0396552
0.0251555
0.0281051
0.0242003
0.0185945
0.0214639
0.00879657
0.0153533
0.00118318
0.00718401
-0.00686
0.199781
0.00187361
0.199087
0.00338355
0.197946
0.0046398
0.196409
0.00585318
0.194483
0.00706715
0.192164
0.00828563
0.189447
0.00952271
0.186322
0.0107961
0.182774
0.0121207
0.178785
0.0135092
0.174333
0.0149725
0.169392
0.0165202
0.163933
0.0181601
0.157926
0.0198973
0.151338
0.0217327
0.144136
0.0236612
0.136291
0.0256692
0.127777
0.0277312
0.11858
0.0298058
0.108702
0.0318313
0.0981703
0.0337211
0.0870479
0.0353584
0.0754511
0.0365916
0.0635739
0.037225
0.051732
0.0369974
0.0403967
0.0355356
0.0297384
0.0321221
0.0191656
0.0259261
0.00959737
0.0167523
0.00273737
0.199703
0.00217052
0.199008
0.00407882
0.197887
0.00576028
0.196376
0.00736404
0.194488
0.0089552
0.192223
0.0105515
0.189575
0.0121703
0.186539
0.013832
0.183105
0.0155551
0.179258
0.0173556
0.174983
0.0192474
0.170261
0.0212427
0.165069
0.0233517
0.159385
0.0255814
0.153183
0.0279343
0.146438
0.0304064
0.139124
0.0329836
0.131216
0.0356385
0.122697
0.038325
0.113556
0.0409723
0.103799
0.0434781
0.0934566
0.0457011
0.0825953
0.0474529
0.0713324
0.0484879
0.0598404
0.0484894
0.0483163
0.0470596
0.0368104
0.0436281
0.0251874
0.037549
0.0133353
0.0286044
0.0160727
0.199667
0.00250309
0.198964
0.00478205
0.197863
0.00686155
0.196381
0.00884566
0.194533
0.0108039
0.192318
0.0127661
0.189734
0.014754
0.186776
0.0167905
0.183434
0.0188967
0.179699
0.0210913
0.175556
0.0233902
0.170991
0.0258077
0.165987
0.0283554
0.160527
0.0310416
0.154591
0.0338699
0.148161
0.0368369
0.141215
0.0399294
0.133733
0.0431201
0.125696
0.046362
0.117087
0.0495818
0.107893
0.0526717
0.0981142
0.0554802
0.0877642
0.057803
0.076878
0.059374
0.065508
0.0598595
0.0537072
0.0588604
0.0414533
0.055882
0.0285872
0.0504151
0.014852
0.0423395
0.0309247
0.199653
0.00285028
0.198949
0.00548608
0.197871
0.00793945
0.196427
0.0102898
0.194627
0.0126038
0.192473
0.0149195
0.189964
0.0172636
0.187093
0.0196612
0.183854
0.0221359
0.180237
0.0247084
0.17623
0.0273967
0.171822
0.0302163
0.166997
0.0331802
0.161741
0.0362975
0.156038
0.0395727
0.149872
0.0430035
0.143223
0.0465777
0.136074
0.0502695
0.128402
0.0540343
0.120182
0.0578015
0.111387
0.0614662
0.101988
0.0648792
0.0919539
0.0678374
0.081253
0.070075
0.0698531
0.0712594
0.0577157
0.0709977
0.0447596
0.0688381
0.0308483
0.0643264
0.0158727
0.0573151
0.0467974
0.19965
0.00320021
0.198954
0.00618203
0.197905
0.00898903
0.196505
0.0116894
0.194763
0.014346
0.192681
0.0170015
0.190257
0.0196871
0.187488
0.0224307
0.184366
0.0252579
0.180883
0.0281912
0.177029
0.0312505
0.172793
0.0344528
0.168161
0.0378122
0.163119
0.041339
0.157653
0.045039
0.151745
0.048911
0.145378
0.0529453
0.138528
0.0571191
0.13117
0.0613927
0.123269
0.0657025
0.114782
0.0699531
0.105654
0.0740073
0.0958156
0.0776755
0.0851848
0.0807058
0.0736667
0.0827775
0.0611599
0.0835045
0.0475538
0.0824442
0.0327575
0.0791227
0.0167823
0.0732904
0.0635797
0.199655
0.00354554
0.198975
0.00686211
0.197959
0.0100047
0.19661
0.0130381
0.194934
0.016022
0.192934
0.0190019
0.190608
0.0220131
0.187953
0.0250859
0.184963
0.0282478
0.181631
0.0315233
0.177947
0.0349339
0.173902
0.0384981
0.169483
0.0422316
0.164675
0.0461464
0.159464
0.0502498
0.153832
0.0545434
0.147757
0.0590206
0.141212
0.0636639
0.134164
0.0684412
0.126567
0.0732995
0.118361
0.0781585
0.109468
0.0829004
0.099785
0.0873585
0.0891855
0.0913053
0.0775231
0.0944399
0.0646453
0.0963823
0.0504155
0.096674
0.0347666
0.0947716
0.017789
0.090268
0.0813687
0.199664
0.00388135
0.199006
0.00751989
0.19803
0.0109809
0.196739
0.0143295
0.195137
0.0176239
0.193227
0.0209117
0.191009
0.0242309
0.188481
0.0276144
0.185637
0.0310916
0.182471
0.0346888
0.178976
0.0384292
0.175141
0.0423329
0.170955
0.0464175
0.166405
0.0506967
0.161474
0.0551808
0.156143
0.0598747
0.150386
0.0647769
0.144173
0.069877
0.137462
0.0751529
0.130195
0.0805663
0.122297
0.0860566
0.113665
0.0915319
0.104166
0.0968575
0.0936316
0.10184
0.081862
0.106209
0.0686466
0.109598
0.0537993
0.111521
0.0372344
0.111336
0.0190822
0.10842
0.100451
0.199677
0.00420411
0.199047
0.0081501
0.198116
0.0119122
0.196888
0.0155577
0.195367
0.0191448
0.193556
0.0227222
0.191456
0.0263306
0.189066
0.0300051
0.186381
0.0337768
0.183396
0.0376735
0.180105
0.0417203
0.176499
0.045939
0.172567
0.050349
0.168297
0.0549668
0.163672
0.0598056
0.158672
0.064875
0.15327
0.0701795
0.147429
0.075718
0.141101
0.0814807
0.13422
0.0874473
0.126695
0.0935813
0.118404
0.0998234
0.109181
0.10608
0.0988166
0.112205
0.0870491
0.117977
0.0735862
0.123061
0.0581449
0.126963
0.0405489
0.128932
0.0208996
0.12807
0.12135
0.199693
0.00451117
0.199095
0.00874845
0.198213
0.0127938
0.197053
0.0167173
0.19562
0.0205781
0.193916
0.0244259
0.191943
0.0283035
0.189701
0.0322478
0.187186
0.0362917
0.184395
0.0404644
0.181323
0.0447923
0.177963
0.0492994
0.174305
0.0540069
0.170337
0.058934
0.166045
0.0640976
0.161408
0.0695123
0.156398
0.0751899
0.150977
0.0811391
0.145092
0.0873649
0.138673
0.0938668
0.131618
0.100637
0.123788
0.107653
0.114993
0.114874
0.104979
0.122219
0.0934147
0.129541
0.0798932
0.136582
0.0639629
0.142893
0.0452305
0.147665
0.023609
0.149691
0.144959
0.199711
0.00480046
0.199148
0.00931142
0.19832
0.0136213
0.197234
0.0178035
0.195894
0.0219181
0.194304
0.0260162
0.192465
0.0301419
0.190379
0.0343339
0.188045
0.0386263
0.185459
0.0430498
0.182619
0.0476322
0.17952
0.052399
0.176153
0.0573734
0.17251
0.0625774
0.168576
0.0680315
0.164333
0.0737555
0.159754
0.0797684
0.154804
0.0860897
0.14943
0.0927389
0.143559
0.099737
0.13709
0.107106
0.129876
0.114867
0.121713
0.123038
0.11231
0.131621
0.101268
0.140584
0.088039
0.149811
0.0719161
0.159016
0.0520798
0.167501
0.0278813
0.173889
0.172841
0.19973
0.00507037
0.199205
0.00983617
0.198435
0.0143913
0.197427
0.0188121
0.196185
0.0231601
0.194714
0.0274873
0.193016
0.0318392
0.191095
0.0362556
0.188949
0.040772
0.186579
0.04542
0.183982
0.0502287
0.181157
0.0552247
0.178097
0.0604332
0.174796
0.0658785
0.171243
0.0715845
0.167423
0.0775755
0.163313
0.0838777
0.158883
0.0905199
0.154086
0.0975359
0.148857
0.104967
0.1431
0.112863
0.136678
0.121289
0.129389
0.130326
0.120937
0.140073
0.110877
0.150645
0.0985349
0.162153
0.0828914
0.174659
0.0624255
0.187967
0.0351173
0.201198
0.207958
0.199751
0.00531965
0.199267
0.0103204
0.198557
0.0151006
0.19763
0.0197396
0.19649
0.0242999
0.195143
0.0288345
0.193592
0.03339
0.191841
0.038007
0.189891
0.0427219
0.187744
0.0475671
0.1854
0.0525725
0.182859
0.0577658
0.180118
0.0631736
0.177175
0.0688218
0.174022
0.0747371
0.17065
0.0809476
0.167043
0.0874848
0.163178
0.0943855
0.159019
0.101695
0.154516
0.10947
0.149593
0.117785
0.14414
0.126742
0.137989
0.136477
0.13088
0.147182
0.122399
0.159126
0.11185
0.172702
0.0980034
0.188506
0.0785206
0.20745
0.0486493
0.231069
0.256607
0.199772
0.00554733
0.19933
0.0107622
0.198684
0.015747
0.197841
0.0205831
0.196806
0.0253342
0.195587
0.0300541
0.194187
0.0347899
0.192611
0.0395831
0.190862
0.0444705
0.188944
0.049485
0.18686
0.0546569
0.184611
0.0600144
0.1822
0.065585
0.179626
0.0713956
0.176888
0.0774746
0.173983
0.0838525
0.170904
0.0905643
0.167638
0.0976516
0.164166
0.105167
0.160459
0.113176
0.156474
0.121771
0.152144
0.131072
0.147369
0.141253
0.141989
0.152561
0.135743
0.165373
0.128157
0.180287
0.118292
0.19837
0.103896
0.221846
0.0776585
0.257307
0.334266
0.00380223
-0.00380223
0.00740206
-0.00359983
0.0103359
-0.00293388
0.0125805
-0.00224457
0.014216
-0.00163548
0.0153389
-0.00112294
0.0160425
-0.000703524
0.0164126
-0.000370172
0.0165293
-0.000116669
0.0164583
7.10264e-05
0.0162571
0.000201134
0.0159814
0.000275736
0.0156693
0.000312072
0.015351
0.00031833
0.0150483
0.000302728
0.0147746
0.000273697
0.0145369
0.000237643
0.014337
0.000199974
0.0141715
0.000165425
0.0140366
0.000134976
0.0139242
0.000112379
0.0138284
9.57651e-05
0.0137435
8.48986e-05
0.0136621
8.14307e-05
0.0135739
8.82169e-05
0.013467
0.000106834
0.0133323
0.000134698
0.0131685
0.000163783
0.01299
0.000178556
0.000144007
0.0035146
-0.00731683
0.00687973
-0.00696496
0.00969352
-0.00574766
0.0119392
-0.0044903
0.0136923
-0.00338851
0.0150382
-0.00246886
0.0160569
-0.00172226
0.0168188
-0.00113203
0.0173798
-0.000677645
0.0177867
-0.000335874
0.0180788
-9.10161e-05
0.0182851
6.93992e-05
0.0184354
0.00016186
0.0185601
0.00019356
0.0186802
0.000182694
0.0188073
0.000146569
0.018947
9.79559e-05
0.0190989
4.80225e-05
0.0192585
5.84045e-06
0.0194268
-3.32903e-05
0.0195992
-6.00731e-05
0.0197742
-7.91762e-05
0.0199494
-9.03292e-05
0.0201207
-8.98983e-05
0.0202805
-7.15449e-05
0.0204181
-3.08076e-05
0.0205242
2.86541e-05
0.0205969
9.1062e-05
0.0206492
0.000126229
0.000118657
0.00297353
-0.0102904
0.00573613
-0.00972756
0.00801505
-0.00802659
0.00983008
-0.00630533
0.0112541
-0.00481253
0.0123583
-0.00357304
0.0132086
-0.00257259
0.0138629
-0.00178628
0.0143686
-0.00118336
0.0147659
-0.000733166
0.0150881
-0.00041319
0.0153616
-0.000204133
0.0156054
-8.19981e-05
0.0158249
-2.59083e-05
0.0160256
-1.80059e-05
0.0162137
-4.15303e-05
0.0163947
-8.30273e-05
0.016573
-0.000130239
0.0167518
-0.000173
0.0169266
-0.000208095
0.0170982
-0.000231629
0.0172676
-0.000248615
0.0174379
-0.000260647
0.0176114
-0.000263423
0.0177873
-0.000247426
0.0179608
-0.000204274
0.0181282
-0.000138787
0.0182874
-6.81555e-05
0.0184316
-1.79586e-05
2.65231e-05
0.00237732
-0.0126677
0.00442453
-0.0117748
0.00604605
-0.00964811
0.00732291
-0.0075822
0.00832242
-0.00581203
0.00909722
-0.00434785
0.00969632
-0.00317169
0.0101617
-0.00225168
0.0105259
-0.00154755
0.0108127
-0.00102
0.0110432
-0.000643682
0.0112373
-0.000398209
0.0114082
-0.000252908
0.0115608
-0.000178515
0.0116986
-0.000155739
0.0118228
-0.00016575
0.0119326
-0.000192879
0.0120265
-0.000224055
0.012103
-0.000249509
0.0121607
-0.000265846
0.0122011
-0.000272
0.012229
-0.000276545
0.0122514
-0.000283081
0.0122742
-0.000286129
0.0122992
-0.000272426
0.0123223
-0.000227436
0.0123378
-0.000154232
0.0123476
-7.79636e-05
0.0123417
-1.21127e-05
4.14348e-05
0.00168206
-0.0143497
0.00292665
-0.0130194
0.00381574
-0.0105372
0.00449161
-0.00825806
0.00500898
-0.0063294
0.00540307
-0.00474194
0.00570499
-0.00347361
0.00593986
-0.00248655
0.00612296
-0.00173066
0.00625892
-0.00115596
0.0063552
-0.000739961
0.0064256
-0.000468611
0.006476
-0.000303312
0.00650169
-0.000204197
0.0065019
-0.000155949
0.0064742
-0.00013805
0.00641674
-0.000135419
0.00632897
-0.000136285
0.00621035
-0.000130895
0.00606267
-0.000118163
0.00588798
-9.73105e-05
0.00569078
-7.93478e-05
0.00548047
-7.27647e-05
0.00526886
-7.4517e-05
0.00506544
-6.90056e-05
0.00485416
-1.61582e-05
0.00459342
0.000106509
0.00427906
0.000236392
0.00397364
0.000293304
0.00026225
0.000881136
-0.0152309
0.00123162
-0.0133698
0.00133161
-0.0106372
0.00135729
-0.00828374
0.00133171
-0.00630382
0.00128171
-0.00469194
0.00122577
-0.00341766
0.00117156
-0.00243234
0.00111447
-0.00167356
0.00104096
-0.00108245
0.000946125
-0.000645125
0.000832381
-0.000354866
0.000682141
-0.000153072
0.000476454
1.48965e-06
0.000225588
9.49169e-05
-7.14834e-05
0.000159021
-0.000398494
0.000191592
-0.000757029
0.000222249
-0.00116145
0.000273527
-0.00162315
0.000343535
-0.00213552
0.000415059
-0.00267239
0.000457522
-0.00320173
0.000456574
-0.00369879
0.000422549
-0.0041469
0.000379107
-0.00451727
0.000354211
-0.00478889
0.000378124
-0.00499774
0.000445239
-0.00517897
0.00047454
0.000420003
-9.82007e-05
-0.0151327
-0.000665843
-0.0128022
-0.00138851
-0.00991452
-0.0020932
-0.00757905
-0.00275124
-0.00564578
-0.00334151
-0.00410166
-0.00386
-0.00289918
-0.00431509
-0.00197725
-0.00472199
-0.00126666
-0.00512608
-0.000678364
-0.00561152
-0.000159684
-0.00620544
0.000239047
-0.00682533
0.000466823
-0.00740192
0.000578085
-0.00794201
0.000635003
-0.00845151
0.000668518
-0.00894169
0.000681771
-0.00940677
0.000687336
-0.00983783
0.000704584
-0.0102378
0.000743524
-0.0106175
0.000794716
-0.0109898
0.000829856
-0.0113572
0.000823932
-0.0117075
0.000772873
-0.012024
0.000695605
-0.0122957
0.000625961
-0.0125169
0.000599299
-0.0126855
0.000613821
-0.0128219
0.000610939
0.00056739
-0.00111306
-0.0140196
-0.00273227
-0.011183
-0.00436137
-0.00828542
-0.00590436
-0.00603606
-0.00730177
-0.00424837
-0.00855063
-0.0028528
-0.00967313
-0.00177668
-0.0107072
-0.000943218
-0.0116744
-0.000299425
-0.0125339
0.000181101
-0.0132092
0.000515634
-0.0137177
0.000747561
-0.0141613
0.000910472
-0.0145962
0.00101292
-0.0150311
0.00106991
-0.0154599
0.00109736
-0.0158796
0.00110143
-0.0162855
0.0010933
-0.0166719
0.00109097
-0.0170362
0.00110784
-0.017381
0.00113948
-0.0177123
0.00116115
-0.018032
0.00114365
-0.0183331
0.00107399
-0.0186039
0.000966417
-0.0188357
0.000857685
-0.0190224
0.000785991
-0.019164
0.000755418
-0.0192827
0.000729653
0.00069845
-0.00228386
-0.0117358
-0.00500408
-0.00846277
-0.00765573
-0.00563376
-0.0100796
-0.00361218
-0.0122112
-0.00211675
-0.0140375
-0.00102649
-0.015577
-0.000237192
-0.0168215
0.00030122
-0.0177814
0.000660505
-0.018515
0.000914723
-0.0191113
0.00111191
-0.0196272
0.00126351
-0.0200865
0.00136978
-0.020512
0.00143835
-0.020921
0.0014789
-0.0213199
0.00149631
-0.0217091
0.00149061
-0.0220846
0.00146877
-0.0224419
0.00144829
-0.0227802
0.00144616
-0.0231029
0.00146214
-0.0234142
0.00147245
-0.0237131
0.00144258
-0.0239903
0.0013512
-0.0242329
0.00120898
-0.0244326
0.00105742
-0.0245884
0.000941837
-0.0247078
0.000874751
-0.0248128
0.000834709
0.000815297
-0.00366134
-0.00807442
-0.00757654
-0.00454757
-0.0112635
-0.00194682
-0.0144746
-0.000401061
-0.0170853
0.000493914
-0.0191061
0.000994336
-0.0206269
0.00128361
-0.0217885
0.00146287
-0.0227164
0.0015884
-0.0234844
0.00168272
-0.0241288
0.00175625
-0.0246747
0.00180941
-0.0251469
0.00184197
-0.0255703
0.00186178
-0.025967
0.00187562
-0.0263495
0.0018788
-0.0267193
0.00186036
-0.027071
0.00182051
-0.0274008
0.00177812
-0.0277119
0.00175722
-0.0280125
0.00176278
-0.028309
0.00176888
-0.0285974
0.00173107
-0.0288629
0.00161661
-0.0290869
0.00143302
-0.0292604
0.00123092
-0.0293884
0.00106982
-0.0294866
0.000972943
-0.0295771
0.000925248
0.000915472
-0.00564362
-0.00243079
-0.0111562
0.000965022
-0.0155406
0.00243754
-0.0188828
0.00294112
-0.0214025
0.00301365
-0.023346
0.00293789
-0.0248761
0.00281364
-0.026092
0.00267883
-0.0270631
0.00255946
-0.027852
0.00247167
-0.0285074
0.00241164
-0.0290587
0.00236066
-0.0295271
0.00231036
-0.0299374
0.00227209
-0.0303169
0.00225512
-0.0306832
0.00224515
-0.031037
0.00221416
-0.0313681
0.00215157
-0.0316705
0.00208054
-0.0319521
0.00203881
-0.0322294
0.00204012
-0.0325137
0.00205314
-0.0327989
0.00201633
-0.0330616
0.0018793
-0.033274
0.00164535
-0.0334238
0.00138072
-0.0335235
0.00116959
-0.0335994
0.00104879
-0.0336739
0.000999774
0.000998079
-0.00786545
0.00543466
-0.0142776
0.0073772
-0.0189905
0.0071504
-0.0225372
0.00648779
-0.0252212
0.00569767
-0.0272458
0.00496246
-0.0287963
0.00436416
-0.0300042
0.00388677
-0.0309518
0.00350701
-0.031711
0.00323092
-0.0323416
0.00304226
-0.0328735
0.00289253
-0.0333186
0.00275544
-0.0336988
0.00265225
-0.0340495
0.00260589
-0.0343964
0.002592
-0.0347368
0.00255456
-0.0350498
0.00246461
-0.0353232
0.00235396
-0.0355706
0.00228617
-0.0358214
0.00229088
-0.0360955
0.00232728
-0.0363851
0.00230591
-0.0366545
0.00214874
-0.0368611
0.00185194
-0.0369866
0.00150621
-0.0370534
0.00123642
-0.0371032
0.00109852
-0.0371605
0.00105713
0.00106328
-0.00973879
0.0151734
-0.017451
0.0150894
-0.0227982
0.0124976
-0.0264949
0.0101845
-0.0291423
0.00834501
-0.0310493
0.00686944
-0.0324759
0.0057908
-0.0335828
0.00499372
-0.0344351
0.00435927
-0.0351062
0.00390199
-0.0356745
0.00361059
-0.0361678
0.00338579
-0.0365736
0.00316132
-0.0369039
0.00298254
-0.0372099
0.00291188
-0.037533
0.00291508
-0.0378652
0.00288674
-0.0381649
0.00276429
-0.0384058
0.00259491
-0.0386093
0.00248967
-0.0388263
0.00250786
-0.0390915
0.00259249
-0.0393946
0.00260901
-0.0396827
0.0024368
-0.0398902
0.00205946
-0.0399877
0.0016037
-0.0400114
0.00126018
-0.0400283
0.00111533
-0.0400688
0.00109768
0.0011132
-0.0129439
0.0281173
-0.0223861
0.0245316
-0.0277327
0.0178443
-0.0309663
0.0134181
-0.0332762
0.0106549
-0.034815
0.00840819
-0.0359256
0.00690143
-0.036836
0.00590408
-0.0375302
0.00505348
-0.0380506
0.00442242
-0.0385189
0.00407891
-0.0389664
0.00383321
-0.0393246
0.00351951
-0.0395791
0.00323713
-0.0398147
0.00314744
-0.0401083
0.00320872
-0.0404437
0.00322211
-0.0407402
0.00306081
-0.0409435
0.00279815
-0.0410858
0.00263196
-0.0412554
0.00267751
-0.041512
0.0028491
-0.041841
0.00293797
-0.042164
0.00275979
-0.0423813
0.00227679
-0.0424435
0.00166596
-0.0424061
0.00122277
-0.0423786
0.00108777
-0.0424058
0.00112494
0.00115509
-0.0184418
0.0465591
-0.0298813
0.0359711
-0.0345082
0.0224712
-0.036028
0.0149379
-0.0376792
0.0123061
-0.0384924
0.00922134
-0.0390154
0.00742446
-0.0397098
0.00659848
-0.040259
0.00560267
-0.0405493
0.00471279
-0.040856
0.00438554
-0.0412614
0.00423863
-0.0415764
0.0038345
-0.0417224
0.00338318
-0.0418459
0.0032709
-0.0421058
0.00346865
-0.0424701
0.0035864
-0.0427854
0.0033761
-0.0429426
0.00295531
-0.0429913
0.0026807
-0.043088
0.00277417
-0.0433343
0.00309548
-0.0437057
0.00330935
-0.0440862
0.00314022
-0.044326
0.00251663
-0.0443413
0.00168123
-0.044212
0.00109347
-0.0441203
0.000996156
-0.0441437
0.00114832
0.00120815
0.207447
0.00576007
0.207034
0.0111748
0.206432
0.0163495
0.205647
0.0213674
0.204688
0.0262933
0.203561
0.0311815
0.202272
0.0360793
0.200826
0.0410287
0.19923
0.0460666
0.197489
0.0512261
0.195608
0.0565375
0.193593
0.0620291
0.19145
0.0677283
0.189183
0.0736624
0.186798
0.07986
0.184298
0.0863525
0.181687
0.0931757
0.178965
0.100373
0.176135
0.107997
0.173192
0.116119
0.170135
0.124828
0.166956
0.13425
0.163652
0.144556
0.160224
0.15599
0.156694
0.168903
0.153154
0.183827
0.14997
0.201555
0.148812
0.223004
0.160458
0.24566
0.258864
0.23586
0.21249
0.00595248
0.212118
0.0115476
0.211574
0.0168931
0.210868
0.0220733
0.210008
0.0271537
0.209001
0.0321888
0.207854
0.0372263
0.206575
0.0423078
0.205171
0.0474701
0.203651
0.052746
0.202023
0.0581653
0.200297
0.0637558
0.198481
0.0695441
0.196586
0.0755568
0.194625
0.0818215
0.192609
0.0883681
0.190554
0.0952309
0.188477
0.10245
0.186398
0.110076
0.184348
0.118169
0.182365
0.126811
0.18051
0.136105
0.178883
0.146183
0.177655
0.157218
0.177147
0.169412
0.178011
0.182962
0.181662
0.197904
0.190699
0.213967
0.206127
0.230232
0.24578
0.219211
0.217658
0.00612239
0.217329
0.0118766
0.21685
0.0173717
0.21623
0.0226929
0.215478
0.027906
0.214602
0.0330654
0.21361
0.0382183
0.212511
0.0434063
0.211316
0.0486653
0.210035
0.0540274
0.208679
0.0595213
0.207261
0.0651737
0.205795
0.0710095
0.204298
0.0770536
0.202789
0.083331
0.201288
0.0898686
0.199823
0.0966961
0.198426
0.103848
0.197138
0.111363
0.196016
0.119291
0.195138
0.12769
0.194616
0.136626
0.194622
0.146178
0.195417
0.156422
0.197413
0.167416
0.201219
0.179156
0.207606
0.191518
0.217235
0.204338
0.229832
0.217636
0.228834
0.246778
0.222951
0.00626783
0.22267
0.0121578
0.222262
0.0177798
0.221736
0.0232191
0.2211
0.0285414
0.220365
0.0338008
0.219539
0.0390438
0.218634
0.0443111
0.217662
0.0496378
0.216635
0.0550545
0.215568
0.0605886
0.214477
0.0662645
0.213381
0.0721053
0.212302
0.0781326
0.211265
0.084368
0.2103
0.0908334
0.209444
0.0975519
0.208743
0.104549
0.208255
0.111851
0.208057
0.11949
0.208251
0.127495
0.208978
0.135899
0.210431
0.144725
0.212872
0.153981
0.21665
0.163639
0.222182
0.173623
0.229921
0.183779
0.240437
0.193821
0.254651
0.203422
0.210329
0.273156
0.228374
0.00638693
0.228144
0.0123878
0.227812
0.0181123
0.227386
0.0236454
0.226875
0.0290521
0.22629
0.0343858
0.225641
0.0396922
0.224942
0.0450107
0.224205
0.0503749
0.223445
0.0558139
0.222681
0.0613528
0.221932
0.0670139
0.22122
0.072817
0.220573
0.0787801
0.220021
0.08492
0.219601
0.0912527
0.21936
0.0977935
0.219351
0.104557
0.219646
0.111557
0.220331
0.118804
0.22152
0.126307
0.223357
0.134062
0.226028
0.142055
0.229764
0.150245
0.234844
0.158559
0.241597
0.166869
0.250404
0.174973
0.26171
0.182515
0.27599
0.189142
0.193767
0.292552
0.233929
0.006478
0.233754
0.0125633
0.233502
0.0183644
0.233182
0.0239656
0.232803
0.0294308
0.232376
0.0348123
0.231914
0.0401544
0.23143
0.0454951
0.230939
0.0508662
0.230458
0.0562947
0.230007
0.0618034
0.22961
0.0674115
0.229291
0.0731353
0.229083
0.0789887
0.229019
0.0849832
0.229144
0.091128
0.229507
0.0974303
0.23017
0.103894
0.231207
0.11052
0.23271
0.117302
0.23479
0.124227
0.237583
0.131268
0.241254
0.138384
0.245995
0.145504
0.252026
0.152528
0.25959
0.159305
0.268929
0.165633
0.280223
0.171221
0.293569
0.175796
0.178845
0.308491
0.23962
0.00653956
0.239502
0.0126813
0.239334
0.0185321
0.239125
0.0241746
0.238884
0.0296714
0.238623
0.0350732
0.238355
0.0404229
0.238094
0.0457564
0.237856
0.0511037
0.237661
0.0564893
0.237532
0.0619333
0.237491
0.0674516
0.23757
0.0730569
0.2378
0.0787585
0.238221
0.0845624
0.238878
0.0904713
0.239824
0.0964844
0.241122
0.102596
0.242846
0.108795
0.245085
0.115063
0.247941
0.12137
0.251534
0.127675
0.256
0.133918
0.261488
0.140017
0.268154
0.145861
0.276149
0.15131
0.285594
0.156189
0.296534
0.160281
0.308958
0.163372
0.165193
0.32261
0.245448
0.00657035
0.24539
0.0127395
0.24531
0.018612
0.245217
0.0242681
0.245119
0.0297689
0.245029
0.0351632
0.24496
0.040492
0.244928
0.0457891
0.244949
0.0510822
0.245045
0.0563933
0.245239
0.0617394
0.245557
0.0671335
0.24603
0.0725841
0.246692
0.0780961
0.247584
0.0836704
0.248752
0.0893037
0.250248
0.094988
0.252135
0.10071
0.254481
0.106449
0.257366
0.112177
0.260881
0.117856
0.265123
0.123433
0.270197
0.128844
0.27621
0.134004
0.283261
0.13881
0.291433
0.143138
0.300772
0.14685
0.311267
0.149786
0.322852
0.151787
0.152722
0.335323
0.251418
0.00656933
0.251422
0.012736
0.251432
0.0186012
0.251458
0.0242428
0.251507
0.0297195
0.251592
0.0350783
0.251726
0.0403578
0.251926
0.0455897
0.252209
0.0507991
0.252596
0.0560055
0.253113
0.061223
0.253785
0.066461
0.254645
0.0717247
0.255726
0.0770147
0.257069
0.0823272
0.258719
0.0876539
0.260726
0.0929811
0.263146
0.0982894
0.266043
0.103552
0.269484
0.108736
0.273543
0.113797
0.278297
0.11868
0.283819
0.123321
0.290181
0.127642
0.297439
0.131552
0.305626
0.134951
0.314745
0.137731
0.32475
0.139781
0.335542
0.140995
0.141314
0.346949
0.257532
0.00653578
0.257599
0.0126693
0.257702
0.0184979
0.257849
0.0240964
0.258047
0.0295209
0.258309
0.0348162
0.258649
0.0400186
0.259081
0.0451574
0.259625
0.050255
0.260302
0.0553284
0.261136
0.0603888
0.262155
0.0654426
0.263388
0.0704915
0.26487
0.0755327
0.266639
0.0805585
0.268736
0.0855566
0.271208
0.0905092
0.274104
0.0953929
0.277479
0.100178
0.281387
0.104828
0.285886
0.109298
0.29103
0.113536
0.29687
0.117482
0.303445
0.121067
0.31078
0.124217
0.318877
0.126854
0.327708
0.128899
0.337211
0.130279
0.347279
0.130927
0.130823
0.357771
0.263794
0.00646922
0.263925
0.0125386
0.264122
0.0183009
0.264391
0.0238276
0.264739
0.0291721
0.265179
0.0343766
0.265723
0.0394748
0.266387
0.0444936
0.267189
0.0494532
0.268149
0.0543675
0.269293
0.0592454
0.270645
0.0640905
0.272235
0.0689017
0.274094
0.0736732
0.276258
0.0783944
0.278764
0.0830502
0.281653
0.0876204
0.284967
0.0920794
0.288748
0.0963965
0.293041
0.100535
0.297886
0.104453
0.303319
0.108103
0.30937
0.111431
0.316055
0.114382
0.323376
0.116896
0.331315
0.118916
0.339828
0.120386
0.348846
0.121261
0.358269
0.121504
0.121113
0.367978
0.270207
0.00636947
0.270402
0.0123435
0.270693
0.01801
0.271084
0.0234365
0.271583
0.0286735
0.272199
0.0337604
0.272945
0.0387286
0.273836
0.0436023
0.27489
0.0483994
0.276126
0.0531314
0.277567
0.0578048
0.279237
0.0624208
0.281162
0.0669761
0.283373
0.0714627
0.285899
0.0758682
0.288774
0.0801756
0.29203
0.0843638
0.295703
0.0884068
0.299825
0.0922747
0.304427
0.0959331
0.309536
0.0993436
0.315174
0.102465
0.321352
0.105253
0.328071
0.107663
0.335316
0.10965
0.343058
0.111174
0.351246
0.112198
0.359811
0.112697
0.368663
0.112651
0.112074
0.377703
0.276774
0.00623663
0.277033
0.0120843
0.277417
0.0176256
0.27793
0.0229239
0.278577
0.0280267
0.279366
0.0329705
0.280311
0.0377842
0.281424
0.0424895
0.282721
0.047102
0.284221
0.0516311
0.285945
0.0560813
0.287914
0.060452
0.290152
0.064738
0.292684
0.06893
0.295538
0.0730146
0.298739
0.0769741
0.302316
0.0807876
0.306292
0.0844302
0.310693
0.0878739
0.315538
0.0910878
0.320843
0.0940387
0.326616
0.0966919
0.332857
0.0990123
0.339554
0.100966
0.346684
0.10252
0.354209
0.103648
0.362079
0.104329
0.370227
0.104548
0.378576
0.104302
0.103608
0.387042
0.283498
0.00607109
0.283821
0.0117618
0.284297
0.0171491
0.284929
0.0222921
0.285721
0.0272348
0.28668
0.0320112
0.287817
0.0366474
0.289144
0.041163
0.290674
0.0455713
0.292425
0.04988
0.294415
0.0540918
0.296662
0.0582047
0.299188
0.0622126
0.302012
0.0661052
0.305158
0.0698688
0.308646
0.0734865
0.312495
0.0769379
0.316725
0.0802004
0.32135
0.0832489
0.326381
0.0860566
0.331824
0.0885958
0.337677
0.0908387
0.343931
0.0927583
0.350567
0.0943297
0.357556
0.0955312
0.364859
0.096346
0.372424
0.096763
0.380194
0.0967786
0.3881
0.096396
0.0956359
0.396072
0.290384
0.00587348
0.290768
0.0113773
0.291335
0.0165825
0.292083
0.0215438
0.293016
0.026302
0.294139
0.030888
0.295461
0.0353257
0.296992
0.0396323
0.298743
0.0438194
0.30073
0.047893
0.302968
0.0518545
0.305472
0.055701
0.308258
0.0594257
0.311345
0.0630184
0.314748
0.0664657
0.318483
0.0697515
0.322564
0.0728576
0.327001
0.0757635
0.331802
0.0784478
0.33697
0.0808881
0.342504
0.0830622
0.348394
0.0849484
0.354625
0.0865271
0.361174
0.087781
0.368009
0.0886967
0.375089
0.0892651
0.38237
0.0894827
0.389796
0.089352
0.397311
0.0888811
0.0880914
0.404856
0.297435
0.00564468
0.297879
0.0109325
0.298533
0.0159285
0.299394
0.020683
0.300463
0.0252334
0.301743
0.0296078
0.303241
0.0338277
0.304965
0.0379083
0.306925
0.0418596
0.309132
0.0456861
0.311598
0.0493885
0.314335
0.0529632
0.317358
0.0564034
0.320677
0.0596992
0.324304
0.0628381
0.32825
0.0658056
0.332523
0.0685854
0.337126
0.0711602
0.342062
0.073512
0.347327
0.0756229
0.352914
0.0774754
0.358808
0.0790539
0.364991
0.0803445
0.371435
0.0813364
0.37811
0.0820222
0.384976
0.0823987
0.391992
0.0824674
0.399109
0.0822347
0.406278
0.0817115
0.0809185
0.413451
0.304654
0.00538574
0.305157
0.0104295
0.305895
0.0151904
0.306864
0.0197142
0.308062
0.0240349
0.309492
0.0281781
0.311157
0.0321629
0.313063
0.0360027
0.315216
0.0397058
0.317626
0.0432761
0.320301
0.0467134
0.323251
0.0500139
0.326483
0.0531712
0.330006
0.0561759
0.333827
0.059017
0.337951
0.0616816
0.342381
0.064156
0.347115
0.0664257
0.352151
0.0684761
0.357481
0.0702935
0.363091
0.071865
0.368965
0.0731795
0.375082
0.0742282
0.381413
0.0750051
0.387928
0.0755075
0.39459
0.0757363
0.401361
0.0756962
0.4082
0.0753958
0.415064
0.0748473
0.0740702
0.421913
0.312046
0.00509789
0.312605
0.0098707
0.313424
0.0143717
0.314495
0.0186423
0.315817
0.0227132
0.317388
0.0266073
0.31921
0.0303415
0.321285
0.0339276
0.323618
0.0373727
0.326214
0.0406798
0.329079
0.0438483
0.332218
0.0468748
0.335637
0.0497529
0.339338
0.0524747
0.343325
0.0550303
0.347597
0.057409
0.352154
0.0595992
0.35699
0.0615895
0.362098
0.0633685
0.367465
0.064926
0.373077
0.066253
0.378915
0.0673423
0.384954
0.068189
0.391168
0.0687908
0.397527
0.0691483
0.403998
0.0692651
0.410547
0.0691479
0.417136
0.0688065
0.42373
0.0682532
0.0675062
0.430294
0.319615
0.00478243
0.320227
0.00925872
0.321122
0.0134765
0.322292
0.0174728
0.32373
0.0212751
0.325433
0.0249038
0.327401
0.0283738
0.329633
0.0316953
0.332132
0.0348744
0.334898
0.0379135
0.337934
0.0408118
0.341243
0.0435661
0.344825
0.0461709
0.34868
0.0486192
0.352808
0.0509029
0.357204
0.0530129
0.361863
0.0549403
0.366776
0.0566759
0.371933
0.0582115
0.37732
0.0595398
0.382917
0.0606551
0.388707
0.0615532
0.394663
0.0622322
0.400762
0.0626924
0.406973
0.0629368
0.413268
0.0629706
0.419614
0.0628016
0.425981
0.0624399
0.432336
0.0618977
0.0611912
0.438651
0.327365
0.00444074
0.328027
0.00859625
0.328995
0.0125087
0.330257
0.0162111
0.331804
0.0197277
0.333632
0.0230764
0.335735
0.0262703
0.338112
0.0293181
0.340762
0.0322249
0.343683
0.0349929
0.346873
0.0376211
0.350333
0.0401067
0.354059
0.0424451
0.358047
0.0446304
0.362294
0.046656
0.366792
0.0485148
0.371533
0.0501996
0.376505
0.051704
0.381694
0.053022
0.387085
0.0541489
0.392659
0.0550813
0.398395