/*--------------------------------*- C++ -*----------------------------------*\
  =========                 |
  \\      /  F ield         | OpenFOAM: The Open Source CFD Toolbox
   \\    /   O peration     | Website:  https://openfoam.org
    \\  /    A nd           | Version:  dev
     \\/     M anipulation  |
\*---------------------------------------------------------------------------*/
FoamFile
{
    version     2.0;
    format      ascii;
    class       volVectorField;
    location    "7";
    object      U;
}
// * * * * * * * * * * * * * * * * * * * * * * * * * * * * * * * * * * * * * //

dimensions      [0 1 -1 0 0 0 0];

internalField   nonuniform List<vector> 
2790
(
(9.94399 0 0.0205231)
(9.87572 0 0.0295876)
(9.77521 0 0.0359893)
(9.64944 0 0.042556)
(9.50409 0 0.0493852)
(9.34007 0 0.0564282)
(9.15655 0 0.0638158)
(8.95263 0 0.0717117)
(8.72747 0 0.0802556)
(8.48009 0 0.0895742)
(8.20928 0 0.0997946)
(7.91365 0 0.111047)
(7.59168 0 0.123463)
(7.24178 0 0.137168)
(6.86232 0 0.152277)
(6.45178 0 0.168875)
(6.00886 0 0.187003)
(5.53266 0 0.206626)
(5.02293 0 0.227598)
(4.4804 0 0.249619)
(3.90711 0 0.272184)
(3.30678 0 0.294532)
(2.68523 0 0.315626)
(2.05056 0 0.334293)
(1.41174 0 0.35061)
(0.797989 0 0.372888)
(0.110641 0 0.325034)
(-0.469567 0 -0.114873)
(-0.453786 0 -0.297143)
(-0.231164 0 -0.423855)
(9.9985 0 0.0407028)
(9.98145 0 0.0623824)
(9.93575 0 0.0791396)
(9.86417 0 0.0966241)
(9.77098 0 0.115123)
(9.65716 0 0.134488)
(9.52206 0 0.154974)
(9.36486 0 0.176943)
(9.18472 0 0.200708)
(8.98068 0 0.226551)
(8.75153 0 0.254747)
(8.49589 0 0.285564)
(8.21221 0 0.319255)
(7.89882 0 0.35603)
(7.55404 0 0.396029)
(7.17618 0 0.439274)
(6.76377 0 0.485605)
(6.31564 0 0.534601)
(5.83122 0 0.585476)
(5.31085 0 0.636969)
(4.75611 0 0.687218)
(4.17037 0 0.733659)
(3.55925 0 0.772962)
(2.93151 0 0.801099)
(2.2999 0 0.813752)
(1.69291 0 0.807254)
(1.10712 0 0.747243)
(0.658871 0 0.547917)
(0.186407 0 0.224591)
(-0.0081988 0 -0.453741)
(9.99559 0 0.0432066)
(9.97556 0 0.075271)
(9.9318 0 0.103345)
(9.8649 0 0.13237)
(9.77778 0 0.163058)
(9.67155 0 0.195397)
(9.54588 0 0.229742)
(9.40014 0 0.266602)
(9.23366 0 0.306471)
(9.04564 0 0.349808)
(8.8351 0 0.397075)
(8.60082 0 0.448727)
(8.34145 0 0.505199)
(8.0555 0 0.566872)
(7.74138 0 0.634022)
(7.39744 0 0.706744)
(7.0221 0 0.784852)
(6.61394 0 0.867741)
(6.17191 0 0.954212)
(5.69561 0 1.04227)
(5.18559 0 1.1289)
(4.64392 0 1.2098)
(4.07475 0 1.27917)
(3.48533 0 1.32934)
(2.8868 0 1.35009)
(2.29943 0 1.32642)
(1.73181 0 1.22076)
(1.21623 0 0.972991)
(0.701127 0 0.570129)
(0.358029 0 -0.156588)
(9.99403 0 0.0494988)
(9.97181 0 0.0932053)
(9.92788 0 0.133571)
(9.86225 0 0.174207)
(9.77694 0 0.216432)
(9.67299 0 0.260659)
(9.55032 0 0.307429)
(9.4085 0 0.357414)
(9.24703 0 0.411291)
(9.06534 0 0.469707)
(8.86269 0 0.533305)
(8.6382 0 0.602729)
(8.39085 0 0.6786)
(8.11952 0 0.761485)
(7.823 0 0.851833)
(7.5 0 0.94989)
(7.14923 0 1.05557)
(6.76943 0 1.16826)
(6.35947 0 1.28662)
(5.91857 0 1.40829)
(5.4465 0 1.52949)
(4.94396 0 1.6447)
(4.41312 0 1.74615)
(3.85822 0 1.82322)
(3.28578 0 1.86136)
(2.70636 0 1.84032)
(2.12561 0 1.72599)
(1.55423 0 1.47784)
(0.957933 0 1.08367)
(0.50942 0 0.502295)
(9.99331 0 0.057213)
(9.96994 0 0.110958)
(9.92593 0 0.162102)
(9.86146 0 0.213346)
(9.77799 0 0.266354)
(9.67635 0 0.321912)
(9.55654 0 0.3807)
(9.41822 0 0.443487)
(9.26098 0 0.511056)
(9.08434 0 0.584172)
(8.88771 0 0.663591)
(8.67039 0 0.750069)
(8.4316 0 0.844343)
(8.17046 0 0.947095)
(7.88608 0 1.05889)
(7.57747 0 1.18009)
(7.24365 0 1.3107)
(6.88359 0 1.4502)
(6.49626 0 1.59725)
(6.0807 0 1.74935)
(5.63612 0 1.90243)
(5.16208 0 2.05033)
(4.65873 0 2.18419)
(4.12716 0 2.29175)
(3.56935 0 2.35656)
(2.98884 0 2.35731)
(2.38679 0 2.26494)
(1.76636 0 2.04761)
(1.08997 0 1.69136)
(0.536643 0 1.15411)
(9.99302 0 0.0655378)
(9.96923 0 0.1287)
(9.92556 0 0.190111)
(9.86253 0 0.251841)
(9.78129 0 0.315576)
(9.68245 0 0.382316)
(9.56602 0 0.452872)
(9.43172 0 0.5281)
(9.27921 0 0.60888)
(9.10807 0 0.696086)
(8.91778 0 0.790583)
(8.70775 0 0.89323)
(8.47729 0 1.00487)
(8.22568 0 1.12627)
(7.95215 0 1.2581)
(7.65588 0 1.40083)
(7.33602 0 1.55456)
(6.99162 0 1.71889)
(6.62166 0 1.89258)
(6.22498 0 2.07325)
(5.80024 0 2.25687)
(5.346 0 2.43722)
(4.86066 0 2.60521)
(4.34264 0 2.74823)
(3.79034 0 2.84954)
(3.20252 0 2.88818)
(2.57652 0 2.8382)
(1.91343 0 2.67157)
(1.17272 0 2.37395)
(0.549955 0 1.89434)
(9.99297 0 0.0740738)
(9.96927 0 0.146312)
(9.92637 0 0.217481)
(9.86509 0 0.289289)
(9.78643 0 0.363352)
(9.69085 0 0.440824)
(9.57835 0 0.522657)
(9.44872 0 0.609809)
(9.30166 0 0.703254)
(9.13679 0 0.803966)
(8.95365 0 0.912903)
(8.75171 0 1.03102)
(8.53034 0 1.15923)
(8.28888 0 1.29841)
(8.02659 0 1.44932)
(7.74269 0 1.6125)
(7.43629 0 1.78821)
(7.10639 0 1.97619)
(6.75178 0 2.17544)
(6.37098 0 2.38385)
(5.96206 0 2.59777)
(5.52259 0 2.81141)
(5.04947 0 3.01617)
(4.53894 0 3.19997)
(3.98659 0 3.34668)
(3.38784 0 3.43595)
(2.73718 0 3.44327)
(2.03619 0 3.34144)
(1.24171 0 3.1135)
(0.563497 0 2.69307)
(9.99306 0 0.0825868)
(9.96981 0 0.163604)
(9.92807 0 0.244047)
(9.86885 0 0.325476)
(9.79313 0 0.409442)
(9.70126 0 0.497202)
(9.59324 0 0.589835)
(9.46889 0 0.688393)
(9.32797 0 0.793938)
(9.17015 0 0.90753)
(8.99504 0 1.03022)
(8.80212 0 1.16304)
(8.59083 0 1.30702)
(8.36051 0 1.4631)
(8.11045 0 1.63217)
(7.83981 0 1.81489)
(7.5476 0 2.0117)
(7.23266 0 2.22255)
(6.89348 0 2.44677)
(6.52814 0 2.68273)
(6.13405 0 2.92739)
(5.7078 0 3.1758)
(5.2449 0 3.42039)
(4.73971 0 3.65021)
(4.1854 0 3.85023)
(3.57467 0 4.00087)
(2.89943 0 4.07786)
(2.16203 0 4.05231)
(1.31607 0 3.9016)
(0.583194 0 3.54004)
(9.99326 0 0.0909269)
(9.97072 0 0.180406)
(9.93046 0 0.269664)
(9.87362 0 0.360237)
(9.80118 0 0.453642)
(9.71344 0 0.551204)
(9.61039 0 0.654107)
(9.49189 0 0.763492)
(9.35777 0 0.880502)
(9.20775 0 1.00628)
(9.04147 0 1.14196)
(8.85849 0 1.28867)
(8.65829 0 1.44753)
(8.44023 0 1.6196)
(8.20358 0 1.80589)
(7.94746 0 2.00723)
(7.67078 0 2.22428)
(7.37216 0 2.45731)
(7.04978 0 2.7061)
(6.70124 0 2.96962)
(6.32331 0 3.24571)
(5.91159 0 3.53058)
(5.46029 0 3.8181)
(4.96192 0 4.09901)
(4.4073 0 4.35987)
(3.78628 0 4.58208)
(3.08745 0 4.74102)
(2.3126 0 4.80436)
(1.41056 0 4.74095)
(0.614271 0 4.44177)
(9.99352 0 0.0989905)
(9.97191 0 0.196576)
(9.93341 0 0.29419)
(9.87925 0 0.393411)
(9.81041 0 0.495749)
(9.72717 0 0.602582)
(9.62954 0 0.715176)
(9.51743 0 0.834756)
(9.3907 0 0.96254)
(9.24914 0 1.09975)
(9.09247 0 1.24759)
(8.9203 0 1.4073)
(8.73215 0 1.58008)
(8.52744 0 1.76712)
(8.30545 0 1.96958)
(8.06527 0 2.18851)
(7.80573 0 2.42483)
(7.52529 0 2.67921)
(7.2219 0 2.95197)
(6.89274 0 3.24288)
(6.53398 0 3.55085)
(6.14041 0 3.87355)
(5.70496 0 4.20676)
(5.21837 0 4.54343)
(4.66885 0 4.87245)
(4.04271 0 5.17695)
(3.32352 0 5.43224)
(2.5096 0 5.60185)
(1.54175 0 5.64332)
(0.663999 0 5.41782)
(9.99384 0 0.106702)
(9.9733 0 0.211996)
(9.9368 0 0.317497)
(9.88558 0 0.424849)
(9.82064 0 0.535581)
(9.74226 0 0.651112)
(9.65046 0 0.772779)
(9.54519 0 0.901877)
(9.42639 0 1.03969)
(9.29392 0 1.18751)
(9.14755 0 1.34663)
(8.98696 0 1.51836)
(8.81177 0 1.704)
(8.62145 0 1.90489)
(8.41534 0 2.12233)
(8.19254 0 2.35763)
(7.95189 0 2.61201)
(7.69179 0 2.88659)
(7.41004 0 3.18235)
(7.10361 0 3.49993)
(6.7683 0 3.83955)
(6.39826 0 4.20062)
(5.98545 0 4.58126)
(5.51894 0 4.97739)
(4.9842 0 5.38136)
(4.36305 0 5.77955)
(3.63166 0 6.14907)
(2.77988 0 6.45052)
(1.73326 0 6.62827)
(0.744739 0 6.50278)
(9.9942 0 0.114004)
(9.97487 0 0.22657)
(9.94056 0 0.339467)
(9.89252 0 0.454415)
(9.83174 0 0.572974)
(9.75852 0 0.696599)
(9.6729 0 0.826683)
(9.5749 0 0.964583)
(9.4645 0 1.11164)
(9.34164 0 1.26921)
(9.20618 0 1.43865)
(9.05789 0 1.62134)
(8.89647 0 1.8187)
(8.7215 0 2.03217)
(8.5324 0 2.26326)
(8.32839 0 2.51348)
(8.10837 0 2.78439)
(7.87082 0 3.07762)
(7.6136 0 3.3948)
(7.33371 0 3.73758)
(7.02687 0 4.10755)
(6.68706 0 4.50613)
(6.30576 0 4.93422)
(5.87091 0 5.39155)
(5.36554 0 5.87543)
(4.76659 0 6.37827)
(4.04036 0 6.88317)
(3.16109 0 7.35332)
(2.02444 0 7.72287)
(0.880572 0 7.75662)
(9.99459 0 0.120851)
(9.97657 0 0.240219)
(9.94462 0 0.36)
(9.89996 0 0.481991)
(9.84357 0 0.607785)
(9.77577 0 0.73887)
(9.69664 0 0.876685)
(9.60625 0 1.02263)
(9.50466 0 1.17811)
(9.39187 0 1.34451)
(9.26784 0 1.52325)
(9.13245 0 1.71578)
(8.98551 0 1.92361)
(8.82672 0 2.14831)
(8.65566 0 2.39151)
(8.47171 0 2.65497)
(8.27395 0 2.94058)
(8.06109 0 3.25041)
(7.83126 0 3.58677)
(7.58177 0 3.95228)
(7.30873 0 4.34996)
(7.00655 0 4.7833)
(6.66706 0 5.25626)
(6.27825 0 5.7731)
(5.82215 0 6.33783)
(5.27207 0 6.9525)
(4.58402 0 7.61362)
(3.70939 0 8.30074)
(2.48766 0 8.95778)
(1.12418 0 9.29247)
(9.99501 0 0.127208)
(9.97838 0 0.252879)
(9.94891 0 0.379012)
(9.9078 0 0.507476)
(9.85599 0 0.639895)
(9.79383 0 0.777788)
(9.72144 0 0.922623)
(9.63895 0 1.07584)
(9.54649 0 1.23888)
(9.44416 0 1.41316)
(9.33199 0 1.60015)
(9.20998 0 1.80135)
(9.0781 0 2.01834)
(8.93619 0 2.25277)
(8.78402 0 2.50641)
(8.6212 0 2.78122)
(8.44712 0 3.07935)
(8.26084 0 3.40327)
(8.06096 0 3.75587)
(7.84543 0 4.14063)
(7.61125 0 4.56183)
(7.35397 0 5.02489)
(7.06697 0 5.53675)
(6.74014 0 6.10638)
(6.35754 0 6.74549)
(5.89354 0 7.46912)
(5.30007 0 8.29642)
(4.50799 0 9.24785)
(3.26791 0 10.3413)
(1.60442 0 11.3578)
(9.99545 0 0.133047)
(9.98027 0 0.264497)
(9.95339 0 0.396432)
(9.91596 0 0.530776)
(9.86889 0 0.669184)
(9.81254 0 0.813196)
(9.74709 0 0.964304)
(9.67273 0 1.12398)
(9.58966 0 1.29366)
(9.49805 0 1.47482)
(9.39806 0 1.66894)
(9.28982 0 1.87756)
(9.17342 0 2.10229)
(9.04891 0 2.34485)
(8.91629 0 2.60712)
(8.77544 0 2.89116)
(8.62611 0 3.19933)
(8.46787 0 3.53439)
(8.29997 0 3.89966)
(8.12128 0 4.29921)
(7.9301 0 4.73828)
(7.72386 0 5.22369)
(7.49871 0 5.76469)
(7.24876 0 6.37408)
(6.9645 0 7.07029)
(6.63039 0 7.88113)
(6.21361 0 8.852)
(5.6647 0 10.0658)
(4.68866 0 11.7304)
(2.68622 0 14.5897)
(0.119705 0 -0.118726)
(0.280439 0 -0.106936)
(0.44292 0 -0.082834)
(0.576466 0 -0.0596395)
(0.675734 0 -0.0401472)
(0.744967 0 -0.0244992)
(0.789976 0 -0.0122765)
(0.815907 0 -0.00300071)
(0.827099 0 0.00374877)
(0.827262 0 0.00815937)
(0.8197 0 0.0105715)
(0.80711 0 0.0115923)
(0.791826 0 0.0116804)
(0.775626 0 0.0111343)
(0.759793 0 0.0101897)
(0.745191 0 0.00905521)
(0.73231 0 0.0078877)
(0.721345 0 0.00679427)
(0.712242 0 0.00584588)
(0.70481 0 0.00504728)
(0.698732 0 0.00445154)
(0.693632 0 0.00402102)
(0.689203 0 0.00372751)
(0.685124 0 0.00357681)
(0.680972 0 0.00359383)
(0.676207 0 0.00376208)
(0.67028 0 0.00399095)
(0.66287 0 0.00416818)
(0.654205 0 0.00408143)
(0.643825 0 0.00314552)
(0.10329 0 -0.279589)
(0.261172 0 -0.260156)
(0.414425 0 -0.208871)
(0.543821 0 -0.158017)
(0.645436 0 -0.114771)
(0.723113 0 -0.0797273)
(0.781752 0 -0.0520834)
(0.825583 0 -0.0308235)
(0.857991 0 -0.0149495)
(0.881634 0 -0.00360861)
(0.898556 0 0.00402365)
(0.910507 0 0.00870948)
(0.918867 0 0.0110412)
(0.925335 0 0.0115968)
(0.931165 0 0.0109313)
(0.93717 0 0.00951949)
(0.94377 0 0.00776404)
(0.951067 0 0.00599028)
(0.958878 0 0.00441102)
(0.967081 0 0.00320528)
(0.975651 0 0.00226726)
(0.984393 0 0.00156889)
(0.993186 0 0.00111752)
(1.00188 0 0.000981299)
(1.01022 0 0.00129387)
(1.01777 0 0.0021479)
(1.024 0 0.00338266)
(1.02845 0 0.00454875)
(1.03136 0 0.00511246)
(1.034 0 0.00439415)
(0.0827241 0 -0.443105)
(0.22005 0 -0.412167)
(0.343917 0 -0.333877)
(0.448534 0 -0.256692)
(0.530657 0 -0.191271)
(0.594063 0 -0.138336)
(0.642664 0 -0.0967069)
(0.679799 0 -0.0648344)
(0.708248 0 -0.0410724)
(0.730303 0 -0.0238187)
(0.747782 0 -0.0117936)
(0.76224 0 -0.0040481)
(0.774993 0 0.000299844)
(0.786366 0 0.00209909)
(0.796688 0 0.00211464)
(0.806256 0 0.00099754)
(0.815351 0 -0.00067181)
(0.824228 0 -0.00241222)
(0.833123 0 -0.00389521)
(0.84201 0 -0.00490456)
(0.850708 0 -0.00557196)
(0.85925 0 -0.00599063)
(0.86772 0 -0.00618713)
(0.87625 0 -0.00606268)
(0.884921 0 -0.00540492)
(0.89364 0 -0.00405135)
(0.902253 0 -0.00217272)
(0.910647 0 -0.00028841)
(0.9184 0 0.00115792)
(0.925944 0 0.00175916)
(0.0627458 0 -0.574177)
(0.173464 0 -0.526897)
(0.260895 0 -0.424563)
(0.33583 0 -0.326641)
(0.393428 0 -0.244634)
(0.438087 0 -0.178554)
(0.472466 0 -0.126772)
(0.498837 0 -0.0872432)
(0.519191 0 -0.0577763)
(0.535106 0 -0.0363711)
(0.547749 0 -0.0215746)
(0.55806 0 -0.0121975)
(0.566889 0 -0.00687088)
(0.574765 0 -0.0043468)
(0.581889 0 -0.00373845)
(0.588343 0 -0.00428578)
(0.594128 0 -0.00541156)
(0.59916 0 -0.00667836)
(0.603376 0 -0.00776482)
(0.606731 0 -0.00854962)
(0.609223 0 -0.00892311)
(0.610964 0 -0.00902825)
(0.612178 0 -0.00899788)
(0.613163 0 -0.00877777)
(0.614164 0 -0.00807383)
(0.615305 0 -0.00666064)
(0.616497 0 -0.00489825)
(0.617336 0 -0.00343365)
(0.6176 0 -0.00236245)
(0.617143 0 -0.000806939)
(0.0419633 0 -0.674263)
(0.120463 0 -0.60611)
(0.16565 0 -0.483453)
(0.208389 0 -0.37144)
(0.238258 0 -0.278869)
(0.261652 0 -0.204644)
(0.279496 0 -0.146768)
(0.292965 0 -0.102797)
(0.303193 0 -0.0700608)
(0.310997 0 -0.0461442)
(0.316778 0 -0.0295005)
(0.320748 0 -0.0187425)
(0.323458 0 -0.0120437)
(0.325159 0 -0.00834936)
(0.325696 0 -0.00712805)
(0.32489 0 -0.00716425)
(0.322671 0 -0.00752106)
(0.318891 0 -0.00786073)
(0.313584 0 -0.00802122)
(0.306882 0 -0.00803297)
(0.298887 0 -0.00808915)
(0.289729 0 -0.00823584)
(0.279604 0 -0.00833283)
(0.268892 0 -0.0082621)
(0.257961 0 -0.00778847)
(0.247363 0 -0.00625954)
(0.23673 0 -0.00324643)
(0.222776 0 4.10898e-05)
(0.206705 0 0.00208449)
(0.18974 0 0.00312416)
(0.0196941 0 -0.737723)
(0.0602902 0 -0.645096)
(0.0589185 0 -0.506129)
(0.0672111 0 -0.38662)
(0.0662002 0 -0.288682)
(0.0654383 0 -0.210701)
(0.0636293 0 -0.150425)
(0.0611478 0 -0.105029)
(0.0582669 0 -0.0714335)
(0.0550732 0 -0.0465197)
(0.051301 0 -0.029041)
(0.0458329 0 -0.0186408)
(0.0388294 0 -0.0127466)
(0.0301495 0 -0.00840463)
(0.0184941 0 -0.00492989)
(0.00426318 0 -0.00288498)
(-0.0114855 0 -0.00199662)
(-0.0287961 0 -0.00142067)
(-0.0479402 0 -0.000459511)
(-0.069496 0 0.00122311)
(-0.0937409 0 0.00314347)
(-0.120053 0 0.00451486)
(-0.146951 0 0.00500889)
(-0.17287 0 0.00484364)
(-0.196991 0 0.00466128)
(-0.218804 0 0.00561294)
(-0.234841 0 0.00826123)
(-0.244364 0 0.0109392)
(-0.254297 0 0.0114622)
(-0.263222 0 0.00927422)
(-0.00569971 0 -0.757183)
(-0.00890692 0 -0.637565)
(-0.0582587 0 -0.487897)
(-0.0888056 0 -0.367863)
(-0.123599 0 -0.270785)
(-0.153397 0 -0.195145)
(-0.180063 0 -0.138081)
(-0.2039 0 -0.0961379)
(-0.225556 0 -0.0653782)
(-0.245498 0 -0.0411254)
(-0.265346 0 -0.0205355)
(-0.292859 0 -0.00493845)
(-0.325973 0 0.00406659)
(-0.35642 0 0.00900056)
(-0.384029 0 0.0124277)
(-0.409986 0 0.0143436)
(-0.435175 0 0.015208)
(-0.459381 0 0.015966)
(-0.481954 0 0.0171676)
(-0.502556 0 0.0188292)
(-0.521604 0 0.0203658)
(-0.540107 0 0.020919)
(-0.558706 0 0.0200778)
(-0.576998 0 0.0181177)
(-0.594054 0 0.0156936)
(-0.609041 0 0.0136341)
(-0.621232 0 0.0128202)
(-0.630544 0 0.01327)
(-0.638222 0 0.0132489)
(-0.64332 0 0.0118339)
(-0.0374107 0 -0.724465)
(-0.0890197 0 -0.580922)
(-0.185456 0 -0.43042)
(-0.261023 0 -0.314887)
(-0.333733 0 -0.224286)
(-0.398325 0 -0.154801)
(-0.456434 0 -0.102236)
(-0.509676 0 -0.0622624)
(-0.55952 0 -0.0315126)
(-0.606727 0 -0.00793084)
(-0.646501 0 0.00961682)
(-0.674047 0 0.021207)
(-0.696545 0 0.0274563)
(-0.71882 0 0.0301661)
(-0.740742 0 0.0310242)
(-0.762412 0 0.0310366)
(-0.783739 0 0.030346)
(-0.804533 0 0.0293439)
(-0.824443 0 0.0286515)
(-0.843161 0 0.0286645)
(-0.860708 0 0.029191)
(-0.877476 0 0.0294164)
(-0.893801 0 0.0285288)
(-0.90952 0 0.0263174)
(-0.924045 0 0.0233032)
(-0.936731 0 0.0204589)
(-0.947134 0 0.0186652)
(-0.95534 0 0.0178563)
(-0.961722 0 0.0169193)
(-0.965224 0 0.0155611)
(-0.0758493 0 -0.637037)
(-0.177416 0 -0.474248)
(-0.326095 0 -0.328174)
(-0.450104 0 -0.2222)
(-0.56276 0 -0.143697)
(-0.660105 0 -0.0850802)
(-0.743142 0 -0.0419483)
(-0.813433 0 -0.0112792)
(-0.868352 0 0.00908297)
(-0.909285 0 0.0223174)
(-0.941417 0 0.0311568)
(-0.969022 0 0.0374243)
(-0.993117 0 0.0416555)
(-1.01512 0 0.0439396)
(-1.03597 0 0.0447276)
(-1.0562 0 0.0445319)
(-1.07598 0 0.0435576)
(-1.09518 0 0.042132)
(-1.11354 0 0.0408115)
(-1.13088 0 0.0400429)
(-1.14732 0 0.0397445)
(-1.16314 0 0.039217)
(-1.17849 0 0.0375914)
(-1.19305 0 0.0344573)
(-1.20617 0 0.0302369)
(-1.21723 0 0.0260325)
(-1.22609 0 0.0229205)
(-1.2331 0 0.021051)
(-1.23849 0 0.0196889)
(-1.24119 0 0.0186048)
(-0.125018 0 -0.491092)
(-0.281236 0 -0.317882)
(-0.483297 0 -0.186731)
(-0.652269 0 -0.0969987)
(-0.798041 0 -0.0357052)
(-0.912135 0 0.00156088)
(-0.998588 0 0.0239635)
(-1.06328 0 0.0373426)
(-1.1145 0 0.0457734)
(-1.15653 0 0.0515732)
(-1.19149 0 0.055641)
(-1.22092 0 0.0581565)
(-1.24607 0 0.0593042)
(-1.26825 0 0.0594579)
(-1.28867 0 0.0589658)
(-1.30817 0 0.0579084)
(-1.32704 0 0.0561645)
(-1.34511 0 0.0538757)
(-1.3621 0 0.051616)
(-1.37803 0 0.0500005)
(-1.39327 0 0.049081)
(-1.40826 0 0.0481218)
(-1.42305 0 0.0460214)
(-1.43707 0 0.0420935)
(-1.44936 0 0.0366754)
(-1.45921 0 0.0310622)
(-1.4667 0 0.0266365)
(-1.47252 0 0.0238327)
(-1.47698 0 0.022151)
(-1.4791 0 0.0212523)
(-0.196467 0 -0.28989)
(-0.430785 0 -0.103198)
(-0.689333 0 0.016403)
(-0.874936 0 0.0647082)
(-1.01541 0 0.0816561)
(-1.12423 0 0.0868737)
(-1.20972 0 0.0875728)
(-1.27728 0 0.0863378)
(-1.33112 0 0.0843713)
(-1.37458 0 0.0823921)
(-1.41033 0 0.0806369)
(-1.44016 0 0.0787758)
(-1.4653 0 0.0766047)
(-1.48699 0 0.0744334)
(-1.50662 0 0.072557)
(-1.52532 0 0.0706994)
(-1.54341 0 0.0682475)
(-1.56053 0 0.0650362)
(-1.57622 0 0.0617157)
(-1.59065 0 0.0592202)
(-1.60457 0 0.0578162)
(-1.61875 0 0.0566528)
(-1.63328 0 0.0542387)
(-1.64721 0 0.0494932)
(-1.65909 0 0.0426718)
(-1.66795 0 0.0354168)
(-1.67408 0 0.0296313)
(-1.67862 0 0.0260701)
(-1.68213 0 0.0242345)
(-1.68377 0 0.0234974)
(-0.296574 0 0.0773183)
(-0.577066 0 0.211473)
(-0.852306 0 0.227194)
(-1.05151 0 0.216286)
(-1.20313 0 0.195496)
(-1.31803 0 0.173309)
(-1.40562 0 0.153576)
(-1.47333 0 0.137054)
(-1.52625 0 0.123559)
(-1.5683 0 0.113226)
(-1.60272 0 0.105587)
(-1.63149 0 0.0993122)
(-1.65551 0 0.0935701)
(-1.67576 0 0.0887655)
(-1.6939 0 0.085414)
(-1.71148 0 0.0828915)
(-1.72884 0 0.079827)
(-1.74515 0 0.0755647)
(-1.75955 0 0.0709375)
(-1.77226 0 0.067477)
(-1.78463 0 0.0658157)
(-1.79801 0 0.0648659)
(-1.81256 0 0.06248)
(-1.82688 0 0.0569641)
(-1.83873 0 0.0484553)
(-1.84669 0 0.0391596)
(-1.85129 0 0.0318429)
(-1.85432 0 0.0276811)
(-1.8568 0 0.0258873)
(-1.85802 0 0.0253085)
(-0.368246 0 0.513163)
(-0.707906 0 0.542084)
(-1.0321 0 0.464397)
(-1.2475 0 0.384168)
(-1.40089 0 0.316387)
(-1.51136 0 0.260018)
(-1.59275 0 0.217111)
(-1.65479 0 0.185115)
(-1.70264 0 0.160223)
(-1.74003 0 0.141732)
(-1.77085 0 0.128839)
(-1.79725 0 0.118703)
(-1.81925 0 0.109316)
(-1.83709 0 0.101557)
(-1.85284 0 0.0968159)
(-1.86887 0 0.0941468)
(-1.88563 0 0.0908858)
(-1.90141 0 0.0854986)
(-1.91447 0 0.0791646)
(-1.92506 0 0.0745237)
(-1.93543 0 0.0728916)
(-1.94788 0 0.072776)
(-1.96281 0 0.070955)
(-1.97811 0 0.0647826)
(-1.99039 0 0.0541915)
(-1.99745 0 0.0422408)
(-2.00009 0 0.0330836)
(-2.00122 0 0.0285277)
(-2.00257 0 0.0270933)
(-2.0034 0 0.0267035)
(-0.491608 0 1.03299)
(-0.923507 0 0.947916)
(-1.28376 0 0.726634)
(-1.48362 0 0.547945)
(-1.61632 0 0.428221)
(-1.70821 0 0.334578)
(-1.77248 0 0.270571)
(-1.8221 0 0.227768)
(-1.86094 0 0.193265)
(-1.89045 0 0.166386)
(-1.91535 0 0.148948)
(-1.9385 0 0.136104)
(-1.95804 0 0.123282)
(-1.97241 0 0.112279)
(-1.98441 0 0.106536)
(-1.99828 0 0.104885)
(-2.01476 0 0.102276)
(-2.03058 0 0.0955831)
(-2.0423 0 0.0866522)
(-2.05005 0 0.0802091)
(-2.0576 0 0.0788749)
(-2.06888 0 0.0804624)
(-2.08464 0 0.0799833)
(-2.10176 0 0.073337)
(-2.11508 0 0.0600917)
(-2.12111 0 0.0445291)
(-2.12106 0 0.0329987)
(-2.1196 0 0.0283737)
(-2.11969 0 0.0278778)
(-2.12026 0 0.0277788)
(-0.727601 0 2.05485)
(-1.26417 0 1.62297)
(-1.64857 0 1.02143)
(-1.77791 0 0.633189)
(-1.85187 0 0.499172)
(-1.9078 0 0.389368)
(-1.93976 0 0.314816)
(-1.9711 0 0.266218)
(-2.00072 0 0.218307)
(-2.02004 0 0.178989)
(-2.03573 0 0.160665)
(-2.0547 0 0.150889)
(-2.07194 0 0.136628)
(-2.08172 0 0.12121)
(-2.08796 0 0.113582)
(-2.09879 0 0.114065)
(-2.11588 0 0.113094)
(-2.133 0 0.104677)
(-2.14346 0 0.091762)
(-2.14711 0 0.0827002)
(-2.15033 0 0.0824157)
(-2.15986 0 0.0874424)
(-2.17704 0 0.0897473)
(-2.19714 0 0.0830755)
(-2.21236 0 0.0664333)
(-2.21713 0 0.0457993)
(-2.21313 0 0.0309797)
(-2.20796 0 0.0268181)
(-2.20665 0 0.0283402)
(-2.2072 0 0.0288118)
(9.9959 0 0.138442)
(9.98225 0 0.275231)
(9.95811 0 0.412514)
(9.92454 0 0.552259)
(9.88243 0 0.696144)
(9.83217 0 0.845721)
(9.774 0 1.0025)
(9.70817 0 1.16795)
(9.63495 0 1.34353)
(9.55461 0 1.53072)
(9.46743 0 1.73101)
(9.37368 0 1.94594)
(9.27361 0 2.17714)
(9.16748 0 2.42636)
(9.05554 0 2.6955)
(8.93802 0 2.98671)
(8.8151 0 3.30244)
(8.68692 0 3.64558)
(8.55355 0 4.01964)
(8.41498 0 4.429)
(8.27114 0 4.87931)
(8.12192 0 5.37802)
(7.96724 0 5.93532)
(7.80737 0 6.56555)
(7.64351 0 7.28978)
(7.48059 0 8.14061)
(7.33181 0 9.17197)
(7.28709 0 10.4774)
(7.74377 0 12.2016)
(7.92259 0 14.9195)
(9.99638 0 0.143401)
(9.98434 0 0.285085)
(9.96306 0 0.427241)
(9.93352 0 0.571867)
(9.89657 0 0.720656)
(9.85263 0 0.875166)
(9.80198 0 1.0369)
(9.74494 0 1.20735)
(9.68186 0 1.38795)
(9.61312 0 1.58017)
(9.53911 0 1.78549)
(9.46023 0 2.00544)
(9.37693 0 2.24162)
(9.28969 0 2.49577)
(9.19903 0 2.76978)
(9.10552 0 3.06575)
(9.00982 0 3.38611)
(8.91268 0 3.73372)
(8.81501 0 4.11203)
(8.71798 0 4.52529)
(8.62321 0 4.97894)
(8.53305 0 5.48)
(8.45121 0 6.03779)
(8.38395 0 6.66492)
(8.34241 0 7.3786)
(8.34865 0 8.20227)
(8.44145 0 9.16609)
(8.67665 0 10.3034)
(9.3229 0 11.5591)
(9.81182 0 12.6495)
(9.99688 0 0.147838)
(9.98651 0 0.293896)
(9.96819 0 0.44039)
(9.94283 0 0.589335)
(9.91122 0 0.742427)
(9.87378 0 0.901218)
(9.83087 0 1.0672)
(9.78285 0 1.24184)
(9.73016 0 1.42657)
(9.67326 0 1.62281)
(9.61266 0 1.832)
(9.54893 0 2.05564)
(9.48267 0 2.29528)
(9.41458 0 2.55257)
(9.34547 0 2.82931)
(9.27625 0 3.12752)
(9.20802 0 3.44946)
(9.14211 0 3.79776)
(9.08023 0 4.17555)
(9.02457 0 4.58659)
(8.97816 0 5.03549)
(8.94526 0 5.52792)
(8.93218 0 6.07087)
(8.94841 0 6.67275)
(9.00846 0 7.34301)
(9.13444 0 8.09032)
(9.35736 0 8.9166)
(9.68674 0 9.81083)
(10.2525 0 10.7218)
(10.9403 0 11.4398)
(9.9974 0 0.151699)
(9.98874 0 0.301556)
(9.97347 0 0.451795)
(9.95239 0 0.604433)
(9.92624 0 0.761156)
(9.89545 0 0.923499)
(9.86043 0 1.09294)
(9.82159 0 1.27089)
(9.77944 0 1.45876)
(9.73455 0 1.65793)
(9.68751 0 1.86976)
(9.63903 0 2.09568)
(9.58988 0 2.33715)
(9.54097 0 2.5957)
(9.49335 0 2.87298)
(9.44825 0 3.17082)
(9.40715 0 3.49119)
(9.37189 0 3.83638)
(9.34475 0 4.20897)
(9.32872 0 4.61192)
(9.32771 0 5.04864)
(9.34704 0 5.52299)
(9.39394 0 6.03908)
(9.47833 0 6.60091)
(9.6134 0 7.21125)
(9.81601 0 7.8698)
(10.1089 0 8.56949)
(10.5009 0 9.2957)
(11.0588 0 10.0383)
(11.8525 0 10.6842)
(9.99792 0 0.154938)
(9.99101 0 0.307974)
(9.97884 0 0.461321)
(9.96212 0 0.616982)
(9.94151 0 0.776623)
(9.91746 0 0.941751)
(9.89041 0 1.1138)
(9.86083 0 1.29416)
(9.8293 0 1.48415)
(9.79643 0 1.6851)
(9.76295 0 1.89829)
(9.72967 0 2.12504)
(9.69751 0 2.36667)
(9.66754 0 2.62457)
(9.64102 0 2.90018)
(9.61943 0 3.19505)
(9.60455 0 3.51082)
(9.59856 0 3.84928)
(9.60416 0 4.21234)
(9.62473 0 4.60205)
(9.66459 0 5.02053)
(9.72926 0 5.46978)
(9.82584 0 5.95142)
(9.96327 0 6.46617)
(10.1526 0 7.01294)
(10.407 0 7.58788)
(10.7437 0 8.18287)
(11.1744 0 8.78323)
(11.7222 0 9.37738)
(12.4761 0 9.8904)
(9.99845 0 0.157511)
(9.9933 0 0.313064)
(9.98427 0 0.468841)
(9.97194 0 0.626817)
(9.9569 0 0.788626)
(9.93962 0 0.955733)
(9.92055 0 1.12952)
(9.90023 0 1.31132)
(9.87926 0 1.50239)
(9.85835 0 1.70396)
(9.83828 0 1.9172)
(9.81995 0 2.14332)
(9.80442 0 2.38347)
(9.79288 0 2.63885)
(9.78673 0 2.91065)
(9.78763 0 3.20011)
(9.79756 0 3.50846)
(9.81887 0 3.83696)
(9.85442 0 4.18682)
(9.90773 0 4.55917)
(9.98305 0 4.95492)
(10.0856 0 5.37454)
(10.2218 0 5.81777)
(10.3991 0 6.28315)
(10.6264 0 6.76745)
(10.9134 0 7.26488)
(11.2713 0 7.76623)
(11.7081 0 8.25593)
(12.2246 0 8.71728)
(12.9012 0 9.10873)
(9.99898 0 0.15938)
(9.9956 0 0.316749)
(9.98971 0 0.474242)
(9.98176 0 0.633791)
(9.97229 0 0.796984)
(9.96174 0 0.965235)
(9.9506 0 1.13987)
(9.93943 0 1.32213)
(9.92888 0 1.51321)
(9.9197 0 1.71422)
(9.91273 0 1.92623)
(9.90895 0 2.15027)
(9.90948 0 2.38735)
(9.91559 0 2.63842)
(9.92879 0 2.90442)
(9.95081 0 3.18624)
(9.9837 0 3.48469)
(10.0298 0 3.80051)
(10.0921 0 4.13425)
(10.1738 0 4.4862)
(10.2789 0 4.85628)
(10.4121 0 5.24378)
(10.5785 0 5.64713)
(10.7842 0 6.06352)
(11.0356 0 6.48846)
(11.3391 0 6.91527)
(11.7008 0 7.33458)
(12.1249 0 7.73296)
(12.6053 0 8.09584)
(13.2114 0 8.40266)
(9.99951 0 0.160511)
(9.99789 0 0.318962)
(9.9951 0 0.477427)
(9.99151 0 0.637778)
(9.98753 0 0.801546)
(9.98362 0 0.970084)
(9.98027 0 1.14464)
(9.97807 0 1.32639)
(9.97769 0 1.51641)
(9.9799 0 1.7157)
(9.98558 0 1.9252)
(9.99576 0 2.14579)
(10.0116 0 2.37828)
(10.0343 0 2.62339)
(10.0656 0 2.88178)
(10.1071 0 3.15402)
(10.1608 0 3.44051)
(10.229 0 3.7415)
(10.3144 0 4.05695)
(10.4201 0 4.38651)
(10.5494 0 4.7293)
(10.7062 0 5.08382)
(10.8946 0 5.44765)
(11.1189 0 5.8173)
(11.3835 0 6.18784)
(11.6922 0 6.55273)
(12.0477 0 6.90367)
(12.4516 0 7.23032)
(12.8964 0 7.52154)
(13.44 0 7.76597)
(10 0 0.160875)
(10.0001 0 0.319649)
(10.0004 0 0.478316)
(10.0011 0 0.638676)
(10.0025 0 0.802195)
(10.0051 0 0.970152)
(10.0093 0 1.14372)
(10.0158 0 1.32396)
(10.0252 0 1.51187)
(10.0384 0 1.70832)
(10.0561 0 1.9141)
(10.0795 0 2.12993)
(10.1097 0 2.35643)
(10.1479 0 2.59409)
(10.1957 0 2.84331)
(10.2547 0 3.10434)
(10.3269 0 3.37723)
(10.4143 0 3.6618)
(10.5194 0 3.95755)
(10.6446 0 4.26362)
(10.7929 0 4.57862)
(10.9671 0 4.90052)
(11.1705 0 5.22653)
(11.4058 0 5.55294)
(11.6757 0 5.875)
(11.9821 0 6.18684)
(12.3257 0 6.48159)
(12.7064 0 6.75141)
(13.1165 0 6.98793)
(13.6048 0 7.18429)
(10.0005 0 0.160452)
(10.0023 0 0.318767)
(10.0056 0 0.476848)
(10.0104 0 0.636413)
(10.0171 0 0.798848)
(10.0259 0 0.965353)
(10.0374 0 1.13701)
(10.0523 0 1.31479)
(10.0711 0 1.49956)
(10.0946 0 1.69209)
(10.1237 0 1.89302)
(10.1594 0 2.10289)
(10.2028 0 2.32214)
(10.2552 0 2.55106)
(10.3179 0 2.7898)
(10.3925 0 3.03833)
(10.4807 0 3.2964)
(10.5844 0 3.5635)
(10.7055 0 3.83879)
(10.8463 0 4.12105)
(11.0088 0 4.40858)
(11.1953 0 4.69914)
(11.4078 0 4.98982)
(11.6482 0 5.27706)
(11.9178 0 5.55656)
(12.217 0 5.82334)
(12.5456 0 6.07184)
(12.9022 0 6.29617)
(13.2798 0 6.49028)
(13.72 0 6.64998)
(10.001 0 0.159226)
(10.0044 0 0.316289)
(10.0106 0 0.472986)
(10.0194 0 0.630942)
(10.0311 0 0.791459)
(10.0459 0 0.955649)
(10.0645 0 1.1245)
(10.0872 0 1.29888)
(10.1148 0 1.47955)
(10.148 0 1.66714)
(10.1877 0 1.86216)
(10.2347 0 2.065)
(10.2902 0 2.27591)
(10.3552 0 2.49501)
(10.4312 0 2.72222)
(10.5193 0 2.95729)
(10.6211 0 3.19972)
(10.7382 0 3.44878)
(10.8722 0 3.70339)
(11.0247 0 3.96212)
(11.1974 0 4.22315)
(11.3917 0 4.48418)
(11.609 0 4.74244)
(11.85 0 4.99467)
(12.1153 0 5.23716)
(12.4045 0 5.46579)
(12.7166 0 5.67623)
(13.0496 0 5.86412)
(13.3974 0 6.02522)
(13.7965 0 6.15699)
(10.0015 0 0.15719)
(10.0065 0 0.312198)
(10.0154 0 0.46671)
(10.028 0 0.622246)
(10.0445 0 0.780019)
(10.065 0 0.941049)
(10.0901 0 1.10623)
(10.1203 0 1.27632)
(10.1561 0 1.45197)
(10.1983 0 1.63368)
(10.2476 0 1.82185)
(10.3049 0 2.01671)
(10.3712 0 2.21837)
(10.4475 0 2.42676)
(10.5348 0 2.64165)
(10.6344 0 2.86261)
(10.7475 0 3.08896)
(10.8754 0 3.31982)
(11.0192 0 3.55396)
(11.1803 0 3.7899)
(11.3596 0 4.02578)
(11.5582 0 4.25942)
(11.7766 0 4.48828)
(12.0152 0 4.70951)
(12.2736 0 4.91999)
(12.5511 0 5.11644)
(12.8463 0 5.29553)
(13.157 0 5.4541)
(13.4781 0 5.58922)
(13.8418 0 5.69939)
(10.0019 0 0.154342)
(10.0084 0 0.306495)
(10.0199 0 0.458023)
(10.0361 0 0.610339)
(10.0571 0 0.764559)
(10.083 0 0.921608)
(10.1142 0 1.08228)
(10.1512 0 1.24724)
(10.1946 0 1.41702)
(10.245 0 1.59203)
(10.3031 0 1.77251)
(10.3696 0 1.95858)
(10.4453 0 2.15023)
(10.5313 0 2.34725)
(10.6283 0 2.54928)
(10.7375 0 2.75574)
(10.8596 0 2.96588)
(10.9958 0 3.17869)
(11.1469 0 3.39293)
(11.3137 0 3.6071)
(11.4969 0 3.81944)
(11.6969 0 4.02795)
(11.9139 0 4.23038)
(12.1476 0 4.42432)
(12.3976 0 4.60722)
(12.6626 0 4.77649)
(12.9412 0 4.92966)
(13.2313 0 5.06443)
(13.5284 0 5.17883)
(13.8616 0 5.27201)
(10.0024 0 0.150688)
(10.0102 0 0.299193)
(10.0241 0 0.44695)
(10.0438 0 0.595261)
(10.0689 0 0.745141)
(10.0997 0 0.897425)
(10.1366 0 1.05281)
(10.1799 0 1.21186)
(10.2302 0 1.375)
(10.288 0 1.54253)
(10.3538 0 1.71461)
(10.4283 0 1.89125)
(10.5123 0 2.0723)
(10.6065 0 2.25748)
(10.7116 0 2.44631)
(10.8284 0 2.63815)
(10.9576 0 2.83218)
(11.1 0 3.02737)
(11.256 0 3.22249)
(11.4262 0 3.41611)
(11.6108 0 3.60663)
(11.81 0 3.79226)
(12.0237 0 3.97107)
(12.2512 0 4.14106)
(12.4917 0 4.30019)
(12.7442 0 4.44647)
(13.0069 0 4.57805)
(13.278 0 4.69333)
(13.5538 0 4.79098)
(13.8606 0 4.87057)
(10.0027 0 0.146242)
(10.0119 0 0.290317)
(10.0281 0 0.433535)
(10.0508 0 0.577077)
(10.0798 0 0.721865)
(10.1152 0 0.868636)
(10.1572 0 1.01799)
(10.2062 0 1.17041)
(10.2627 0 1.32623)
(10.3269 0 1.48564)
(10.3995 0 1.64872)
(10.4811 0 1.81539)
(10.572 0 1.98542)
(10.673 0 2.15844)
(10.7846 0 2.33394)
(10.9074 0 2.51123)
(11.0419 0 2.68946)
(11.1884 0 2.86763)
(11.3474 0 3.04458)
(11.5191 0 3.21899)
(11.7034 0 3.38941)
(11.9002 0 3.55432)
(12.1091 0 3.71209)
(12.3294 0 3.86108)
(12.5602 0 3.9997)
(12.8002 0 4.12643)
(13.0479 0 4.23993)
(13.3018 0 4.33907)
(13.5586 0 4.42299)
(13.8423 0 4.49152)
(10.0031 0 0.14102)
(10.0134 0 0.279907)
(10.0317 0 0.417837)
(10.0573 0 0.555879)
(10.0898 0 0.694855)
(10.1293 0 0.835414)
(10.1759 0 0.97807)
(10.23 0 1.12321)
(10.2919 0 1.27109)
(10.3618 0 1.42183)
(10.4403 0 1.57542)
(10.5277 0 1.73171)
(10.6244 0 1.89044)
(10.731 0 2.05117)
(10.8477 0 2.21335)
(10.9749 0 2.37631)
(11.113 0 2.5392)
(11.2622 0 2.70108)
(11.4226 0 2.86088)
(11.5941 0 3.01742)
(11.7767 0 3.16945)
(11.9699 0 3.31565)
(12.1731 0 3.45469)
(12.3857 0 3.58527)
(12.6066 0 3.70613)
(12.8346 0 3.81616)
(13.0685 0 3.91437)
(13.3066 0 4)
(13.5464 0 4.07251)
(13.81 0 4.1319)
(10.0034 0 0.135048)
(10.0148 0 0.26801)