/*--------------------------------*- C++ -*----------------------------------*\
  =========                 |
  \\      /  F ield         | OpenFOAM: The Open Source CFD Toolbox
   \\    /   O peration     | Website:  https://openfoam.org
    \\  /    A nd           | Version:  dev
     \\/     M anipulation  |
\*---------------------------------------------------------------------------*/
FoamFile
{
    version     2.0;
    format      ascii;
    class       surfaceVectorField;
    location    "7";
    object      Uf;
}
// * * * * * * * * * * * * * * * * * * * * * * * * * * * * * * * * * * * * * //

dimensions      [0 1 -1 0 0 0 0];

internalField   nonuniform List<vector> 
5457
(
(9.92088 0 0.0251095)
(9.97125 0 0.0387457)
(9.82402 0 0.0328267)
(9.92859 0 0.0485849)
(9.70961 0 0.0393119)
(9.85548 0 0.0587678)
(9.57544 0 0.0460114)
(9.7568 0 0.070593)
(9.42138 0 0.0529488)
(9.63753 0 0.0830131)
(9.24755 0 0.0601662)
(9.49861 0 0.0959363)
(9.05362 0 0.067811)
(9.33931 0 0.109613)
(8.83893 0 0.0760347)
(9.15875 0 0.124289)
(8.60252 0 0.0849705)
(8.9561 0 0.140168)
(8.34327 0 0.0947454)
(8.73038 0 0.157434)
(8.05985 0 0.105488)
(8.48041 0 0.176271)
(7.7508 0 0.117329)
(8.20477 0 0.196859)
(7.41456 0 0.130397)
(7.90195 0 0.219364)
(7.04949 0 0.144813)
(7.5703 0 0.243927)
(6.65402 0 0.160675)
(7.20818 0 0.270637)
(6.2267 0 0.178048)
(6.81398 0 0.299506)
(5.76641 0 0.196932)
(6.38631 0 0.33042)
(5.27255 0 0.217237)
(5.92415 0 0.363091)
(4.74535 0 0.23874)
(5.42708 0 0.396983)
(4.18617 0 0.261036)
(4.89563 0 0.431243)
(3.59794 0 0.283492)
(4.33161 0 0.464625)
(2.98552 0 0.305205)
(3.73857 0 0.49543)
(2.35608 0 0.325071)
(3.12224 0 0.521516)
(1.71907 0 0.342549)
(2.49103 0 0.540559)
(1.08431 0 0.361882)
(1.85582 0 0.551673)
(0.451804 0 0.348675)
(1.24545 0 0.56302)
(-0.145859 0 0.102452)
(0.60888 0 0.54487)
(-0.423628 0 -0.207097)
(0.0946522 0 0.259358)
(-0.402159 0 -0.361256)
(-0.133689 0 -0.0205311)
(-0.119681 0 -0.39389)
(9.99641 0 0.0516721)
(9.99705 0 0.0405043)
(9.95879 0 0.0708611)
(9.97851 0 0.067454)
(9.89824 0 0.0879863)
(9.93377 0 0.0898693)
(9.81659 0 0.105984)
(9.86453 0 0.113554)
(9.71359 0 0.124921)
(9.77438 0 0.138514)
(9.58909 0 0.144853)
(9.66435 0 0.164646)
(9.44275 0 0.16609)
(9.53397 0 0.192332)
(9.27391 0 0.188968)
(9.3825 0 0.222031)
(9.08167 0 0.213784)
(9.20919 0 0.25415)
(8.8649 0 0.240817)
(9.01316 0 0.289066)
(8.6223 0 0.27034)
(8.79332 0 0.327155)
(8.35239 0 0.302611)
(8.54836 0 0.36879)
(8.05355 0 0.337862)
(8.27683 0 0.414322)
(7.72411 0 0.376268)
(7.97716 0 0.464054)
(7.36236 0 0.41791)
(7.64771 0 0.518198)
(6.9667 0 0.462716)
(7.28681 0 0.576817)
(6.53581 0 0.510396)
(6.89293 0 0.639738)
(6.0688 0 0.560343)
(6.46479 0 0.70644)
(5.56556 0 0.61153)
(6.00157 0 0.775922)
(5.02707 0 0.662393)
(5.50323 0 0.846536)
(4.45584 0 0.710716)
(4.97085 0 0.915818)
(3.85646 0 0.753545)
(4.40714 0 0.980316)
(3.23616 0 0.787199)
(3.817 0 1.03546)
(2.60578 0 0.807501)
(3.20842 0 1.07549)
(1.98276 0 0.810464)
(2.59335 0 1.09315)
(1.40525 0 0.77689)
(1.99617 0 1.07708)
(0.929723 0 0.646389)
(1.41946 0 0.978396)
(0.439829 0 0.384322)
(0.93755 0 0.716782)
(0.0591589 0 -0.118628)
(0.443767 0 0.343506)
(0.174915 0 -0.335948)
(9.98903 0 0.0594304)
(9.99481 0 0.0458771)
(9.95434 0 0.0894758)
(9.97368 0 0.0848535)
(9.89729 0 0.118031)
(9.92984 0 0.119173)
(9.82047 0 0.147897)
(9.86357 0 0.153975)
(9.72416 0 0.179421)
(9.77736 0 0.190407)
(9.60822 0 0.212775)
(9.67227 0 0.228636)
(9.47235 0 0.248392)
(9.5481 0 0.269129)
(9.31608 0 0.286775)
(9.40432 0 0.312497)
(9.13869 0 0.328398)
(9.24035 0 0.359326)
(8.93925 0 0.373724)
(9.05549 0 0.410176)
(8.71665 0 0.423209)
(8.84889 0 0.465601)
(8.4696 0 0.4773)
(8.61951 0 0.526157)
(8.19667 0 0.536404)
(8.36615 0 0.592378)
(7.89632 0 0.600849)
(8.08751 0 0.664745)
(7.56691 0 0.670818)
(7.78219 0 0.743626)
(7.20682 0 0.746265)
(7.44872 0 0.829199)
(6.81455 0 0.826792)
(7.08566 0 0.92133)
(6.38885 0 0.911493)
(6.69168 0 1.01942)
(5.92901 0 0.998768)
(6.26569 0 1.12218)
(5.43511 0 1.0861)
(5.80709 0 1.22744)
(4.90851 0 1.16983)
(5.31604 0 1.33176)
(4.35239 0 1.2449)
(4.79394 0 1.4302)
(3.77255 0 1.30455)
(4.24394 0 1.51588)
(3.17869 0 1.33984)
(3.67178 0 1.57943)
(2.5866 0 1.33812)
(3.08629 0 1.60774)
(2.01983 0 1.27296)
(2.50289 0 1.58157)
(1.48692 0 1.0954)
(1.92871 0 1.46423)
(0.958281 0 0.769153)
(1.38523 0 1.21038)
(0.479869 0 0.202428)
(0.82953 0 0.801015)
(0.433725 0 0.134054)
(9.98515 0 0.0716132)
(9.99367 0 0.0531473)
(9.95039 0 0.113629)
(9.97088 0 0.10229)
(9.89437 0 0.154132)
(9.92691 0 0.147952)
(9.81882 0 0.195572)
(9.86185 0 0.19372)
(9.72442 0 0.23881)
(9.77746 0 0.241276)
(9.61113 0 0.284323)
(9.67467 0 0.291162)
(9.47875 0 0.33272)
(9.55343 0 0.343955)
(9.32695 0 0.384675)
(9.41336 0 0.400372)
(9.15523 0 0.440848)
(9.25401 0 0.46114)
(8.96291 0 0.501886)
(9.07484 0 0.526963)
(8.74917 0 0.568432)
(8.8752 0 0.598539)
(8.51304 0 0.641117)
(8.6543 0 0.676567)
(8.25346 0 0.720537)
(8.41122 0 0.761728)
(7.96925 0 0.807199)
(8.14499 0 0.854645)
(7.65917 0 0.901447)
(7.85454 0 0.95583)
(7.32191 0 1.00336)
(7.53874 0 1.06558)
(6.95619 0 1.11259)
(7.19644 0 1.18386)
(6.56082 0 1.22815)
(6.82651 0 1.31009)
(6.13486 0 1.34818)
(6.42787 0 1.44293)
(5.67781 0 1.46961)
(5.99964 0 1.57992)
(5.18996 0 1.58778)
(5.54131 0 1.71709)
(4.67283 0 1.69603)
(5.05302 0 1.84855)
(4.12976 0 1.78515)
(4.53593 0 1.96584)
(3.56662 0 1.84252)
(3.99269 0 2.0573)
(2.99202 0 1.85072)
(3.42756 0 2.10713)
(2.41582 0 1.78247)
(2.8476 0 2.09447)
(1.84052 0 1.60043)
(2.2562 0 1.98871)
(1.25937 0 1.2784)
(1.66029 0 1.75301)
(0.666767 0 0.789508)
(1.02395 0 1.36773)
(0.523031 0 0.787111)
(9.98337 0 0.0844064)
(9.99316 0 0.0612906)
(9.94821 0 0.136836)
(9.96959 0 0.119926)
(9.89315 0 0.18803)
(9.92575 0 0.176238)
(9.81907 0 0.240167)
(9.862 0 0.232696)
(9.72663 0 0.294465)
(9.77964 0 0.291085)
(9.6159 0 0.351657)
(9.6794 0 0.352272)
(9.48672 0 0.412469)
(9.56128 0 0.416975)
(9.33879 0 0.477675)
(9.42497 0 0.486007)
(9.17171 0 0.548051)
(9.2701 0 0.560204)
(8.98493 0 0.624356)
(9.0962 0 0.640387)
(8.77779 0 0.707346)
(8.90275 0 0.72737)
(8.54953 0 0.797769)
(8.68907 0 0.821961)
(8.29935 0 0.896333)
(8.45444 0 0.924948)
(8.02634 0 1.00366)
(8.19807 0 1.03706)
(7.72956 0 1.12022)
(7.91911 0 1.15893)
(7.40804 0 1.24618)
(7.61668 0 1.29094)
(7.06075 0 1.38129)
(7.28984 0 1.43316)
(6.68667 0 1.5246)
(6.93761 0 1.58512)
(6.28482 0 1.6742)
(6.55896 0 1.74552)
(5.85435 0 1.8268)
(6.15284 0 1.9119)
(5.39467 0 1.97727)
(5.71818 0 2.08018)
(4.90571 0 2.11806)
(5.25404 0 2.2441)
(4.38821 0 2.23861)
(4.75969 0 2.39461)
(3.8439 0 2.32454)
(4.2349 0 2.51919)
(3.2754 0 2.35694)
(3.67985 0 2.60123)
(2.68536 0 2.31057)
(3.09568 0 2.61968)
(2.07266 0 2.15498)
(2.48166 0 2.54729)
(1.42936 0 1.86736)
(1.83989 0 2.35368)
(0.742602 0 1.41952)
(1.13135 0 2.02448)
(0.543299 0 1.51444)
(9.98264 0 0.0974963)
(9.99299 0 0.0697918)
(9.94744 0 0.159773)
(9.96925 0 0.137581)
(9.89354 0 0.221345)
(9.92597 0 0.203924)
(9.82134 0 0.284089)
(9.86381 0 0.270685)
(9.73134 0 0.349345)
(9.78386 0 0.339579)
(9.62367 0 0.418016)
(9.68665 0 0.411694)
(9.49819 0 0.490936)
(9.57218 0 0.4879)
(9.35466 0 0.568972)
(9.44022 0 0.569102)
(9.1927 0 0.653004)
(9.29043 0 0.656232)
(9.01184 0 0.743899)
(9.12243 0 0.750214)
(8.81152 0 0.84252)
(8.93572 0 0.851959)
(8.59109 0 0.949715)
(8.72973 0 0.962371)
(8.34985 0 1.06629)
(8.50382 0 1.08233)
(8.08706 0 1.19297)
(8.25728 0 1.21266)
(7.80191 0 1.33032)
(7.98937 0 1.35406)
(7.49358 0 1.47862)
(7.69929 0 1.50704)
(7.16117 0 1.63771)
(7.38615 0 1.67178)
(6.8037 0 1.80677)
(7.04901 0 1.84794)
(6.42008 0 1.98399)
(6.68672 0 2.03438)
(6.00909 0 2.16616)
(6.29798 0 2.22886)
(5.56936 0 2.34813)
(5.88115 0 2.42751)
(5.09942 0 2.52222)
(5.43429 0 2.62428)
(4.5977 0 2.67757)
(4.95506 0 2.81031)
(4.06265 0 2.79949)
(4.44079 0 2.97323)
(3.49265 0 2.86909)
(3.88846 0 3.09662)
(2.88579 0 2.86289)
(3.29518 0 3.15988)
(2.23798 0 2.75389)
(2.65685 0 3.13787)
(1.54242 0 2.52098)
(1.97481 0 3.00314)
(0.793634 0 2.13128)
(1.20722 0 2.74054)
(0.556726 0 2.29176)
(9.9825 0 0.110625)
(9.99302 0 0.0783602)
(9.94771 0 0.182322)
(9.96954 0 0.155035)
(9.89523 0 0.253814)
(9.92722 0 0.230882)
(9.82524 0 0.326763)
(9.86697 0 0.307505)
(9.73814 0 0.402551)
(9.78978 0 0.386517)
(9.63404 0 0.482229)
(9.69606 0 0.469143)
(9.51286 0 0.566754)
(9.5858 0 0.556393)
(9.37439 0 0.65709)
(9.45881 0 0.649267)
(9.21829 0 0.754212)
(9.31481 0 0.748785)
(9.04415 0 0.859085)
(9.15347 0 0.855962)
(8.85145 0 0.972666)
(8.97435 0 0.971803)
(8.63963 0 1.09589)
(8.77691 0 1.0973)
(8.40803 0 1.22965)
(8.56059 0 1.23343)
(8.15595 0 1.37477)
(8.3247 0 1.38109)
(7.88264 0 1.53188)
(8.06852 0 1.5411)
(7.58726 0 1.70141)
(7.79125 0 1.71407)
(7.26888 0 1.88332)
(7.49195 0 1.90033)
(6.9264 0 2.077)
(7.16952 0 2.09973)
(6.55848 0 2.28089)
(6.82263 0 2.31143)
(6.16343 0 2.49209)
(6.44956 0 2.53353)
(5.73909 0 2.70586)
(6.04806 0 2.76268)
(5.28268 0 2.91501)
(5.61519 0 2.9935)
(4.79078 0 3.10917)
(5.14719 0 3.21787)
(4.25924 0 3.2742)
(4.63932 0 3.42428)
(3.68333 0 3.39184)
(4.08599 0 3.59714)
(3.05799 0 3.43965)
(3.48125 0 3.71651)
(2.37769 0 3.39175)
(2.81831 0 3.75808)
(1.63788 0 3.22611)
(2.09911 0 3.69392)
(0.839113 0 2.90077)
(1.27889 0 3.5044)
(0.573346 0 3.11362)
(9.98273 0 0.123579)
(9.99316 0 0.0868159)
(9.94873 0 0.204306)
(9.97027 0 0.17209)
(9.89794 0 0.285248)
(9.92927 0 0.256971)
(9.83051 0 0.36796)
(9.87124 0 0.342983)
(9.74671 0 0.453846)
(9.79716 0 0.431672)
(9.64669 0 0.544072)
(9.70735 0 0.524345)
(9.53039 0 0.639703)
(9.60181 0 0.62213)
(9.39763 0 0.741796)
(9.48039 0 0.726121)
(9.24814 0 0.851413)
(9.34287 0 0.837421)
(9.08154 0 0.969607)
(9.18895 0 0.957131)
(8.89737 0 1.09742)
(9.01825 0 1.08634)
(8.69511 0 1.23589)
(8.8303 0 1.22614)
(8.47413 0 1.38599)
(8.62456 0 1.37759)
(8.23377 0 1.54865)
(8.40037 0 1.5417)
(7.97322 0 1.72462)
(8.15702 0 1.7194)
(7.69161 0 1.91447)
(7.89364 0 1.91146)
(7.38784 0 2.11838)
(7.60919 0 2.11839)
(7.0606 0 2.336)
(7.30241 0 2.34033)
(6.70818 0 2.56616)
(6.97163 0 2.5768)
(6.32833 0 2.80652)
(6.61469 0 2.82647)
(5.91806 0 3.05308)
(6.22868 0 3.08674)
(5.4734 0 3.29956)
(5.80969 0 3.35321)
(4.98925 0 3.53667)
(5.3526 0 3.61901)
(4.45927 0 3.75142)
(4.85081 0 3.87401)
(3.87615 0 3.92645)
(4.29635 0 4.10394)
(3.23226 0 4.03982)
(3.68048 0 4.28966)
(2.52077 0 4.06493)
(2.99344 0 4.40672)
(1.73833 0 3.97605)
(2.23732 0 4.4245)
(0.889448 0 3.71866)
(1.36332 0 4.31619)
(0.598733 0 3.98478)
(9.98321 0 0.136201)
(9.99339 0 0.0950386)
(9.95032 0 0.225568)
(9.97131 0 0.188586)
(9.90151 0 0.315491)
(9.93193 0 0.282044)
(9.83694 0 0.407497)
(9.87644 0 0.376954)
(9.75684 0 0.503006)
(9.8058 0 0.474833)
(9.66136 0 0.60327)
(9.72031 0 0.577042)
(9.55047 0 0.709453)
(9.61996 0 0.684807)
(9.42404 0 0.822696)
(9.50466 0 0.79931)
(9.28185 0 0.944142)
(9.37423 0 0.921729)
(9.12357 0 1.07493)
(9.22845 0 1.05325)
(8.94881 0 1.21619)
(9.06697 0 1.19504)
(8.75706 0 1.36905)
(8.88939 0 1.34828)
(8.54777 0 1.53459)
(8.69522 0 1.51413)
(8.32026 0 1.71386)
(8.48383 0 1.69372)
(8.07371 0 1.90776)
(8.25452 0 1.88812)
(7.80714 0 2.11705)
(8.00637 0 2.09829)
(7.51932 0 2.34219)
(7.73826 0 2.325)
(7.20867 0 2.58319)
(7.44872 0 2.56872)
(6.87308 0 2.83943)
(7.13584 0 2.82949)
(6.50975 0 3.10931)
(6.79699 0 3.10668)
(6.11484 0 3.38985)
(6.42864 0 3.39866)
(5.68327 0 3.67606)
(6.026 0 3.70235)
(5.20832 0 3.96024)
(5.58263 0 4.01253)
(4.68158 0 4.231)
(5.09014 0 4.32099)
(4.0931 0 4.4723)
(4.53808 0 4.61539)
(3.43233 0 4.6625)
(3.91449 0 4.87784)
(2.68997 0 4.77307)
(3.20548 0 5.08351)
(1.86172 0 4.77228)
(2.4111 0 5.19785)
(0.95411 0 4.58957)
(1.47616 0 5.18415)
(0.639135 0 4.91927)
(9.98386 0 0.148366)
(9.99368 0 0.102942)
(9.95235 0 0.245966)
(9.97261 0 0.20439)
(9.90579 0 0.344393)
(9.9351 0 0.305964)
(9.84438 0 0.445191)
(9.88241 0 0.409263)
(9.76834 0 0.549804)
(9.81552 0 0.515808)
(9.67781 0 0.659551)
(9.73472 0 0.627003)
(9.57282 0 0.77568)
(9.64 0 0.744149)
(9.45329 0 0.899411)
(9.53131 0 0.868509)
(9.31903 0 1.03196)
(9.40855 0 1.00133)
(9.1698 0 1.17455)
(9.27153 0 1.14387)
(9.00524 0 1.3284)
(9.12001 0 1.29738)
(8.82494 0 1.49472)
(8.95363 0 1.46313)
(8.62836 0 1.67472)
(8.77196 0 1.64237)
(8.41486 0 1.86956)
(8.57445 0 1.83638)
(8.18362 0 2.08035)
(8.36039 0 2.04637)
(7.93361 0 2.30808)
(8.12891 0 2.27352)
(7.66348 0 2.55354)
(7.87881 0 2.51891)
(7.37143 0 2.81722)
(7.60854 0 2.78344)
(7.05503 0 3.09916)
(7.31597 0 3.06774)
(6.71098 0 3.3987)
(6.99817 0 3.37202)
(6.33475 0 3.71413)
(6.65114 0 3.69584)
(5.92018 0 4.04215)
(6.26933 0 4.03772)
(5.45907 0 4.3771)
(5.84521 0 4.39457)
(4.94083 0 4.7099)
(5.36866 0 4.76076)
(4.35246 0 5.02652)
(4.82653 0 5.12675)
(3.67931 0 5.30612)
(4.20288 0 5.47703)
(2.90724 0 5.51806)
(3.47759 0 5.78738)
(2.02745 0 5.62283)
(2.64474 0 6.01934)
(1.04498 0 5.52922)
(1.63751 0 6.12368)
(0.704369 0 5.94277)
(9.98465 0 0.159978)
(9.99402 0 0.11046)
(9.95473 0 0.265377)
(9.97409 0 0.219396)
(9.91065 0 0.371814)
(9.93868 0 0.328606)
(9.85267 0 0.480876)
(9.88905 0 0.439769)
(9.78101 0 0.594037)
(9.82619 0 0.554425)
(9.69582 0 0.712673)
(9.75039 0 0.674016)
(9.59717 0 0.8381)
(9.66168 0 0.799908)
(9.48504 0 0.971609)
(9.56004 0 0.933427)
(9.35929 0 1.11449)
(9.44545 0 1.07589)
(9.21975 0 1.26802)
(9.31778 0 1.22861)
(9.06615 0 1.43352)
(9.17686 0 1.39291)
(8.89813 0 1.61229)
(9.02243 0 1.57015)
(8.71523 0 1.80564)
(8.85412 0 1.76169)
(8.51687 0 2.01491)
(8.67148 0 1.96892)
(8.30227 0 2.24139)
(8.47387 0 2.19323)
(8.07041 0 2.48634)
(8.26046 0 2.43604)
(7.81989 0 2.75094)
(8.03013 0 2.69875)
(7.54883 0 3.03624)
(7.7813 0 2.98273)
(7.25462 0 3.34304)
(7.51182 0 3.28928)
(6.93365 0 3.67177)
(7.21866 0 3.61956)
(6.58088 0 4.02225)
(6.89758 0 3.97448)
(6.18939 0 4.39322)
(6.54266 0 4.35443)
(5.74966 0 4.78169)
(6.14561 0 4.75891)
(5.24896 0 5.18179)
(5.69492 0 5.18565)
(4.67074 0 5.58283)
(5.17487 0 5.62929)
(3.99466 0 5.96652)
(4.56482 0 6.07883)
(3.19815 0 6.30159)
(3.83601 0 6.51353)
(2.26152 0 6.54045)
(2.97049 0 6.89388)
(1.18045 0 6.56477)
(1.87885 0 7.15752)
(0.812655 0 7.09894)
(9.98554 0 0.17096)
(9.9944 0 0.117544)
(9.95739 0 0.283693)
(9.97572 0 0.233514)
(9.91601 0 0.397628)
(9.94259 0 0.349862)
(9.8617 0 0.514403)
(9.89624 0 0.468343)
(9.79469 0 0.635525)
(9.83765 0 0.59053)
(9.71518 0 0.762418)
(9.76714 0 0.717898)
(9.62326 0 0.896457)
(9.68477 0 0.851864)
(9.51896 0 1.03899)
(9.59057 0 0.993808)
(9.40223 0 1.19137)
(9.48458 0 1.1451)
(9.27296 0 1.35494)
(9.36676 0 1.30711)
(9.13096 0 1.53108)
(9.23701 0 1.48123)
(8.97598 0 1.7212)
(9.09517 0 1.66887)
(8.80766 0 1.92671)
(8.94099 0 1.87151)
(8.62549 0 2.1491)
(8.77411 0 2.09064)
(8.42879 0 2.38986)
(8.59403 0 2.32783)
(8.21663 0 2.65055)
(8.40005 0 2.58474)
(7.9877 0 2.93276)
(8.19116 0 2.86308)
(7.74018 0 3.23811)
(7.96596 0 3.16471)
(7.47148 0 3.56824)
(7.72243 0 3.49161)
(7.17796 0 3.92477)
(7.45774 0 3.84592)
(6.8545 0 4.30922)
(7.1678 0 4.22997)
(6.49381 0 4.72274)
(6.84681 0 4.64622)
(6.08564 0 5.16562)
(6.48641 0 5.0971)
(5.61552 0 5.63638)
(6.07458 0 5.58458)
(5.06339 0 6.12986)
(5.59384 0 6.10916)
(4.40195 0 6.63374)
(5.01933 0 6.6676)
(3.5958 0 7.12105)
(4.31219 0 7.24847)
(2.60399 0 7.54031)
(3.43524 0 7.81996)
(1.39407 0 7.73995)
(2.25605 0 8.31458)
(1.00237 0 8.46434)
(9.9865 0 0.181248)
(9.9948 0 0.124153)
(9.96027 0 0.300825)
(9.97747 0 0.246674)
(9.92177 0 0.421724)
(9.94676 0 0.369638)
(9.87134 0 0.545639)
(9.90388 0 0.494875)
(9.80924 0 0.674111)
(9.84978 0 0.623991)
(9.73569 0 0.808601)
(9.7848 0 0.758492)
(9.65082 0 0.950531)
(9.70904 0 0.899832)
(9.55473 0 1.1013)
(9.6226 0 1.04943)
(9.44745 0 1.2623)
(9.52558 0 1.20871)
(9.32894 0 1.43494)
(9.41801 0 1.37907)
(9.19911 0 1.62067)
(9.29991 0 1.56197)
(9.05783 0 1.82094)
(9.17122 0 1.75887)
(8.90484 0 2.0373)
(9.0318 0 1.97132)
(8.73978 0 2.27136)
(8.88145 0 2.20093)
(8.56214 0 2.52481)
(8.71984 0 2.44941)
(8.37113 0 2.79948)
(8.54646 0 2.71861)
(8.16567 0 3.09735)
(8.36054 0 3.01057)
(7.94416 0 3.4206)
(8.16097 0 3.32757)
(7.70431 0 3.77171)
(7.94611 0 3.67221)
(7.44283 0 4.1535)
(7.7136 0 4.04757)
(7.15498 0 4.56922)
(7.45999 0 4.45733)
(6.83388 0 5.0226)
(7.18026 0 4.90598)
(6.46946 0 5.51777)
(6.86701 0 5.39903)
(6.04686 0 6.05884)
(6.50919 0 5.9432)
(5.54383 0 6.64884)
(6.08984 0 6.54635)
(4.92674 0 7.28701)
(5.58281 0 7.21689)
(4.14457 0 7.96129)
(4.94205 0 7.96155)
(3.12127 0 8.63318)
(4.10869 0 8.77543)
(1.75586 0 9.12712)
(2.87779 0 9.62033)
(1.3643 0 10.1841)
(9.98754 0 0.190794)
(9.99523 0 0.130257)
(9.96333 0 0.316699)
(9.97932 0 0.258817)
(9.92786 0 0.444012)
(9.95115 0 0.387858)
(9.88148 0 0.574477)
(9.91188 0 0.519273)
(9.8245 0 0.709665)
(9.86244 0 0.6547)
(9.75713 0 0.851071)
(9.80318 0 0.795668)
(9.6796 0 1.00015)
(9.73427 0 0.943659)
(9.59203 0 1.15834)
(9.65584 0 1.10013)
(9.49454 0 1.32706)
(9.56808 0 1.26651)
(9.38718 0 1.50777)
(9.4711 0 1.44427)
(9.26999 0 1.70195)
(9.36502 0 1.63486)
(9.14293 0 1.91114)
(9.2499 0 1.83981)
(9.00591 0 2.13695)
(9.12576 0 2.06071)
(8.85875 0 2.3811)
(8.99255 0 2.29926)
(8.70112 0 2.64546)
(8.85015 0 2.55728)
(8.53251 0 2.93206)
(8.69832 0 2.83678)
(8.35216 0 3.24324)
(8.53662 0 3.14004)
(8.15888 0 3.58168)
(8.36435 0 3.46967)
(7.95093 0 3.95055)
(8.18046 0 3.82879)
(7.72578 0 4.35375)
(7.98336 0 4.22121)
(7.47966 0 4.79613)
(7.77068 0 4.65173)
(7.20702 0 5.28388)
(7.53892 0 5.12654)
(6.89946 0 5.82497)
(7.28284 0 5.65386)
(6.54401 0 6.42975)
(6.99445 0 6.24482)
(6.11994 0 7.11163)
(6.66102 0 6.91492)
(5.59249 0 7.88771)
(6.26196 0 7.68639)
(4.90017 0 8.77782)
(5.75684 0 8.59271)
(3.92603 0 9.80109)
(5.08634 0 9.685)
(2.43246 0 10.8556)
(3.97829 0 11.0486)
(2.14532 0 12.5666)
(9.98862 0 0.199558)
(9.99567 0 0.135832)
(9.96652 0 0.331253)
(9.98124 0 0.269898)
(9.9342 0 0.464407)
(9.95571 0 0.404461)
(9.89203 0 0.600807)
(9.92017 0 0.541462)
(9.84031 0 0.742051)
(9.87553 0 0.682567)
(9.77933 0 0.889653)
(9.82217 0 0.829321)
(9.70934 0 1.04509)
(9.7603 0 0.983224)
(9.63053 0 1.20983)
(9.69012 0 1.14575)
(9.5431 0 1.38533)
(9.61188 0 1.31835)
(9.4472 0 1.57304)
(9.5258 0 1.5025)
(9.34299 0 1.7745)
(9.43209 0 1.69967)
(9.23056 0 1.99127)
(9.33096 0 1.91142)
(9.10999 0 2.22502)
(9.22257 0 2.13937)
(8.98129 0 2.47755)
(9.10708 0 2.38525)
(8.84442 0 2.75083)
(8.98461 0 2.65095)
(8.69917 0 3.04708)
(8.8552 0 2.93859)
(8.5452 0 3.36886)
(8.71883 0 3.25057)
(8.38189 0 3.71921)
(8.57534 0 3.58974)
(8.2083 0 4.10182)
(8.42438 0 3.95951)
(8.02297 0 4.52137)
(8.26537 0 4.36415)
(7.8237 0 4.98389)
(8.09742 0 4.80913)
(7.60719 0 5.49743)
(7.91915 0 5.30169)
(7.36843 0 6.07302)
(7.72857 0 5.85169)
(7.09946 0 6.72634)
(7.52282 0 6.47306)
(6.78713 0 7.48055)
(7.29763 0 7.18637)
(6.40786 0 8.37237)
(7.0475 0 8.02399)
(5.91462 0 9.46617)
(6.7622 0 9.04238)
(5.1948 0 10.9081)
(6.46065 0 10.3571)
(3.88292 0 13.1772)
(6.18751 0 12.3032)
(5.25521 0 16.3696)
(0.190112 0 -0.112902)
(0.111497 0 -0.186203)
(0.370103 0 -0.095029)
(0.270806 0 -0.172127)
(0.516797 0 -0.0713753)
(0.428673 0 -0.136971)
(0.629025 0 -0.0500098)
(0.560144 0 -0.102315)
(0.710799 0 -0.0324167)
(0.660585 0 -0.0727898)
(0.766946 0 -0.0184609)
(0.73404 0 -0.0487981)
(0.802123 0 -0.00769405)
(0.785864 0 -0.02985)
(0.820631 0 0.000333698)
(0.820745 0 -0.0153351)
(0.826465 0 0.00592772)
(0.842545 0 -0.00471912)
(0.822913 0 0.00935102)
(0.854448 0 0.00280507)
(0.812857 0 0.0110758)
(0.859128 0 0.00775586)
(0.79907 0 0.0116358)
(0.858808 0 0.0103814)
(0.783466 0 0.0114106)
(0.855347 0 0.011472)
(0.76755 0 0.0106677)
(0.85048 0 0.0114256)
(0.752413 0 0.00962926)
(0.845479 0 0.010609)
(0.738729 0 0.00847843)
(0.841181 0 0.00936508)
(0.726846 0 0.00734752)
(0.83804 0 0.00793938)
(0.716848 0 0.00632574)
(0.836206 0 0.00652311)
(0.708577 0 0.00545136)
(0.83556 0 0.00526867)
(0.701828 0 0.00475297)
(0.835946 0 0.00419736)
(0.696209 0 0.00423886)
(0.837192 0 0.00341213)
(0.691421 0 0.00387602)
(0.839013 0 0.00283901)
(0.687176 0 0.00365306)
(0.841195 0 0.00245742)
(0.683104 0 0.00358522)
(0.843504 0 0.00230137)
(0.678693 0 0.00367695)
(0.845594 0 0.00243428)
(0.673352 0 0.00387515)
(0.84699 0 0.00287838)
(0.666617 0 0.00407851)
(0.847139 0 0.0035434)
(0.658427 0 0.00412532)
(0.84566 0 0.00420675)
(0.6495 0 0.00361907)
(0.842783 0 0.00447787)
(0.838912 0 0.00352615)
(0.17573 0 -0.269989)
(0.0930073 0 -0.358319)
(0.343986 0 -0.23482)
(0.240611 0 -0.333032)
(0.484676 0 -0.183748)
(0.379171 0 -0.268335)
(0.596962 0 -0.136653)
(0.496178 0 -0.204683)
(0.684614 0 -0.0974585)
(0.588046 0 -0.150811)
(0.751909 0 -0.0660705)
(0.658588 0 -0.107286)
(0.802846 0 -0.0415805)
(0.712208 0 -0.0730741)
(0.840939 0 -0.0229813)
(0.752691 0 -0.0468966)
(0.868988 0 -0.0093468)
(0.783119 0 -0.0274098)
(0.889333 0 0.00016192)
(0.805969 0 -0.0132648)
(0.90394 0 0.00633857)
(0.823169 0 -0.00350964)
(0.914257 0 0.00986143)
(0.836373 0 0.00261287)
(0.921768 0 0.0113157)
(0.84693 0 0.00595008)
(0.928006 0 0.011268)
(0.85585 0 0.00694732)
(0.934008 0 0.0102338)
(0.863926 0 0.00640247)
(0.940364 0 0.00865226)
(0.871713 0 0.00501514)
(0.947349 0 0.00688776)
(0.87956 0 0.00327259)
(0.954946 0 0.00521009)
(0.887648 0 0.00156648)
(0.962926 0 0.00381536)
(0.896 0 0.000186015)
(0.971339 0 0.00274188)
(0.904546 0 -0.00103523)
(0.979961 0 0.00192225)
(0.91318 0 -0.00182398)
(0.988709 0 0.0013459)
(0.921822 0 -0.00234722)
(0.99747 0 0.00105022)
(0.930453 0 -0.00261461)
(1.00604 0 0.00113572)
(0.939067 0 -0.00254069)
(1.01402 0 0.00171578)
(0.947569 0 -0.00197423)
(1.02091 0 0.0027579)
(0.955707 0 -0.000830035)
(1.02621 0 0.00395874)
(0.963125 0 0.000753781)
(1.02984 0 0.00482724)
(0.969549 0 0.00233892)
(1.03246 0 0.00475759)
(0.97488 0 0.00316561)
(0.979972 0 0.00290543)
(0.148676 0 -0.427821)
(0.0727349 0 -0.503939)
(0.286806 0 -0.37349)
(0.196757 0 -0.465126)
(0.400753 0 -0.295746)
(0.302406 0 -0.374729)
(0.491504 0 -0.224373)
(0.392182 0 -0.287418)
(0.562705 0 -0.16512)
(0.462043 0 -0.21419)
(0.617914 0 -0.11777)
(0.516075 0 -0.155268)
(0.660431 0 -0.0809611)
(0.557565 0 -0.109153)
(0.693144 0 -0.0530954)
(0.589318 0 -0.0740004)
(0.71843 0 -0.0325486)
(0.61372 0 -0.0478653)
(0.738294 0 -0.017878)
(0.632705 0 -0.0289552)
(0.754403 0 -0.00796715)
(0.647766 0 -0.0159328)
(0.76808 0 -0.00190011)
(0.66015 0 -0.00768557)
(0.780272 0 0.00118872)
(0.670941 0 -0.0030143)
(0.791246 0 0.00210677)
(0.680565 0 -0.000929911)
(0.801281 0 0.00156276)
(0.689289 0 -0.000631011)
(0.810686 0 0.00017284)
(0.6973 0 -0.00142104)
(0.819735 0 -0.00153161)
(0.704739 0 -0.00277385)
(0.828648 0 -0.00314485)
(0.711694 0 -0.00424835)
(0.83759 0 -0.00439385)
(0.718249 0 -0.00550994)
(0.84633 0 -0.00523427)
(0.724371 0 -0.00647115)
(0.854908 0 -0.00577879)
(0.729966 0 -0.00703286)
(0.86338 0 -0.00608771)
(0.735107 0 -0.00737032)
(0.871896 0 -0.00612565)
(0.739949 0 -0.00754454)
(0.880572 0 -0.00573773)
(0.744707 0 -0.00744479)
(0.889366 0 -0.00473622)
(0.749543 0 -0.00682754)
(0.898039 0 -0.00312326)
(0.754472 0 -0.00550365)
(0.906412 0 -0.00124182)
(0.759375 0 -0.00365095)
(0.914372 0 0.000426113)
(0.763992 0 -0.00175057)
(0.921582 0 0.00145495)
(0.768 0 -0.00045037)
(0.771543 0 0.000649444)
(0.118866 0 -0.55082)
(0.0523545 0 -0.62036)
(0.221226 0 -0.476341)
(0.146964 0 -0.563014)
(0.302302 0 -0.376187)
(0.213272 0 -0.450431)
(0.366146 0 -0.286127)
(0.27211 0 -0.345622)
(0.416121 0 -0.211989)
(0.315843 0 -0.258674)
(0.454861 0 -0.152973)
(0.34987 0 -0.188938)
(0.484816 0 -0.107244)
(0.375981 0 -0.134572)
(0.508086 0 -0.0726858)
(0.395901 0 -0.0932806)
(0.526295 0 -0.0472016)
(0.411192 0 -0.0625964)
(0.540637 0 -0.0290613)
(0.423052 0 -0.0402833)
(0.552162 0 -0.0169421)
(0.432263 0 -0.0248208)
(0.561866 0 -0.00956604)
(0.439404 0 -0.0149925)
(0.570411 0 -0.00562392)
(0.445174 0 -0.00929706)
(0.578042 0 -0.00404626)
(0.449962 0 -0.00640735)
(0.584928 0 -0.00400884)
(0.453793 0 -0.00545781)
(0.591139 0 -0.00484194)
(0.456617 0 -0.00567148)
(0.596632 0 -0.00603739)
(0.458399 0 -0.00644385)
(0.601323 0 -0.0072151)
(0.459025 0 -0.00730864)
(0.605148 0 -0.00815253)
(0.45848 0 -0.00794672)
(0.608036 0 -0.00873414)
(0.456807 0 -0.00826705)
(0.610054 0 -0.00897505)
(0.454055 0 -0.00825865)
(0.611451 0 -0.00901325)
(0.450347 0 -0.00819833)
(0.612572 0 -0.00888914)
(0.445891 0 -0.0081939)
(0.613708 0 -0.00843)
(0.441028 0 -0.0080865)
(0.614958 0 -0.00737568)
(0.436063 0 -0.00751739)
(0.616116 0 -0.00578998)
(0.431334 0 -0.0061277)
(0.616888 0 -0.0041747)
(0.426614 0 -0.00405725)
(0.617378 0 -0.00290445)
(0.420056 0 -0.00200249)
(0.617086 0 -0.00159399)
(0.412152 0 -0.000303766)
(0.403441 0 0.00101457)
(0.084103 0 -0.640594)
(0.0308287 0 -0.702734)
(0.146332 0 -0.545514)
(0.0903765 0 -0.622524)
(0.190787 0 -0.428116)
(0.112284 0 -0.49194)
(0.224581 0 -0.325708)
(0.1378 0 -0.37643)
(0.250449 0 -0.2422)
(0.152229 0 -0.281701)
(0.270153 0 -0.176051)
(0.163545 0 -0.206064)
(0.285249 0 -0.125045)
(0.171563 0 -0.147382)
(0.296993 0 -0.0866246)
(0.177057 0 -0.103011)
(0.306148 0 -0.0582454)
(0.18073 0 -0.0700028)
(0.312946 0 -0.0379218)
(0.183035 0 -0.0456527)
(0.31776 0 -0.0241858)
(0.184039 0 -0.0285333)
(0.32128 0 -0.0154332)
(0.18329 0 -0.0176431)
(0.3238 0 -0.0102186)
(0.181144 0 -0.0111499)
(0.325084 0 -0.007746)
(0.177654 0 -0.00732913)
(0.325095 0 -0.00714593)
(0.172095 0 -0.00546518)
(0.32371 0 -0.00734052)
(0.164577 0 -0.00472367)
(0.320837 0 -0.00768886)
(0.155593 0 -0.00452421)
(0.316448 0 -0.00794001)
(0.145047 0 -0.0044456)
(0.310518 0 -0.00802702)
(0.132822 0 -0.00416894)
(0.303133 0 -0.00806073)
(0.118693 0 -0.00367452)
(0.294399 0 -0.00816162)
(0.102573 0 -0.00295461)
(0.284539 0 -0.00828376)
(0.0848383 0 -0.00235231)
(0.274023 0 -0.00829789)
(0.0663266 0 -0.0021062)
(0.263443 0 -0.00802812)
(0.0480111 0 -0.00210598)
(0.253272 0 -0.00703314)
(0.0304849 0 -0.00190416)
(0.242708 0 -0.00477099)
(0.0142794 0 -0.000435343)
(0.229671 0 -0.00162231)
(0.000944504 0 0.00280186)
(0.213953 0 0.00105058)
(-0.010794 0 0.00607169)
(0.198682 0 0.00259812)
(-0.0237962 0 0.00735555)
(-0.0367414 0 0.00642145)
(0.0440568 0 -0.691963)
(0.00699721 0 -0.745885)
(0.0615811 0 -0.576443)
(0.0256917 0 -0.639283)
(0.0665803 0 -0.447088)
(0.000329854 0 -0.496607)
(0.0678643 0 -0.338236)
(-0.0107972 0 -0.377601)
(0.0665855 0 -0.250157)
(-0.0286994 0 -0.280562)
(0.0640855 0 -0.180923)
(-0.0439793 0 -0.203891)
(0.0612884 0 -0.127998)
(-0.0582167 0 -0.145009)
(0.058578 0 -0.088432)
(-0.0713762 0 -0.100765)
(0.0557233 0 -0.0591255)
(-0.0836445 0 -0.0676934)
(0.0520481 0 -0.0378848)
(-0.0952126 0 -0.0427497)
(0.0473063 0 -0.023903)
(-0.107022 0 -0.0248764)
(0.041619 0 -0.0157289)
(-0.123513 0 -0.0133607)
(0.034107 0 -0.0106015)
(-0.143572 0 -0.00562703)
(0.0238227 0 -0.00668803)
(-0.163135 0 5.34671e-05)
(0.0112794 0 -0.00391966)
(-0.182768 0 0.00332634)
(-0.00357417 0 -0.00244611)
(-0.202861 0 0.00544122)
(-0.0199247 0 -0.00171209)
(-0.22333 0 0.00640085)
(-0.0378514 0 -0.000945834)
(-0.244089 0 0.00724972)
(-0.0580726 0 0.000371744)
(-0.264947 0 0.00871167)
(-0.0811575 0 0.00217181)
(-0.286026 0 0.010683)
(-0.106776 0 0.00382097)
(-0.307673 0 0.0126023)
(-0.133619 0 0.00475892)
(-0.33008 0 0.0135635)
(-0.160086 0 0.00492725)
(-0.352829 0 0.0132157)
(-0.18494 0 0.00475355)
(-0.374934 0 0.011942)
(-0.207345 0 0.00513143)
(-0.395523 0 0.0104612)
(-0.225864 0 0.00692127)
(-0.413923 0 0.00954333)
(-0.239444 0 0.00958423)
(-0.428036 0 0.009947)
(-0.249887 0 0.0111976)
(-0.437454 0 0.0114359)
(-0.258949 0 0.0103813)
(-0.44626 0 0.0119006)
(-0.453271 0 0.0102842)
(-0.00491004 0 -0.698089)
(-0.0215552 0 -0.741076)
(-0.0332921 0 -0.563625)
(-0.0489633 0 -0.612141)
(-0.0694255 0 -0.428597)
(-0.121858 0 -0.462869)
(-0.10466 0 -0.319904)
(-0.174915 0 -0.345479)
(-0.137562 0 -0.233417)
(-0.228666 0 -0.251275)
(-0.167076 0 -0.166954)
(-0.275861 0 -0.17824)
(-0.193 0 -0.11736)
(-0.318249 0 -0.12301)
(-0.215755 0 -0.0809419)
(-0.356788 0 -0.0819117)
(-0.2361 0 -0.0533967)
(-0.392538 0 -0.0512349)
(-0.256304 0 -0.0309535)
(-0.426113 0 -0.0267909)
(-0.280576 0 -0.0128302)
(-0.455924 0 -0.0061575)
(-0.310272 0 -0.000489736)
(-0.483453 0 0.00900009)
(-0.341266 0 0.0065041)
(-0.511259 0 0.0171607)
(-0.370096 0 0.0106936)
(-0.53762 0 0.0207489)
(-0.397101 0 0.0133742)
(-0.562386 0 0.0222535)
(-0.422575 0 0.0147707)
(-0.586199 0 0.0228747)
(-0.447084 0 0.0155825)
(-0.609457 0 0.0227772)
(-0.470339 0 0.0165596)
(-0.631957 0 0.0224208)
(-0.491892 0 0.0179885)
(-0.653198 0 0.0224406)
(-0.511891 0 0.0195883)
(-0.672858 0 0.0231215)
(-0.530874 0 0.0206391)
(-0.691156 0 0.0241297)
(-0.549491 0 0.0205034)
(-0.708791 0 0.0246016)
(-0.567859 0 0.0191095)
(-0.726254 0 0.023849)
(-0.585375 0 0.0169201)
(-0.743259 0 0.0218428)
(-0.6012 0 0.0146762)
(-0.759049 0 0.0191947)
(-0.614787 0 0.013232)
(-0.772886 0 0.016865)
(-0.625846 0 0.0130424)
(-0.784183 0 0.0157653)
(-0.634275 0 0.0132596)
(-0.792942 0 0.0157659)
(-0.641095 0 0.0125498)
(-0.799972 0 0.0153213)
(-0.804272 0 0.0138931)
(-0.055653 0 -0.653551)
(-0.05663 0 -0.686567)
(-0.136613 0 -0.50657)
(-0.133218 0 -0.534718)
(-0.218068 0 -0.373344)
(-0.255776 0 -0.386813)
(-0.295218 0 -0.270128)
(-0.355564 0 -0.275144)
(-0.365088 0 -0.189958)
(-0.448246 0 -0.189081)
(-0.427532 0 -0.128833)
(-0.529215 0 -0.12397)
(-0.483657 0 -0.0824882)
(-0.599788 0 -0.0753831)
(-0.535358 0 -0.0470712)
(-0.661555 0 -0.0390748)
(-0.58372 0 -0.0198626)
(-0.713936 0 -0.0121113)
(-0.626693 0 0.000738144)
(-0.758006 0 0.00715229)
(-0.660459 0 0.0153426)
(-0.793959 0 0.0198831)
(-0.685885 0 0.0242943)
(-0.821534 0 0.0281456)
(-0.708067 0 0.0287951)
(-0.844831 0 0.0334695)
(-0.729809 0 0.0305901)
(-0.866969 0 0.036356)
(-0.751554 0 0.0310303)
(-0.888354 0 0.0374945)
(-0.772996 0 0.0306954)
(-0.909308 0 0.0375483)
(-0.793979 0 0.0298509)
(-0.929861 0 0.0367976)
(-0.814277 0 0.0290018)
(-0.949858 0 0.0356632)
(-0.833596 0 0.0286579)
(-0.96899 0 0.0347467)
(-0.851812 0 0.0289246)
(-0.987022 0 0.0344508)
(-0.869051 0 0.0293023)
(-1.00401 0 0.0345976)
(-0.885615 0 0.0289779)
(-1.02031 0 0.0344229)
(-0.901601 0 0.0274363)
(-1.03615 0 0.0331034)
(-0.916657 0 0.0248283)
(-1.05129 0 0.0303528)
(-0.930197 0 0.0218981)
(-1.06511 0 0.0266676)
(-0.941784 0 0.0195728)
(-1.07698 0 0.0231082)
(-0.951118 0 0.0182656)
(-1.08661 0 0.0206764)
(-0.958198 0 0.0173934)
(-1.09422 0 0.0194028)
(-0.964134 0 0.0162483)
(-1.10011 0 0.0182984)