/*--------------------------------*- C++ -*----------------------------------*\
  =========                 |
  \\      /  F ield         | OpenFOAM: The Open Source CFD Toolbox
   \\    /   O peration     | Website:  https://openfoam.org
    \\  /    A nd           | Version:  dev
     \\/     M anipulation  |
\*---------------------------------------------------------------------------*/
FoamFile
{
    version     2.0;
    format      ascii;
    class       volScalarField;
    location    "4.5";
    object      p;
}
// * * * * * * * * * * * * * * * * * * * * * * * * * * * * * * * * * * * * * //

dimensions      [0 2 -2 0 0 0 0];

internalField   nonuniform List<scalar> 
2790
(
147.125
147.032
147.299
147.87
148.65
149.608
150.74
152.047
153.523
155.164
156.964
158.915
161.008
163.233
165.574
168.009
170.514
173.053
175.584
178.059
180.417
182.594
184.525
186.145
187.405
188.279
188.716
188.771
188.822
189.035
146.922
146.94
147.232
147.8
148.576
149.53
150.658
151.959
153.428
155.061
156.851
158.791
160.874
163.088
165.418
167.843
170.339
172.872
175.402
177.88
180.249
182.444
184.399
186.047
187.332
188.206
188.603
188.658
188.79
189.075
146.723
146.811
147.122
147.68
148.443
149.385
150.498
151.78
153.228
154.836
156.598
158.507
160.555
162.73
165.019
167.401
169.853
172.344
174.836
177.283
179.633
181.825
183.798
185.488
186.839
187.814
188.407
188.763
189.078
189.377
146.498
146.617
146.941
147.49
148.238
149.163
150.257
151.515
152.934
154.508
156.232
158.097
160.096
162.217
164.445
166.763
169.147
171.57
173.997
176.388
178.695
180.867
182.849
184.588
186.043
187.195
188.063
188.734
189.287
189.806
146.238
146.37
146.702
147.244
147.976
148.88
149.948
151.175
152.556
154.088
155.762
157.571
159.507
161.557
163.709
165.945
168.243
170.578
172.919
175.233
177.478
179.613
181.595
183.386
184.956
186.299
187.429
188.392
189.203
189.949
145.937
146.075
146.409
146.941
147.653
148.531
149.567
150.756
152.094
153.573
155.188
156.931
158.792
160.76
162.821
164.959
167.154
169.383
171.62
173.835
175.998
178.075
180.037
181.858
183.521
185.023
186.369
187.575
188.595
189.513
145.594
145.733
146.065
146.583
147.273
148.121
149.12
150.265
151.551
152.971
154.518
156.184
157.958
159.831
161.788
163.814
165.89
167.996
170.109
172.205
174.26
176.251
178.158
179.969
181.674
183.275
184.769
186.148
187.313
188.36
145.209
145.347
145.671
146.173
146.837
147.65
148.608
149.703
150.931
152.284
153.754
155.334
157.012
158.778
160.619
162.518
164.459
166.423
168.391
170.342
172.26
174.127
175.934
177.676
179.355
180.974
182.529
184.001
185.251
186.402
144.783
144.917
145.23
145.713
146.348
147.124
148.035
149.075
150.239
151.518
152.904
154.388
155.961
157.609
159.32
161.078
162.867
164.671
166.47
168.249
169.992
171.69
173.338
174.938
176.5
178.035
179.544
181.014
182.285
183.524
144.317
144.445
144.745
145.206
145.808
146.543
147.404
148.385
149.479
150.677
151.972
153.353
154.81
156.33
157.9
159.504
161.125
162.748
164.353
165.927
167.455
168.929
170.347
171.715
173.048
174.367
175.687
177.025
178.225
179.53
143.811
143.933
144.218
144.654
145.222
145.912
146.719
147.636
148.655
149.768
150.965
152.236
153.57
154.952
156.37
157.806
159.243
160.664
162.051
163.386
164.653
165.843
166.95
167.978
168.942
169.871
170.801
171.8
172.762
174.08
143.269
143.384
143.652
144.06
144.591
145.235
145.985
146.834
147.774
148.796
149.89
151.045
152.248
153.485
154.74
155.997
157.235
158.436
159.578
160.64
161.602
162.444
163.152
163.718
164.144
164.454
164.696
165.004
165.386
166.56
142.692
142.799
143.049
143.428
143.92
144.515
145.204
145.983
146.84
147.768
148.754
149.788
150.854
151.939
153.024
154.09
155.117
156.081
156.956
157.715
158.328
158.763
158.985
158.959
158.656
158.058
157.183
156.191
155.243
155.748
142.083
142.182
142.412
142.761
143.212
143.755
144.383
145.088
145.86
146.69
147.565
148.473
149.399
150.326
151.234
152.103
152.909
153.623
154.214
154.646
154.876
154.853
154.514
153.782
152.559
150.729
148.166
144.865
140.917
138.881
141.444
141.534
141.744
142.061
142.47
142.96
143.524
144.154
144.839
145.569
146.331
147.111
147.892
148.658
149.386
150.052
150.63
151.086
151.382
151.473
151.299
150.789
149.844
148.329
146.05
142.718
137.874
130.858
120.397
108.176
1.37296
1.35434
1.2877
1.19465
1.09656
1.0036
0.918822
0.842444
0.773739
0.71162
0.654843
0.602168
0.552484
0.504874
0.458653
0.413401
0.36899
0.325587
0.283617
0.243632
0.206124
0.171355
0.13937
0.11028
0.0844719
0.0622273
0.0436844
0.028626
0.0161118
0.00441852
1.3249
1.30314
1.2403
1.15466
1.06449
0.978462
0.899333
0.827441
0.762252
0.702854
0.648158
0.597056
0.548535
0.501745
0.456052
0.411077
0.366738
0.323274
0.281197
0.241149
0.203677
0.169059
0.137348
0.108552
0.0828298
0.0607353
0.042477
0.0279095
0.0160466
0.00615087
1.27328
1.2468
1.18618
1.10744
1.02565
0.947359
0.874719
0.808095
0.747111
0.691021
0.638893
0.589759
0.542718
0.497002
0.452036
0.40749
0.363335
0.319885
0.277766
0.237749
0.200459
0.166135
0.134675
0.105985
0.080288
0.0580957
0.0401937
0.0265897
0.0159424
0.0062073
1.22538
1.19428
1.13511
1.06219
0.987993
0.91684
0.850278
0.788637
0.731679
0.678796
0.629193
0.582028
0.536499
0.491922
0.447783
0.403797
0.359971
0.316672
0.274605
0.234658
0.197555
0.163534
0.132352
0.103779
0.0780445
0.0558452
0.0380062
0.0247683
0.0150919
0.00565253
1.19506
1.15953
1.10191
1.03322
0.964439
0.898032
0.835412
0.776929
0.722478
0.671566
0.623495
0.577509
0.532885
0.489003
0.445405
0.401846
0.358353
0.315299
0.273405
0.233589
0.196643
0.162884
0.13216
0.10418
0.0789709
0.0569198
0.0389152
0.0252027
0.0149052
0.00504298
1.19397
1.15302
1.09629
1.02879
0.961788
0.896328
0.834273
0.776108
0.721841
0.671024
0.622993
0.577017
0.532405
0.488573
0.445096
0.401751
0.358566
0.315884
0.274355
0.234809
0.197988
0.164257
0.133545
0.105666
0.080663
0.0588379
0.0407943
0.0266405
0.0153996
0.00484621
1.23107
1.18268
1.12249
1.05106
0.979878
0.910846
0.845622
0.784823
0.728381
0.675782
0.626307
0.5792
0.53376
0.489396
0.445682
0.402396
0.35955
0.317433
0.276574
0.237621
0.201157
0.167508
0.136703
0.108674
0.0834935
0.0612551
0.0423237
0.0269998
0.0144492
0.00428828
1.31014
1.24993
1.17755
1.09436
1.01267
0.935323
0.863614
0.797726
0.737358
0.681789
0.630089
0.581357
0.534796
0.489744
0.445726
0.402507
0.360083
0.318727
0.278838
0.240823
0.205026
0.171671
0.140798
0.112453
0.0867118
0.0639314
0.0442418
0.027276
0.0131796
0.00370658
1.42664
1.34313
1.24846
1.14522
1.04787
0.959598
0.880364
0.808843
0.744046
0.685276
0.631334
0.581105
0.533644
0.488147
0.444027
0.401034
0.359209
0.318928
0.2805
0.243981
0.209275
0.176321
0.145047
0.115893
0.0895766
0.06634
0.0457787
0.0272255
0.0118484
0.00317454
1.55645
1.43754
1.31627
1.19334
1.07791
0.975432
0.886552
0.809928
0.74291
0.682887
0.628102
0.577321
0.529607
0.484072
0.439977
0.397123
0.356027
0.317265
0.280998
0.246724
0.213586
0.181013
0.149364
0.119468
0.0923384
0.0683981
0.0468722
0.0268351
0.0104615
0.00268509
1.65479
1.50873
1.35718
1.21196
1.08425
0.974587
0.881288
0.802031
0.734039
0.674083
0.619608
0.569201
0.522075
0.477282
0.433787
0.391334
0.35087
0.313651
0.279959
0.248602
0.217724
0.186084
0.153937
0.122807
0.0945075
0.0697715
0.0474445
0.0262647
0.00921103
0.0022584
1.71865
1.52984
1.35201
1.18901
1.0531
0.9424
0.851381
0.775583
0.711582
0.655373
0.603553
0.554912
0.509477
0.466477
0.42429
0.382394
0.342531
0.307255
0.277225
0.250144
0.222463
0.19191
0.158812
0.125697
0.0956677
0.0700785
0.0473384
0.0255578
0.00816556
0.00191527
1.67846
1.42655
1.23791
1.08525
0.964599
0.870124
0.793048
0.728387
0.674487
0.626858
0.580426
0.534617
0.491748
0.451774
0.411735
0.370179
0.330188
0.29687
0.271921
0.251226
0.228252
0.199045
0.164212
0.127932
0.0953425
0.0689043
0.0464334
0.0247969
0.00738831
0.00167214
1.37213
1.07447
0.954809
0.875927
0.804417
0.751418
0.705132
0.660061
0.622535
0.589417
0.551239
0.508221
0.468266
0.433251
0.397032
0.35542
0.313571
0.281572
0.263543
0.252379
0.236249
0.208519
0.170584
0.129277
0.0928692
0.0656687
0.0446011
0.0241396
0.00695746
0.00154216
0.628204
0.289135
0.413123
0.554437
0.57122
0.595363
0.600859
0.575436
0.554855
0.545079
0.520231
0.478059
0.439655
0.412039
0.382289
0.339221
0.291392
0.258501
0.250003
0.25371
0.247809
0.221581
0.178403
0.129317
0.0872423
0.0594892
0.0416904
0.0239045
0.00698198
0.00153142
140.765
140.845
141.034
141.318
141.683
142.119
142.616
143.168
143.763
144.39
145.035
145.683
146.317
146.917
147.459
147.918
148.262
148.454
148.447
148.187
147.601
146.592
145.028
142.714
139.351
134.445
127.074
115.322
93.1604
33.3632
140.037
140.109
140.275
140.525
140.843
141.222
141.651
142.122
142.623
143.144
143.668
144.18
144.662
145.092
145.445
145.692
145.798
145.722
145.411
144.801
143.808
142.318
140.172
137.14
132.862
126.755
117.786
104.221
84.6959
56.2417
139.268
139.329
139.472
139.686
139.957
140.277
140.635
141.023
141.429
141.841
142.242
142.617
142.945
143.204
143.367
143.402
143.273
142.933
142.327
141.385
140.014
138.095
135.462
131.886
127.042
120.473
111.591
99.7562
85.5214
68.9023
138.457
138.509
138.627
138.804
139.027
139.286
139.573
139.877
140.187
140.488
140.766
141.003
141.178
141.267
141.242
141.071
140.713
140.123
139.241
137.995
136.294
134.021
131.023
127.105
122.018
115.472
107.168
96.7748
84.2305
69.0965
137.608
137.648
137.743
137.882
138.056
138.254
138.468
138.688
138.901
139.093
139.248
139.348
139.372
139.295
139.089
138.719
138.147
137.324
136.192
134.682
132.708
130.163
126.918
122.818
117.681
111.309
103.5
94.0135
82.6807
69.7093
136.721
136.751
136.821
136.923
137.047
137.184
137.326
137.461
137.577
137.661
137.696
137.663
137.54
137.304
136.925
136.369
135.599
134.566
133.217
131.487
129.298
126.56
123.168
119.002
113.932
107.824
100.555
92.0264
82.2284
71.5742
135.8
135.82
135.865
135.929
136.004
136.08
136.15
136.202
136.224
136.202
136.119
135.957
135.695
135.308
134.767
134.041
133.092
131.877
130.345
128.438
126.092
123.231
119.773
115.631
110.719
104.957
98.2917
90.711
82.2589
73.271
134.848
134.857
134.878
134.905
134.93
134.947
134.946
134.917
134.847
134.722
134.527
134.243
133.849
133.321
132.633
131.753
130.648
129.277
127.597
125.558
123.105
120.181
116.723
112.674
107.98
102.601
96.5221
89.7652
82.3796
74.6373
133.868
133.867
133.864
133.854
133.832
133.791
133.721
133.613
133.454
133.232
132.93
132.53
132.014
131.357
130.536
129.522
128.283
126.786
124.991
122.858
120.344
117.405
113.998
110.086
105.639
100.644
95.105
89.0573
82.5544
75.8236
132.865
132.854
132.827
132.782
132.713
132.616
132.48
132.296
132.054
131.739
131.337
130.831
130.202
129.43
128.492
127.362
126.012
124.414
122.535
120.343
117.806
114.89
111.57
107.822
103.634
99.0072
93.959
88.5289
82.77
76.867
131.843
131.822
131.773
131.693
131.58
131.428
131.23
130.975
130.653
130.252
129.757
129.154
128.425
127.55
126.511
125.284
123.845
122.171
120.236
118.015
115.483
112.621
109.409
105.84
101.91
97.6298
93.0229
88.1286
82.9947
77.7697
130.807
130.777
130.706
130.593
130.438
130.235
129.977
129.655
129.26
128.779
128.2
127.509
126.691
125.728
124.603
123.297
121.79
120.062
118.095
115.868
113.366
110.576
107.488
104.102
100.421
96.4613
92.2474
87.8158
83.2083
78.544
129.762
129.724
129.632
129.488
129.293
129.042
128.729
128.345
127.882
127.329
126.674
125.906
125.01
123.972
122.776
121.408
119.851
118.089
116.108
113.896
111.441
108.736
105.78
102.574
99.1292
95.4613
91.5951
87.5632
83.4012
79.2054
128.715
128.668
128.557
128.385
128.152
127.857
127.492
127.052
126.527
125.909
125.187
124.351
123.389
122.288
121.037
119.621
118.03
116.25
114.273
112.089
109.693
107.083
104.259
101.228
98.0021
94.598
91.0386
87.3522
83.5692
79.7673
127.671
127.616
127.488
127.288
127.021
126.685
126.274
125.782
125.202
124.527
123.747
122.853
121.835
120.684
119.388
117.939
116.327
114.544
112.583
110.439
108.11
105.596
102.903
100.038
97.0136
93.8464
90.557
87.1698
83.7103
80.2418
126.636
126.575
126.43
126.206
125.907
125.534
125.081
124.543
123.915
123.189
122.359
121.416
120.353
119.162
117.835
116.364
114.743
112.967
111.031
108.934
106.677
104.261
101.694
98.9833
96.1426
93.1869
90.1348
87.0069
83.8247
80.6399
125.618
125.55
125.39
125.144
124.817
124.411
123.921
123.342
122.672
121.903
121.03
120.048
118.949
117.727
116.378
114.895
113.275
111.514
109.611
107.566
105.381
103.061
100.613
98.0458
95.3716
92.6044
89.7605
86.8576
83.9138
80.9715
124.623
124.55
124.376
124.11
123.758
123.322
122.799
122.186
121.479
120.674
119.766
118.751
117.625
116.382
115.019
113.532
111.92
110.181
108.315
106.325
104.213
101.984
99.6475
97.2112
94.6868
92.0868
89.4255
86.7181
83.9797
81.2454
123.659
123.58
123.395
123.111
122.737
122.275
121.724
121.081
120.343
119.507
118.571
117.531
116.384
115.127
113.758
112.274
110.676
108.963
107.137
105.201
103.16
101.018
98.7847
96.4675
94.0771
91.6251
89.1237
86.5861
84.025
81.4694
122.732
122.649
122.454
122.154
121.761
121.277
120.701
120.033
119.269
118.409
117.451
116.392
115.231
113.966
112.595
111.12
109.539
107.856
106.071
104.189
102.214
100.154
98.0147
95.8049
93.534
91.2124
88.8509
86.4605
84.0524
81.6506
121.851
121.764
121.559
121.246
120.836
120.334
119.738
119.048
118.264
117.385
116.409
115.337
114.167
112.898
111.531
110.067
108.508
106.854
105.11
103.28
101.369
99.383
97.3293
95.2157
93.0507
90.8436
88.6039
86.3412
84.065
81.7954
121.023
120.933
120.72
120.396
119.972
119.453
118.84
118.133
117.332
116.438
115.45
114.369
113.194
111.926
110.566
109.116
107.578
105.955
104.251
102.47
100.617
98.6991
96.7222
94.694
92.6223
90.5152
88.3812
86.2287
84.066
81.9098
120.257
120.163
119.944
119.609
119.173
118.641
118.014
117.294
116.48
115.575
114.578
113.491
112.314
111.05
109.699
108.265
106.749
105.156
103.489
101.753
99.9539
98.0967
96.1882
94.2352
92.2448
90.2245
88.1816
86.1238
84.0581
81.9987
119.56
119.463
119.238
118.895
118.449
117.905
117.268
116.536
115.713
114.799
113.796
112.707
111.531
110.273
108.932
107.514
106.02
104.455
102.823
101.128
99.3762
97.5729
95.7243
93.8366
91.9165
89.9707
88.0058
86.0286
84.0454
82.0681
118.94
118.842
118.611
118.26
117.805
117.253
116.606
115.866
115.035
114.116
113.11
112.02
110.847
109.595
108.265
106.862
105.389
103.85
102.248
100.59
98.8802
97.1238
95.3267
93.495
91.6347
89.7519
87.8527
85.9432
84.029
82.1201
118.409
118.307
118.07
117.712
117.25
116.691
116.037
115.291
114.455
113.532
112.525
111.435
110.266
109.021
107.702
106.313
104.859
103.342
101.768
100.142
98.4672
96.7505
94.997
93.2122
91.4017
89.5714
87.7267
85.8731
84.0161
82.1638
117.974
117.869
117.625
117.259
116.79
116.225
115.565
114.814
113.975
113.049
112.041
110.953
109.788
108.55
107.241
105.865
104.426
102.929
101.378
99.7775
98.1325
96.4483
94.73
92.9829
91.2125
89.424
87.6226
85.8134
84.0012
82.193
117.648
117.537
117.284
116.912
116.438
115.868
115.204
114.45
113.608
112.681
111.673
110.587
109.426
108.193
106.892
105.527
104.101
102.62
101.087
99.5071
97.8854
96.2266
94.5359
92.8183
91.079
89.323
87.5552
85.7804
84.0035
82.2304
117.446
117.311
117.041
116.663
116.187
115.614
114.948
114.192
113.349
112.422
111.415
110.331
109.173
107.945
106.65
105.293
103.877
102.406
100.886
99.3202
97.7142
96.0726
94.4003
92.7023
90.9835
89.2488
87.5028
85.7503
83.9955
82.2436
117.427
117.229
116.93
116.546
116.067
115.491
114.822
114.064
113.22
112.293
111.287
110.205
109.049
107.825
106.535
105.183
103.773
102.311
100.799
99.2429
97.6472
96.0167
94.3562
92.6706
90.9647
89.2431
87.5107
85.7717
84.0306
82.2915
-50.544
-30.3252
-11.0417
35.9044
28.5342
16.6506
51.4358
39.3841
28.2222
52.8405
42.4331
34.4092
57.1706
48.8954
42.1517
61.5524
54.6535
48.7715
64.8181
58.9439
53.9013
67.4068
62.3871
58.0825
69.5887
65.2602
61.5545
71.43
67.654
64.4292
72.9779
69.6496
66.8142
74.2817
71.3207
68.8032
75.382
72.7252
70.4697
76.311
73.9084
71.8709
77.0951
74.907
73.0526
77.7562
75.7503
74.0509
78.3124
76.4624
74.8948
78.779
77.0628
75.6081
79.1689
77.568
76.21
79.4931
77.9917
76.7169
79.7611
78.3456
77.1422
79.9816
78.64
77.4977
80.1613
78.883
77.793
80.308
79.0837
78.0378
80.4245
79.2454
78.2366
80.5224
79.3806
78.4019
80.5931
79.4811
78.5272
80.6651
79.5759
78.6392
80.6986
79.6257
78.703
80.7675
79.7087
78.7924
-2.41674
-2.28118
-0.826035
0.291851
0.340844
0.416678
0.47681
0.455678
0.457129
0.502984
0.502686
0.447697
0.4003
0.382481
0.366593
0.321485
0.261516
0.224221
0.230008
0.258262
0.267839
0.242005
0.189482
0.128018
0.0771347
0.0489708
0.0375182
0.0248363
0.00773852
0.00163609
2.91323
-0.108863
1.28779
0.876459
-0.353554
-0.197919
0.368959
0.427154
0.420624
0.513679
0.501618
0.393266
0.326238
0.343219
0.370363
0.321294
0.231977
0.176275
0.197387
0.264631
0.297557
0.270091
0.20198
0.121792
0.0580396
0.0304719
0.0313426
0.0284156
0.00987939
0.00182028
13.9827
5.58031
2.76717
0.442513
0.032994
1.16854
1.3787
0.28084
-0.149453
0.163333
0.51669
0.403989
0.296933
0.349012
0.40545
0.317692
0.16104
0.0645107
0.117168
0.273883
0.358279
0.321208
0.225802
0.117437
0.0338641
0.00581525
0.0255994
0.0390634
0.0158685
0.00199843
23.6804
13.82
7.97525
4.21947
2.41581
1.76011
0.681482
-0.00379962
0.193177
1.34562
1.37176
0.310138
-0.110226
-0.000639913
0.333606
0.378093
0.13882
-0.0155129
0.109079
0.33779
0.456672
0.380444
0.238908
0.0894606
-0.0243349
-0.0542546
0.00163897
0.0559734
0.0282541
0.00168115
32.8249
23.0748
15.7653
10.4701
6.81978
4.33776
2.49757
1.46083
1.12266
1.18553
0.71381
0.14944
-0.0327067
0.527503
1.0736
0.675372
0.00822443
-0.400064
-0.366383
0.235265
0.598971
0.482404
0.274817
0.0779621
-0.0677006
-0.0923022
0.0321903
0.123155
0.0651967
0.000351223
40.7822
31.8641
23.9825
17.5539
12.628
8.97812
6.30098
4.41078
3.13311
2.25406
1.49073
0.88455
0.561716
0.653481
0.663607
0.425954
-0.093556
-0.454936
-0.103301
0.856226
1.03396
0.545045
0.239529
-0.00652085
-0.200334
-0.267669
-0.125506
0.143761
0.125435
-0.00528127
47.2736
39.4733
31.7025
24.8163
19.1918
14.7292
11.2048
8.45156
6.35392
4.78053
3.55238
2.56585
1.85773
1.44511
1.13386
0.77556
0.282763
-0.0360094
0.149657
0.599957
0.754702
0.559834
0.290996
0.0191393
-0.211937
-0.262744
0.0927511
0.417267
0.258752
-0.0165321
52.5607
45.8326
38.5785
31.7515
25.8699
20.9242
16.7842
13.361
10.5867
8.36564
6.5657
5.09515
3.9443
3.09441
2.43408
1.82369
1.22933
0.822165
0.753213
0.893417
0.938348
0.739423
0.422353
0.117458
-0.109971
-0.158434
0.0417319
0.235789
0.285668
-0.0697721
56.8736
51.0586
44.4763
38.0046
32.1878
27.0764
22.6066
18.7429
15.4551
12.6875
10.3616
8.41414
6.81292
5.52172
4.46178
3.54388
2.74758
2.14659
1.8061
1.65227
1.48493
1.17759
0.79611
0.446952
0.193052
0.0944873
0.164453
0.261933
0.222684
-0.306035
60.393
55.3261
49.4244
43.4405
37.8871
32.842
28.2763
24.1856
20.571
17.4132
14.6737
12.3121
10.2954
8.58825
7.13852
5.89227
4.82744
3.96532
3.32513
2.8546
2.4308
1.96757
1.48633
1.05178
0.712969
0.504087
0.418439
0.351473
0.136966
-0.523037
63.2831
58.8238
53.5438
48.0758
42.8793
38.0376
33.5377
29.3912
25.6187
22.2251
19.1977
16.5156
14.1563
12.0944
10.2971
8.72983
7.37112
6.21887
5.26986
4.4858
3.79273
3.13142
2.49852
1.92686
1.44866
1.08036
0.803599
0.534929
0.143183
-0.602346
65.6766
61.7127
56.9743
51.9949
47.1795
42.6066
38.2691
34.1841
30.381
26.8782
23.679
20.7775
18.1632
15.8218
13.7337
11.8773
10.2349
8.79659
7.55087
6.46932
5.50543
4.61756
3.79285
3.04373
2.38654
1.82512
1.33649
0.856273
0.290708
-0.532055
67.673
64.117
59.8412
55.3014
50.854
46.5694
42.4413
38.4868
34.7375
31.2177
27.9401
24.9087
22.1224
19.5759
17.2594
15.1606
13.2671
11.5683
10.0517
8.696
7.47071
6.34645
5.30825
4.35646
3.49539
2.72088
2.01025
1.31551
0.573181
-0.338349
69.3472
66.1308
62.2483
58.0946
53.9854
49.9827
46.0791
42.289
38.6429
35.1669
31.8779
28.786
25.8962
23.2098
20.7241
18.4335
16.3307
14.4074
12.653
11.0523
9.58462
8.22904
6.97147
5.80603
4.72958
3.73373
2.79829
1.88837
0.962803
-0.058934
70.7571
67.8257
64.278
60.4603
56.6544
52.9148
49.2324
45.6184
42.1004
38.7039
35.4476
32.3442
29.4026
26.6285
24.024
21.5882
19.3181
17.2085
15.252
13.4378
11.752
10.1797
8.70855
7.33029
6.03801
4.8216
3.66393
2.53986
1.42313
0.265214
71.9477
69.2571
65.9954
62.4689
58.9317
55.4317
51.9582
48.5191
45.1385
41.8403
38.643
35.5606
32.6039
29.7812
27.0976
24.5558
22.1558
19.8955
17.7705
15.7738
13.896
12.1264
10.4549
8.87292
7.37206
5.94203
4.56841
3.23274
1.9176
0.59795
72.9546
70.4685
67.4517
64.1778
60.8769
57.5922
54.3112
51.0388
47.7956
44.6035
41.4799
38.4387
35.4917
32.6484
29.916
27.2992
24.8005
22.4203
20.1567
18.0056
15.961
14.0153
12.1604
10.3884
8.69082
7.0578
5.47701
3.93403
2.41584
0.913294
73.8065
71.4944
68.688
65.6329
62.5395
59.4464
56.3402
53.2229
50.1121
47.0271
43.9839
40.9959
38.0747
35.2305
32.4713
29.8036
27.2313
24.7566
22.3798
20.0991
17.9108
15.8098
13.7896
11.8434
9.96327
8.13993
6.36243
4.61847
2.89639
1.19665
74.5267
72.3631
69.7375
66.8722
63.9602
61.0367
58.0874
55.1122
52.1256
49.1446
46.1836
43.2549
40.3696
37.5379
34.7683
32.0678
29.4417
26.8935
24.4249
22.0358
19.7245
17.4874
15.3198
13.2157
11.168
9.16798
7.20546
5.26893
3.34636
1.44301
75.1345
73.0976
70.6276
67.9266
65.1729
62.3987
59.5893
56.7426
53.8706
50.9879
48.1074
45.2402
42.3965
39.5861
36.8176
34.0982
31.4339
28.8291
26.2865
23.8073
21.391
19.0356
16.7375
14.4916
12.2914
10.1288
7.99389
5.8752
3.75957
1.65379
75.6459
73.7172
71.3807
68.8218
66.2057
63.5622
60.8765
58.1448
55.3769
52.5855
49.7816
46.9752
44.1757
41.3921
38.6327
35.9047
33.2143
30.5665
27.9647
25.4109
22.9057
20.4481
18.0352
15.6629
13.3252
11.0143
8.72046
6.43182
4.13395
1.8333
76.0748
74.238
72.0161
69.5795
67.0824
64.5527
61.9755
59.3457
56.6712
53.9629
51.2303
48.4823
45.7271
42.973
40.2278
37.4986
34.7915
32.1116
29.4629
26.848
24.2679
21.7225
19.2096
16.7256
14.265
11.8202
9.38154
6.93663
4.46996
1.98664
76.4323
74.6734
72.5491
70.2172
67.8224
65.3911
62.9081
60.3676
57.7758
55.1419
52.4744
49.7807
47.0682
44.3444
41.6165
38.891
36.1742
33.4709
30.7854
28.1206
25.478
22.8579
20.2586
17.6769
15.1077
12.5435
9.97458
7.38817
4.76801
2.11734
76.7293
75.0358
72.9942
70.7511
68.4435
66.0961
63.6942
61.2309
58.7111
56.1429
53.5334
50.889
48.2163
45.522
42.8125
40.0941
37.3725
34.6526
31.9386
29.2336
26.5393
23.8563
21.1832
18.5172
15.8533
13.1842
10.4999
7.78759
5.03039
2.22925
76.972
75.3328
73.3602
71.1916
68.9571
66.6805
64.347
61.9494
59.4913
56.9797
54.4207
51.82
49.1831
46.5161
43.8249
41.1151
38.3921
35.6607
32.925
30.1879
27.4514
24.7161
21.981
19.2434
16.4983
13.7385
10.9542
8.13205
5.25513
2.32202
77.1721
75.5771
73.6611
71.5539
69.3795
67.1612
64.8844
62.5413
60.1348
57.6708
55.1547
52.5913
49.9856
47.3429
44.6685
41.9678
39.2456
36.5065
33.7543
30.9921
28.2218
25.444
22.6579
19.8607
17.0477
14.2116
11.3425
8.42697
5.44791
2.40083
77.3265
75.7664
73.8952
71.8365
69.71
67.538
65.3065
63.0071
60.642
58.2164
55.7351
53.2023
50.6224
48.0001
45.3403
42.6478
39.9274
37.1832
34.4189
31.6375
28.8408
26.0294
23.2026
20.3577
17.4898
14.5918
11.6534
8.66151
5.59884
2.45866
77.4575
75.923
74.0859
72.0641
69.9736
67.8368
65.6395
63.3734
61.0398
58.6436
56.1889
53.6797
51.1197
48.5134
45.8652
43.1796
40.4611
37.7135
34.9405
32.1449
29.3284
26.4918
23.634
20.7525
17.8425
14.8965
11.9045
8.85289
5.72429
2.50814
77.538
76.0196
74.2048
72.2081
70.142
68.0286
65.8543
63.6104
61.298
58.9215
56.4848
53.9915
51.4451
48.8496
46.2094
43.5287
40.8116
38.0621
35.2834
32.4785
29.6489
26.7953
23.9167
21.0106
18.0719
15.0933
12.0644
8.97126
5.79653
2.52797
77.6267
76.1095
74.3069
72.3252
70.2728
68.172
66.0098
63.7776
61.4762
59.1098
56.6822
54.1966
51.6567
49.0662
46.4293
43.7501
41.0328
38.2811
35.4983
32.6873
29.8496
26.9859
24.0952
21.175
18.2201
15.2232
12.1734
9.05594
5.85095
2.53448
)
;

boundaryField
{
    inlet
    {
        type            zeroGradient;
    }
    outlet
    {
        type            fixedValue;
        value           uniform 0;
    }
    flap
    {
        type            zeroGradient;
    }
    upperWall
    {
        type            zeroGradient;
    }
    lowerWall
    {
        type            zeroGradient;
    }
    frontAndBack
    {
        type            empty;
    }
}


// ************************************************************************* //
