/*--------------------------------*- C++ -*----------------------------------*\
  =========                 |
  \\      /  F ield         | OpenFOAM: The Open Source CFD Toolbox
   \\    /   O peration     | Website:  https://openfoam.org
    \\  /    A nd           | Version:  dev
     \\/     M anipulation  |
\*---------------------------------------------------------------------------*/
FoamFile
{
    version     2.0;
    format      ascii;
    class       volScalarField;
    location    "3";
    object      p;
}
// * * * * * * * * * * * * * * * * * * * * * * * * * * * * * * * * * * * * * //

dimensions      [0 2 -2 0 0 0 0];

internalField   nonuniform List<scalar> 
2790
(
147.6
147.508
147.775
148.346
149.126
150.084
151.216
152.523
154
155.641
157.44
159.391
161.485
163.71
166.05
168.486
170.99
173.529
176.061
178.535
180.893
183.071
185.001
186.622
187.881
188.755
189.192
189.247
189.298
189.51
147.398
147.415
147.708
148.276
149.052
150.006
151.134
152.435
153.905
155.537
157.327
159.268
161.351
163.565
165.894
168.32
170.816
173.349
175.879
178.357
180.725
182.92
184.875
186.523
187.808
188.682
189.079
189.134
189.266
189.551
147.199
147.287
147.598
148.156
148.919
149.861
150.974
152.256
153.704
155.312
157.074
158.984
161.032
163.207
165.496
167.878
170.33
172.82
175.312
177.76
180.109
182.302
184.274
185.964
187.315
188.29
188.883
189.239
189.554
189.853
146.974
147.092
147.416
147.966
148.714
149.639
150.733
151.991
153.41
154.985
156.709
158.574
160.573
162.693
164.922
167.239
169.624
172.047
174.474
176.864
179.171
181.343
183.325
185.064
186.519
187.671
188.539
189.21
189.762
190.281
146.713
146.846
147.178
147.72
148.452
149.356
150.424
151.651
153.033
154.564
156.238
158.048
159.984
162.034
164.186
166.422
168.72
171.055
173.396
175.709
177.954
180.089
182.071
183.862
185.432
186.775
187.905
188.867
189.678
190.425
146.412
146.55
146.885
147.417
148.129
149.007
150.043
151.233
152.57
154.05
155.665
157.408
159.269
161.237
163.298
165.436
167.631
169.86
172.097
174.312
176.474
178.552
180.514
182.334
183.997
185.499
186.845
188.051
189.071
189.989
146.07
146.209
146.54
147.059
147.749
148.596
149.596
150.741
152.027
153.447
154.994
156.66
158.435
160.308
162.265
164.291
166.367
168.473
170.586
172.682
174.736
176.727
178.635
180.445
182.151
183.751
185.245
186.624
187.789
188.836
145.685
145.822
146.146
146.649
147.312
148.126
149.084
150.18
151.407
152.76
154.231
155.811
157.489
159.255
161.096
162.995
164.936
166.9
168.868
170.819
172.737
174.604
176.411
178.153
179.831
181.45
183.005
184.477
185.727
186.878
145.259
145.392
145.706
146.189
146.823
147.599
148.511
149.552
150.715
151.994
153.38
154.865
156.437
158.086
159.797
161.555
163.345
165.148
166.947
168.726
170.47
172.167
173.815
175.415
176.977
178.511
180.02
181.49
182.761
183.999
144.792
144.92
145.221
145.681
146.284
147.019
147.88
148.861
149.955
151.154
152.449
153.83
155.287
156.808
158.377
159.981
161.603
163.225
164.831
166.405
167.933
169.407
170.825
172.192
173.525
174.843
176.163
177.501
178.701
180.005
144.287
144.408
144.694
145.129
145.697
146.388
147.195
148.112
149.131
150.244
151.442
152.713
154.047
155.43
156.847
158.283
159.721
161.142
162.529
163.863
165.131
166.321
167.428
168.456
169.419
170.347
171.277
172.275
173.237
174.556
143.744
143.859
144.127
144.536
145.067
145.711
146.461
147.31
148.25
149.273
150.367
151.522
152.725
153.962
155.218
156.474
157.713
158.914
160.056
161.118
162.08
162.922
163.63
164.196
164.621
164.931
165.173
165.48
165.861
167.034
143.167
143.274
143.524
143.904
144.396
144.99
145.68
146.459
147.317
148.244
149.231
150.265
151.331
152.416
153.501
154.568
155.595
156.559
157.435
158.194
158.807
159.242
159.463
159.438
159.134
158.536
157.66
156.666
155.716
156.22
142.558
142.657
142.887
143.236
143.687
144.23
144.858
145.563
146.336
147.166
148.042
148.95
149.876
150.803
151.712
152.581
153.387
154.101
154.693
155.125
155.355
155.332
154.994
154.262
153.038
151.208
148.643
145.339
141.386
139.347
141.919
142.009
142.219
142.536
142.945
143.436
144
144.63
145.315
146.045
146.807
147.588
148.37
149.135
149.864
150.531
151.109
151.565
151.862
151.953
151.78
151.27
150.325
148.81
146.531
143.199
138.353
131.333
120.862
108.623
2.29872
2.26874
2.16846
2.02811
1.87668
1.7276
1.58527
1.45083
1.32427
1.20502
1.09234
0.985719
0.884957
0.790055
0.701003
0.618042
0.542605
0.477981
0.427782
0.392302
0.369009
0.352003
0.338684
0.326412
0.310191
0.285165
0.248588
0.198544
0.134056
0.0569862
2.22331
2.18887
2.09521
1.96625
1.82623
1.68688
1.55254
1.42458
1.30316
1.18786
1.07813
0.973683
0.874595
0.781016
0.692813
0.609887
0.533612
0.468108
0.418529
0.38659
0.366409
0.35139
0.339559
0.328994
0.31459
0.290816
0.254079
0.203075
0.136349
0.0543175
2.14616
2.10541
2.01579
1.89685
1.76829
1.63922
1.5136
1.39291
1.27738
1.16666
1.06037
0.958477
0.8614
0.769566
0.682742
0.600296
0.523446
0.457573
0.409342
0.37902
0.358221
0.344203
0.33677
0.330096
0.31817
0.295217
0.259669
0.20964
0.142624
0.0545633
2.079
2.03199
1.94466
1.83333
1.71441
1.59431
1.47653
1.36253
1.25252
1.1462
1.04326
0.943852
0.848732
0.758741
0.673753
0.5923
0.514003
0.444607
0.397238
0.375103
0.362483
0.349517
0.340257
0.334751
0.323549
0.298842
0.25972
0.207692
0.140035
0.0526141
2.0437
1.9905
1.90538
1.7987
1.68576
1.57108
1.45804
1.34806
1.24141
1.1378
1.03697
0.939113
0.845084
0.755957
0.672165
0.593448
0.519889
0.455815
0.404585
0.372564
0.358399
0.349771
0.343164
0.337987
0.326215
0.301149
0.261676
0.208207
0.137906
0.0497582
2.05731
1.99589
1.91173
1.80464
1.69168
1.57679
1.46356
1.35351
1.24698
1.14376
1.04357
0.946496
0.853125
0.764202
0.680233
0.601717
0.529894
0.468086
0.420246
0.388102
0.368392
0.355821
0.347116
0.338904
0.32404
0.296491
0.254898
0.200014
0.129712
0.0445003
2.12722
2.05636
1.96468
1.85058
1.72985
1.60828
1.48945
1.37488
1.26488
1.15922
1.05762
0.960104
0.867001
0.778721
0.695504
0.617716
0.546334
0.484294
0.43562
0.401387
0.378189
0.361931
0.349403
0.336722
0.317953
0.287962
0.244787
0.188505
0.118566
0.0394166
2.24949
2.16177
2.0517
1.92123
1.78553
1.65138
1.52249
1.40035
1.28499
1.17583
1.07224
0.973895
0.880811
0.793083
0.710676
0.63378
0.563593
0.502444
0.452903
0.415613
0.388261
0.36748
0.350033
0.332089
0.30879
0.275815
0.23079
0.173356
0.105013
0.034215
2.39622
2.28151
2.14312
1.98963
1.83618
1.68872
1.54961
1.41973
1.29917
1.18695
1.08197
0.983431
0.89094
0.804279
0.723312
0.648078
0.579398
0.519048
0.468762
0.428829
0.397523
0.372037
0.349302
0.325875
0.297883
0.261691
0.214612
0.15612
0.0903108
0.0288916
2.52278
2.37493
2.21307
2.03735
1.86551
1.70526
1.55876
1.42514
1.30275
1.18997
1.08531
0.987776
0.896875
0.812226
0.733385
0.660102
0.592894
0.533118
0.482107
0.439994
0.405267
0.375362
0.347414
0.318532
0.285804
0.246256
0.19704
0.137699
0.07511
0.0235105
2.61288
2.43182
2.24237
2.04929
1.86616
1.69865
1.54801
1.41308
1.29157
1.1809
1.0788
0.983977
0.896086
0.814785
0.739241
0.668649
0.603136
0.543919
0.492357
0.448636
0.411233
0.377507
0.344701
0.310521
0.273058
0.230077
0.178726
0.11864
0.0596574
0.0181079
2.63164
2.41879
2.2035
1.99687
1.8118
1.64871
1.50461
1.37642
1.26176
1.15775
1.06135
0.971239
0.887845
0.811366
0.740493
0.673459
0.609869
0.551152
0.499222
0.454566
0.41543
0.378703
0.341511
0.302169
0.259892
0.213362
0.159881
0.0994255
0.0442262
0.0127097
2.49605
2.2429
2.03533
1.85082
1.6898
1.55002
1.42606
1.31373
1.21258
1.12054
1.03338
0.949703
0.871943
0.801838
0.737361
0.674941
0.613373
0.554826
0.502554
0.457726
0.418056
0.379359
0.338281
0.29376
0.246389
0.196103
0.140627
0.0802076
0.028915
0.0073333
2.09502
1.81427
1.69097
1.59526
1.4948
1.40279
1.3159
1.22821
1.14612
1.07163
0.997299
0.920701
0.848599
0.786367
0.730673
0.674256
0.614477
0.555167
0.502218
0.458097
0.419488
0.38012
0.335598
0.285584
0.23249
0.178052
0.120777
0.0609717
0.0139629
0.00205247
1.26114
0.965709
1.10479
1.2399
1.23794
1.2189
1.18807
1.12809
1.06465
1.01393
0.957394
0.886815
0.818115
0.765
0.7218
0.673393
0.614453
0.552335
0.497735
0.455415
0.420156
0.381832
0.334175
0.277886
0.217937
0.158663
0.0999167
0.0417311
-0.000476444
-0.00308166
141.239
141.32
141.509
141.793
142.158
142.594
143.092
143.644
144.239
144.866
145.512
146.16
146.794
147.394
147.937
148.397
148.741
148.933
148.927
148.668
148.082
147.074
145.51
143.198
139.836
134.93
127.557
115.801
93.6209
33.7339
140.512
140.583
140.749
140.999
141.318
141.697
142.126
142.597
143.099
143.62
144.144
144.657
145.139
145.569
145.923
146.17
146.277
146.201
145.892
145.283
144.291
142.802
140.657
137.626
133.35
127.246
118.279
104.718
85.1996
56.7779
139.742
139.804
139.947
140.161
140.432
140.752
141.11
141.499
141.905
142.317
142.719
143.094
143.422
143.682
143.845
143.881
143.752
143.413
142.808
141.867
140.498
138.58
135.949
132.376
127.535
120.972
112.098
100.278
86.0733
69.5188
138.932
138.983
139.102
139.279
139.502
139.761
140.048
140.352
140.662
140.964
141.243
141.48
141.655
141.744
141.72
141.549
141.193
140.603
139.722
138.478
136.779
134.507
131.512
127.598
122.516
115.977
107.685
97.3104
84.7951
69.7045
138.082
138.123
138.217
138.357
138.531
138.729
138.943
139.163
139.376
139.568
139.724
139.825
139.849
139.773
139.567
139.198
138.627
137.804
136.674
135.166
133.193
130.651
127.409
123.313
118.182
111.818
104.021
94.5509
83.241
70.2994
137.195
137.225
137.295
137.397
137.521
137.659
137.8
137.936
138.053
138.137
138.172
138.139
138.017
137.781
137.403
136.848
136.078
135.047
133.699
131.971
129.784
127.049
123.66
119.498
114.434
108.334
101.076
92.5617
82.7824
72.1518
136.274
136.293
136.339
136.403
136.478
136.555
136.624
136.677
136.699
136.677
136.595
136.433
136.171
135.785
135.245
134.52
133.572
132.358
130.827
128.922
126.578
123.72
120.265
116.128
111.222
105.467
98.8109
91.2421
82.805
73.8349
135.321
135.331
135.351
135.378
135.404
135.421
135.421
135.391
135.322
135.197
135.002
134.719
134.325
133.798
133.11
132.232
131.128
129.758
128.079
126.042
123.591
120.669
117.215
113.17
108.481
103.108
97.0377
90.2904
82.9162
75.1867
134.341
134.34
134.337
134.327
134.305
134.264
134.195
134.087
133.929
133.707
133.405
133.006
132.49
131.834
131.014
130
128.763
127.266
125.472
123.341
120.829
117.893
114.489
110.581
106.139
101.148
95.6159
89.5756
83.0811
76.3592
133.338
133.327
133.3
133.255
133.187
133.089
132.953
132.77
132.528
132.213
131.811
131.306
130.678
129.906
128.969
127.839
126.491
124.894
123.016
120.826
118.29
115.377
112.059
108.314
104.13
99.5077
94.4645
89.0399
83.2869
77.39
132.316
132.295
132.246
132.166
132.053
131.901
131.703
131.448
131.127
130.726
130.231
129.629
128.9
128.026
126.987
125.761
124.323
122.65
120.716
118.496
115.966
113.106
109.897
106.33
102.403
98.1259
93.5227
88.6322
83.5024
78.2813
131.279
131.249
131.178
131.066
130.911
130.708
130.45
130.128
129.733
129.252
128.674
127.983
127.165
126.203
125.079
123.773
122.267
120.54
118.573
116.348
113.847
111.059
107.973
104.588
100.91
96.9526
92.7413
88.3122
83.7073
79.0453
130.234
130.196
130.104
129.961
129.765
129.515
129.201
128.818
128.355
127.802
127.148
126.379
125.484
124.446
123.251
121.883
120.326
118.566
116.586
114.374
111.92
109.217
106.262
103.058
99.6141
95.9478
92.0832
88.0528
83.8921
79.6973
129.187
129.14
129.029
128.856
128.624
128.328
127.964
127.524
126.999
126.381
125.66
124.824
123.862
122.762
121.511
120.095
118.504
116.726
114.749
112.566
110.171
107.561
104.738
101.708
98.4829
95.0796
91.521
87.8353
84.0526
80.2507
128.142
128.088
127.959
127.759
127.493
127.156
126.745
126.254
125.674
124.999
124.219
123.325
122.307
121.156
119.861
118.413
116.801
115.018
113.057
110.913
108.585
106.072
103.379
100.514
97.4903
94.3233
91.034
87.6467
84.1868
80.7176
127.107
127.046
126.901
126.677
126.378
126.005
125.552
125.015
124.386
123.66
122.83
121.888
120.825
119.634
118.307
116.836
115.215
113.439
111.504
109.407
107.149
104.734
102.166
99.456
96.6152
93.6593
90.6066
87.4781
84.2949
81.1088
126.089
126.021
125.861
125.614
125.288
124.881
124.391
123.813
123.142
122.373
121.501
120.518
119.419
118.198
116.849
115.366
113.746
111.985
110.082
108.037
105.852
103.531
101.083
98.5151
95.8402
93.0723
90.2274
87.3234
84.3782
81.4341
125.094
125.02
124.847
124.58
124.228
123.792
123.269
122.656
121.949
121.144
120.236
119.221
118.094
116.851
115.488
114.002
112.389
110.65
108.784
106.793
104.68
102.452
100.114
97.6771
95.1516
92.5506
89.8879
87.179
84.4387
81.7023
124.129
124.05
123.865
123.581
123.207
122.745
122.193
121.55
120.812
119.977
119.04
118
116.853
115.596
114.226
112.742
111.144
109.43
107.604
105.667
103.625
101.483
99.2483
96.93
94.5384
92.085
89.5819
87.0424
84.4791
81.9211
123.202
123.118
122.923
122.623
122.23
121.746
121.17
120.501
119.738
118.878
117.919
116.86
115.699
114.433
113.062
111.586
110.005
108.321
106.535
104.653
102.677
100.616
98.4754
96.2643
93.992
91.6686
89.3051
86.9126
84.5021
82.0976
122.32
122.233
122.028
121.715
121.305
120.802
120.206
119.516
118.732
117.852
116.877
115.804
114.633
113.364
111.997
110.533
108.972
107.318
105.573
103.742
101.83
99.8425
97.7874
95.6722
93.5055
91.2964
89.0545
86.7894
84.5106
82.2382
121.492
121.401
121.189
120.864
120.44
119.921
119.308
118.601
117.8
116.905
115.917
114.835
113.659
112.391
111.031
109.58
108.041
106.417
104.712
102.93
101.076
99.1562
97.1778
95.1479
93.0742
90.9649
88.8286
86.6735
84.508
82.3488
120.725
120.631
120.412
120.077
119.641
119.109
118.482
117.761
116.947
116.041
115.044
113.956
112.779
111.514
110.163
108.728
107.211
105.617
103.949
102.211
100.411
98.5518
96.6415
94.6865
92.694
90.6714
88.626
86.5655
84.4969
82.4343
120.027
119.931
119.706
119.362
118.916
118.373
117.734
117.003
116.179
115.265
114.262
113.171
111.995
110.736
109.395
107.975
106.481
104.914
103.281
101.584
99.8311
98.0261
96.1755
94.2858
92.3634
90.4151
88.4476
86.4675
84.4813
82.5008
119.408
119.309
119.078
118.727
118.272
117.72
117.072
116.332
115.501
114.581
113.574
112.483
111.31
110.057
108.727
107.323
105.848
104.308
102.705
101.045
99.3335
97.5752
95.7761
93.9422
92.0795
90.1942
88.2922
86.3798
84.4625
82.5502
118.876
118.774
118.537
118.179
117.717
117.157
116.503
115.757
114.92
113.997
112.989
111.898
110.728
109.482
108.162
106.773
105.317
103.799
102.224
100.595
98.9191
97.2005
95.4448
93.6577
91.8448
90.0118
88.1643
86.3077
84.4475
82.5919
118.441
118.335
118.091
117.726
117.256
116.691
116.031
115.28
114.439
113.513
112.505
111.416
110.25
109.011
107.7
106.323
104.884
103.385
101.832
100.23
98.5833
96.897
95.1765
93.4271
91.6542
89.8629
88.0586
86.2463
84.4309
82.6193
118.115
118.003
117.75
117.378
116.904
116.334
115.67
114.915
114.072
113.145
112.136
111.049
109.887
108.653
107.351
105.985
104.558
103.075
101.541
99.959
98.3353
96.6744
94.9815
93.2615
91.5196
89.7608
87.99
86.2122
84.432
82.6554
117.912
117.778
117.507
117.129
116.653
116.08
115.414
114.657
113.813
112.886
111.878
110.793
109.634
108.405
107.109
105.75
104.333
102.861
101.339
99.7715
98.1635
96.5198
94.8452
93.1448
91.4233
89.6858
87.9369
86.1812
84.4232
82.6677
117.894
117.695
117.397
117.012
116.533
115.957
115.288
114.529
113.684
112.757
111.75
110.667
109.51
108.285
106.994
105.64
104.23
102.765
101.252
99.694
98.0963
96.4637
94.8009
93.1128
91.4042
89.6799
87.9444
86.2023
84.4579
82.7154
-50.4286
-30.2656
-10.7901
36.515
29.2793
17.6648
52.1452
40.1732
29.1141
53.4975
43.126
35.1428
57.7963
49.5485
42.8324
62.1579
55.2797
49.4161
65.4017
59.5416
54.5105
67.9696
62.9594
58.6624
70.1334
65.8114
62.1106
71.9591
68.1874
64.9655
73.4933
70.1676
67.3339
74.7851
71.8255
69.3088
75.8749
73.2185
70.9631
76.7944
74.3918
72.3538
77.5701
75.3814
73.5262
78.2237
76.2169
74.5164
78.7732
76.9219
75.3531
79.2338
77.5161
76.0599
79.6182
78.0156
76.6561
79.9376
78.4343
77.1578
80.2012
78.7837
77.5785
80.4178
79.0741
77.93
80.5939
79.3135
78.2216
80.7377
79.5111
78.4633
80.8516
79.6702
78.6595
80.9473
79.8033
78.8226
81.0162
79.902
78.946
81.0869
79.9955
79.0567
81.1196
80.0444
79.1196
81.1882
80.1271
79.2088
-1.657
-1.48543
-0.0862148
0.923599
0.993974
1.01503
1.05081
1.01544
0.965172
0.954036
0.925567
0.854117
0.779383
0.735113
0.711729
0.675368
0.615206
0.54637
0.488088
0.449072
0.420801
0.386004
0.335183
0.270972
0.202163
0.136838
0.077056
0.0222004
-0.0141585
-0.00798622
4.01282
0.846882
1.80247
1.51131
0.510123
0.488662
0.912887
0.983585
0.891068
0.90747
0.905531
0.812867
0.714875
0.686476
0.705272
0.689782
0.621776
0.537353
0.470565
0.43679
0.422059
0.394921
0.34028
0.265073
0.184091
0.110684
0.0503972
0.0016561
-0.0270405
-0.0125551
14.9278
6.46444
3.54072
1.45872
0.897412
1.46587
1.69611
0.980199
0.4716
0.622714
0.903449
0.832263
0.677016
0.657115
0.726004
0.72314
0.628947
0.51527
0.435603
0.414026
0.426807
0.414147
0.353022
0.261353
0.163253
0.0787395
0.0183712
-0.0200636
-0.037973
-0.0165
24.4632
14.6289
8.808
5.09059
3.14277
2.26528
1.42772
0.809156
0.701486
1.35184
1.52287
0.847878
0.403923
0.363734
0.600651
0.776529
0.668354
0.507817
0.405955
0.397504
0.445914
0.447998
0.372586
0.256202
0.135077
0.0361956
-0.0234776
-0.0447881
-0.0449405
-0.0194902
33.5408
23.8174
16.5146
11.2015
7.50771
4.99454
3.21969
2.12411
1.58251
1.48572
1.1428
0.735481
0.449531
0.568147
1.13676
1.17099
0.68515
0.399861
0.260779
0.272614
0.405369
0.495076
0.413501
0.261616
0.109908
-0.00800648
-0.0682155
-0.0660985
-0.036781
-0.0202184
41.4486
32.5456
24.6671
18.2336
13.2945
9.61956
6.91871
4.97802
3.6187
2.69275
1.95402
1.38411
0.976765
0.87118
0.999002
0.934363
0.703041
0.461116
0.322887
0.373935
0.651223
0.706878
0.452214
0.231767
0.0418885
-0.0976661
-0.159034
-0.12818
-0.0350447
-0.0327223
47.8959
40.1056
32.3406
25.4543
19.8184
15.3306
11.78
8.99661
6.85414
5.2372
3.9931
3.01006
2.26553
1.79697
1.53917
1.3051
1.0107
0.702145
0.504525
0.47853
0.586393
0.597067
0.462472
0.258234
0.0478629
-0.111615
-0.171466
-0.127751
0.067329
0.00303141
53.1484
46.4265
39.1765
32.3486
26.4576
21.4948
17.3357
13.8889
11.0808
8.82483
7.00707
5.53288
4.36624
3.49511
2.86107
2.33934
1.83998
1.38959
1.06628
0.898778
0.838226
0.755812
0.581073
0.337093
0.0970229
-0.0835064
-0.166636
-0.149007
-0.00527808
-0.108779
57.4342
51.6221
45.0416
38.568
32.7441
27.6204
23.1347
19.2509
15.9383
13.1466
10.8052
8.84979
7.23827
5.93789
4.89467
4.02333
3.25959
2.60457
2.08977
1.72242
1.46118
1.21991
0.93579
0.62061
0.327912
0.101755
-0.0312876
-0.0714544
-0.0522579
-0.368562
60.9317
55.8656
49.9639
43.9774
38.4178
33.3626
28.7834
24.6763
21.0432
17.8672
15.1132
12.7412
10.7156
9.00272
7.55906
6.32808
5.26311
4.34835
3.58731
2.97421
2.47534
2.03204
1.5984
1.17422
0.789681
0.474653
0.243937
0.0827747
-0.081705
-0.584848
63.8038
59.3439
54.0627
48.5914
43.3891
38.5385
34.0273
29.8672
26.0797
22.6708
19.6297
16.9361
14.5671
12.4977
10.6966
9.126
7.75123
6.55145
5.51724
4.63606
3.88039
3.2096
2.58971
2.01224
1.49006
1.03914
0.662448
0.333874
-0.0229142
-0.660293
66.1822
62.2169
57.4763
52.4932
47.6721
43.0913
38.7438
34.6471
30.831
27.3146
24.1022
21.1885
18.5628
16.2106
14.1119
12.2423
10.577
9.09689
7.78849
6.63696
5.61987
4.70796
3.87513
3.10924
2.41188
1.78753
1.23027
0.710923
0.167081
-0.583448
68.1657
64.6078
60.3292
55.7854
51.3323
47.0403
42.9032
38.9382
35.1771
31.6449
28.3544
25.3102
22.5109
19.9509
17.6198
15.5029
13.5842
11.8487
10.2834
8.87428
7.60338
6.44897
5.39069
4.41548
3.5182
2.69547
1.93651
1.21458
0.484426
-0.380891
69.8289
66.6101
62.7244
58.5664
54.4516
50.4419
46.5299
42.7301
39.073
35.5851
32.2836
29.1784
26.2747
23.5733
21.0707
18.76
16.6319
14.676
12.882
11.2383
9.73081
8.34335
7.05987
5.86779
4.75865
3.72471
2.75351
1.82291
0.902267
-0.0921317
71.2293
68.2952
64.744
60.9217
57.1101
53.3638
49.6734
46.0503
42.5219
39.114
35.8453
32.7285
29.7726
26.9827
24.3604
21.9041
19.6095
17.4707
15.4804
13.6301
11.9091
10.3054
8.80623
7.40037
6.07821
4.83027
3.64424
2.50255
1.38502
0.240931
72.4115
69.718
66.4525
62.9213
59.3784
55.8718
52.3906
48.9427
45.5521
42.2429
39.0335
35.9379
32.9668
30.1281
27.4267
24.8647
22.4415
20.1547
18
15.9718
14.0624
12.2628
10.5633
8.95393
7.42537
5.96787
4.57
3.21776
1.89722
0.581815
73.411
70.9218
67.901
64.6222
61.3157
58.0245
54.7359
51.455
48.2022
44.9995
41.864
38.8099
35.8486
32.9896
30.2397
27.6034
25.0829
22.6783
20.3881
18.2088
16.1354
14.1615
12.2795
10.481
8.75733
7.0993
5.49639
3.93681
2.40952
0.904339
74.2562
71.941
69.1304
66.0704
62.9713
59.8718
56.7581
53.6325
50.5124
47.417
44.3623
41.3617
38.4266
35.567
32.791
30.1046
27.5117
25.0146
22.6134
20.307
18.0923
15.9648
13.9186
11.947
10.0421
8.19517
6.39652
4.63538
2.90121
1.1938
74.9705
72.8037
70.1738
67.3035
64.3859
61.4559
58.4994
55.516
52.5204
49.5293
46.5571
43.6161
40.7173
37.8707
35.0849
32.3666
29.7211
27.1519
24.6607
22.2479
19.912
17.65
15.4577
13.3292
11.2577
9.23494
7.25162
5.29709
3.36
1.44517
75.5731
73.5329
71.0585
68.3525
65.5931
62.8125
59.9959
57.1412
54.2603
51.3678
48.4765
45.5973
42.7406
39.9159
37.1317
34.3954
31.7127
29.0881
26.5243
24.0229
21.5836
19.2047
16.883
14.6136
12.3904
10.2056
8.04986
5.91233
3.78016
1.65995
76.0798
74.1477
71.8069
69.2428
66.621
63.9712
61.2784
58.5389
55.7623
52.9612
50.1468
47.3289
44.5167
41.7193
38.9448
36.2006
33.4927
30.8261
28.2044
25.6296
23.1027
20.6226
18.1871
15.7921
13.432
11.0992
8.78437
6.47607
4.16001
1.84258
76.5046
74.6644
72.4381
69.9962
67.4935
64.9575
62.3733
59.7358
57.0527
54.335
51.5922
48.8329
46.0654
43.298
40.5384
37.7935
35.0697
32.3719
29.7042
27.0693
24.4684
21.9015
19.3668
16.8608
14.3782
11.9117
9.45184
6.98653
4.50033
1.99831
76.8585
75.0961
72.9674
70.6302
68.2298
65.7922
63.3023
60.7542
58.154
55.5109
52.8333
50.1287
47.4043
44.6675
41.9256
39.1852
36.4522
33.7317
31.028
28.344
25.6815
23.0407
20.4202
17.817
15.2261
12.6404
10.05
7.44255
4.80175
2.13085
77.1523
75.4553
73.4092
71.161
68.8476
66.494
64.0853
61.6145
59.0865
56.5092
53.8898
51.2348
48.5505
45.8435
43.1205
40.3875
37.6503
34.9139
32.1823
29.4588
26.7452
24.0421
21.3484
18.6613
15.976
13.2853
10.5794
7.84551
5.06677
2.24417
77.3923
75.7496
73.7725
71.5987
69.3585
67.0757
64.7355
62.3304
59.8642
57.3437
54.7751
52.1639
49.5157
46.8364
44.1319
41.4079
38.6698
35.9223
33.1695
30.4144
27.6591
24.9043
22.149
19.3906
16.6243
13.843
11.0369
8.19275
5.29357
2.33801
77.5902
75.9916
74.0711
71.9587
69.7787
67.5542
65.2707
62.9202
60.5057
58.0329
55.5073
52.9336
50.3168
47.6621
44.9748
42.2602
39.5232
36.7683
33.9995
31.2198
28.4311
25.6341
22.8281
20.0104
17.1764
14.3188
11.4277
8.48984
5.48796
2.41764
77.7428
76.179
74.3034
72.2395
70.1073
67.9292
65.691
63.3843
61.0113
58.577
56.0863
53.5434
50.9525
48.3184
45.6459
42.9398
40.2049
37.4452
34.6646
31.866
29.0512
26.221
23.3746
20.5093
17.6205
14.701
11.7406
8.72602
5.64009
2.47605
77.8724
76.3343
74.4927
72.4657
70.3696
68.2267
66.0228
63.7494
61.4079
59.0031
56.5392
54.0199
51.4491
48.8312
46.1704
43.4714
40.7386
37.9758
35.1868
32.3741
29.5398
26.6845
23.8073
20.9057
17.9748
15.0073
11.9932
8.91867
5.7665
2.526
77.952
76.43
74.6107
72.6088
70.5371
68.4176
66.2367
63.9855
61.6653
59.2803
56.8344
54.3311
51.7739
49.1669
46.5143
43.8203
41.0891
38.3245
35.5299
32.7081
29.8608
26.9887
24.0909
21.1647
18.2052
15.2051
12.1539
9.0378
5.83928
2.54604
78.0404
76.5196
74.7125
72.7256
70.6677
68.5608
66.392
64.1526
61.8434
59.4685
57.0317
54.5362
51.9856
49.3836
46.7343
44.0419
41.3105
38.5438
35.7453
32.9174
30.0621
27.18
24.2701
21.3298
18.3542
15.3357
12.2636
9.12313
5.89421
2.55284
)
;

boundaryField
{
    inlet
    {
        type            zeroGradient;
    }
    outlet
    {
        type            fixedValue;
        value           uniform 0;
    }
    flap
    {
        type            zeroGradient;
    }
    upperWall
    {
        type            zeroGradient;
    }
    lowerWall
    {
        type            zeroGradient;
    }
    frontAndBack
    {
        type            empty;
    }
}


// ************************************************************************* //
