/*--------------------------------*- C++ -*----------------------------------*\
  =========                 |
  \\      /  F ield         | OpenFOAM: The Open Source CFD Toolbox
   \\    /   O peration     | Website:  https://openfoam.org
    \\  /    A nd           | Version:  dev
     \\/     M anipulation  |
\*---------------------------------------------------------------------------*/
FoamFile
{
    version     2.0;
    format      ascii;
    class       surfaceScalarField;
    location    "3";
    object      phi;
}
// * * * * * * * * * * * * * * * * * * * * * * * * * * * * * * * * * * * * * //

dimensions      [0 3 -1 0 0 0 0];

internalField   nonuniform List<scalar> 
5457
(
0.198418
0.00158243
0.19648
0.00193746
0.194192
0.00228821
0.191508
0.00268373
0.188427
0.00308137
0.18495
0.00347695
0.181071
0.00387875
0.176777
0.00429418
0.172049
0.00472837
0.166863
0.00518534
0.161195
0.00566858
0.155014
0.00618106
0.148289
0.00672494
0.140987
0.00730125
0.133078
0.00790934
0.124532
0.00854622
0.115326
0.0092056
0.105449
0.00987684
0.0949057
0.0105437
0.0837226
0.0111831
0.0719583
0.0117642
0.0597104
0.0122479
0.047122
0.0125884
0.034382
0.01274
0.0216871
0.0126949
0.00903714
0.01265
-0.00291625
0.0119534
-0.00847201
0.00555576
-0.00804286
-0.000429144
-0.00804286
0.199928
0.00165432
0.199176
0.00268999
0.197965
0.00349927
0.196331
0.00431707
0.194271
0.0051416
0.191781
0.00596721
0.188854
0.00680592
0.185476
0.00767123
0.181631
0.00857344
0.177296
0.00952087
0.172444
0.0105208
0.167045
0.0115795
0.161069
0.0127017
0.15448
0.0138901
0.147245
0.0151443
0.139332
0.0164591
0.130714
0.0178233
0.121374
0.0192167
0.11131
0.0206082
0.10054
0.0219526
0.0891163
0.0231883
0.0771291
0.0242352
0.0647234
0.0249941
0.0521161
0.0253472
0.0396559
0.0251551
0.0281059
0.0242001
0.0185952
0.021464
0.00879728
0.0153537
0.00118354
0.0071846
-0.00685933
0.199781
0.00187381
0.199087
0.00338393
0.197946
0.00464034
0.196409
0.00585385
0.194482
0.00706791
0.192163
0.00828645
0.189446
0.00952355
0.18632
0.0107969
0.182772
0.0121215
0.178783
0.0135099
0.174331
0.014973
0.169389
0.0165205
0.163931
0.0181603
0.157924
0.0198972
0.151336
0.0217324
0.144134
0.0236607
0.136289
0.0256685
0.127775
0.0277303
0.118579
0.0298047
0.108701
0.0318301
0.0981697
0.0337198
0.0870478
0.0353572
0.0754514
0.0365905
0.0635745
0.0372241
0.0517327
0.0369968
0.0403975
0.0355353
0.0297392
0.0321223
0.0191662
0.0259267
0.00959767
0.0167532
0.00273834
0.199703
0.00217079
0.199008
0.00407933
0.197887
0.005761
0.196376
0.00736492
0.194488
0.00895621
0.192221
0.0105526
0.189573
0.0121714
0.186537
0.0138331
0.183103
0.0155561
0.179256
0.0173565
0.174981
0.0192481
0.170258
0.0212432
0.165067
0.023352
0.159382
0.0255814
0.153181
0.027934
0.146436
0.0304057
0.139122
0.0329826
0.131215
0.0356373
0.122696
0.0383235
0.113555
0.0409706
0.103799
0.0434763
0.0934565
0.0456994
0.0825956
0.0474514
0.0713331
0.0484867
0.0598413
0.0484886
0.0483173
0.0470593
0.0368113
0.0436283
0.0251881
0.0375498
0.0133357
0.0286056
0.016074
0.199667
0.00250343
0.198964
0.0047827
0.197863
0.00686246
0.196381
0.00884678
0.194532
0.0108052
0.192317
0.0127675
0.189733
0.0147555
0.186774
0.0167919
0.183432
0.018898
0.179696
0.0210924
0.175553
0.0233912
0.170988
0.0258084
0.165984
0.0283558
0.160524
0.0310416
0.154589
0.0338695
0.148158
0.0368361
0.141213
0.0399282
0.133731
0.0431185
0.125695
0.04636
0.117086
0.0495796
0.107893
0.0526694
0.0981142
0.055478
0.0877646
0.057801
0.0768789
0.0593724
0.0655091
0.0598584
0.0537085
0.0588599
0.0414545
0.0558824
0.0285881
0.0504162
0.0148526
0.0423411
0.0309266
0.199653
0.00285069
0.198949
0.00548686
0.19787
0.00794055
0.196426
0.0102911
0.194626
0.0126054
0.192472
0.0149212
0.189962
0.0172653
0.187091
0.0196629
0.183852
0.0221376
0.180234
0.0247099
0.176228
0.0273979
0.171819
0.0302172
0.166994
0.0331806
0.161738
0.0362975
0.156035
0.0395723
0.149869
0.0430025
0.143221
0.0465762
0.136072
0.0502676
0.1284
0.0540319
0.120181
0.0577988
0.111387
0.0614633
0.101988
0.0648763
0.0919546
0.0678347
0.0812541
0.0700728
0.0698546
0.0712579
0.0577174
0.0709971
0.0447612
0.0688385
0.0308496
0.0643278
0.0158734
0.0573173
0.0468
0.19965
0.00320069
0.198954
0.00618296
0.197904
0.00899033
0.196504
0.011691
0.194762
0.0143478
0.192679
0.0170035
0.190256
0.0196892
0.187486
0.0224328
0.184363
0.0252598
0.18088
0.028193
0.177026
0.031252
0.172789
0.0344539
0.168157
0.0378128
0.163116
0.0413391
0.157649
0.0450385
0.151742
0.0489099
0.145375
0.0529435
0.138525
0.0571168
0.131168
0.0613898
0.123267
0.0656992
0.114781
0.0699495
0.105654
0.0740036
0.0958164
0.077672
0.0851863
0.0807029
0.0736688
0.0827755
0.0611623
0.0835036
0.0475561
0.0824447
0.0327594
0.0791246
0.0167833
0.0732934
0.0635833
0.199655
0.0035461
0.198974
0.00686318
0.197958
0.0100063
0.19661
0.01304
0.194933
0.0160241
0.192932
0.0190043
0.190606
0.0220156
0.187951
0.0250883
0.18496
0.0282501
0.181628
0.0315254
0.177944
0.0349356
0.173899
0.0384995
0.169479
0.0422325
0.164672
0.0461466
0.159461
0.0502494
0.153829
0.0545422
0.147753
0.0590186
0.141209
0.0636612
0.134161
0.0684377
0.126565
0.0732955
0.11836
0.0781541
0.109468
0.0828958
0.0997861
0.0873541
0.0891875
0.0913014
0.0775259
0.0944371
0.0646486
0.096381
0.0504187
0.0966745
0.0347693
0.094774
0.0177905
0.0902722
0.0813738
0.199664
0.00388199
0.199006
0.00752111
0.19803
0.0109827
0.196738
0.0143316
0.195136
0.0176264
0.193226
0.0209144
0.191008
0.0242337
0.188479
0.0276172
0.185634
0.0310944
0.182468
0.0346913
0.178973
0.0384313
0.175138
0.0423346
0.170952
0.0464186
0.166401
0.0506971
0.16147
0.0551804
0.156139
0.0598735
0.150383
0.0647747
0.14417
0.0698738
0.137459
0.0751488
0.130193
0.0805615
0.122296
0.0860511
0.113665
0.0915261
0.104168
0.0968517
0.0936343
0.101835
0.0818658
0.106206
0.0686512
0.109596
0.053804
0.111522
0.0372384
0.11134
0.0190845
0.108426
0.100458
0.199677
0.00420484
0.199047
0.00815148
0.198115
0.0119142
0.196887
0.0155601
0.195366
0.0191476
0.193555
0.0227253
0.191455
0.0263339
0.189063
0.0300083
0.186378
0.0337799
0.183393
0.0376765
0.180101
0.0417229
0.176495
0.0459411
0.172563
0.0503504
0.168293
0.0549674
0.163668
0.0598054
0.158668
0.0648737
0.153265
0.0701772
0.147424
0.0757144
0.141097
0.0814761
0.134217
0.0874416
0.126694
0.0935747
0.118404
0.0998161
0.109183
0.106072
0.09882
0.112198
0.0870542
0.117971
0.0735925
0.123057
0.0581516
0.126963
0.0405549
0.128936
0.0209032
0.128078
0.121361
0.199693
0.00451198
0.199094
0.00875
0.198213
0.012796
0.197053
0.01672
0.195619
0.0205812
0.193915
0.0244294
0.191941
0.0283072
0.189698
0.0322516
0.187183
0.0362953
0.184392
0.0404678
0.181319
0.0447954
0.177958
0.0493019
0.1743
0.0540087
0.170332
0.0589349
0.16604
0.0640976
0.161403
0.0695111
0.156393
0.0751874
0.150972
0.0811353
0.145088
0.0873596
0.13867
0.0938601
0.131616
0.100629
0.123787
0.107644
0.114995
0.114865
0.104983
0.12221
0.0934214
0.129533
0.0799019
0.136577
0.0639728
0.142892
0.0452396
0.14767
0.0236148
0.149703
0.144976
0.199711
0.00480136
0.199147
0.00931315
0.19832
0.0136238
0.197233
0.0178066
0.195893
0.0219217
0.194302
0.0260201
0.192463
0.0301461
0.190377
0.0343381
0.188041
0.0386305
0.185455
0.0430538
0.182615
0.0476358
0.179515
0.052402
0.176148
0.0573757
0.172504
0.0625788
0.16857
0.0680318
0.164326
0.0737544
0.159748
0.0797659
0.154798
0.0860855
0.149424
0.0927331
0.143555
0.0997294
0.137087
0.107096
0.129875
0.114856
0.121714
0.123026
0.112315
0.131609
0.101276
0.140572
0.0880509
0.149802
0.0719306
0.159012
0.0520942
0.167506
0.0278912
0.173906
0.172868
0.19973
0.00507137
0.199205
0.00983807
0.198435
0.014394
0.197426
0.0188155
0.196184
0.023164
0.194712
0.0274917
0.193014
0.0318439
0.191092
0.0362605
0.188946
0.0407768
0.186575
0.0454246
0.183978
0.0502329
0.181151
0.0552283
0.178091
0.0604361
0.174789
0.0658804
0.171236
0.0715851
0.167416
0.0775748
0.163306
0.0838753
0.158876
0.0905156
0.15408
0.0975296
0.148851
0.104958
0.143096
0.112852
0.136676
0.121276
0.129391
0.130311
0.120943
0.140057
0.110887
0.150628
0.098551
0.162138
0.0829127
0.17465
0.0624491
0.18797
0.0351355
0.201219
0.208003
0.199751
0.00532074
0.199266
0.0103225
0.198557
0.0151036
0.197629
0.0197433
0.196489
0.0243042
0.195141
0.0288394
0.19359
0.0333952
0.191838
0.0380124
0.189887
0.0427273
0.187739
0.0475724
0.185395
0.0525774
0.182853
0.0577702
0.180112
0.0631772
0.177168
0.0688244
0.174015
0.0747383
0.170642
0.0809473
0.167035
0.0874827
0.163169
0.0943813
0.159011
0.101688
0.154508
0.10946
0.149587
0.117773
0.144137
0.126726
0.137989
0.136459
0.130885
0.14716
0.122411
0.159103
0.111871
0.172678
0.0980344
0.188487
0.0785599
0.207444
0.0486859
0.231093
0.256689
0.199772
0.00554852
0.19933
0.0107645
0.198683
0.0157503
0.19784
0.0205872
0.196805
0.025339
0.195585
0.0300595
0.194184
0.0347957
0.192607
0.0395892
0.190858
0.0444766
0.188939
0.049491
0.186854
0.0546626
0.184605
0.0600196
0.182193
0.0655894
0.179618
0.071399
0.17688
0.0774766
0.173974
0.0838529
0.170894
0.0905627
0.167628
0.0976477
0.164156
0.10516
0.16045
0.113166
0.156466
0.121757
0.152138
0.131054
0.147366
0.14123
0.141993
0.152534
0.135755
0.165341
0.128182
0.180251
0.118335
0.198333
0.103962
0.221817
0.0777415
0.257314
0.33443
0.0048059
-0.0048059
0.00929127
-0.00448537
0.0130903
-0.00379899
0.0162543
-0.00316402
0.0188974
-0.00264311
0.0211231
-0.00222567
0.0230182
-0.00189516
0.0246546
-0.00163641
0.0260881
-0.0014335
0.0273585
-0.00127037
0.0284915
-0.00113298
0.0295031
-0.00101161
0.0304049
-0.000901758
0.0312053
-0.000800403
0.0319017
-0.00069644
0.0324664
-0.0005647
0.0328477
-0.000381263
0.033009
-0.000161374
0.0329689
4.01811e-05
0.0327821
0.000186746
0.0325143
0.000267844
0.0321814
0.000332848
0.0318396
0.000341823
0.0315803
0.000259315
0.0314926
8.76772e-05
0.0316493
-0.000156675
0.0320656
-0.000416335
0.0327169
-0.000651296
0.0335259
-0.000808997
-0.000791591
0.00415803
-0.00896393
0.00818053
-0.00850787
0.0116574
-0.00727591
0.0146111
-0.0061177
0.01714
-0.00517199
0.0193324
-0.00441805
0.0212602
-0.00382301
0.0229815
-0.00335767
0.0245408
-0.00299283
0.02597
-0.00269955
0.0272891
-0.00245205
0.0285095
-0.00223205
0.0296406
-0.00203285
0.0306951
-0.00185489
0.0316854
-0.00168679
0.0326062
-0.00148546
0.0334194
-0.00119451
0.0340753
-0.000817285
0.034564
-0.000448493
0.0349478
-0.000196999
0.0352629
-4.7252e-05
0.0354901
0.000105642
0.0356745
0.000157384
0.035871
6.28348e-05
0.036096
-0.00013734
0.0363436
-0.000404303
0.0366272
-0.000699884
0.0369693
-0.000993385
0.0374063
-0.00124599
-0.00124723
0.00330147
-0.0122654
0.00642506
-0.0116315
0.0090882
-0.00993905
0.0113434
-0.0083729
0.0132721
-0.00710064
0.0149405
-0.00608651
0.0164038
-0.00528628
0.0177055
-0.0046594
0.0188792
-0.00416652
0.0199487
-0.00376908
0.0209278
-0.0034311
0.0218211
-0.00312533
0.0226309
-0.00284273
0.0233687
-0.00259269
0.0240584
-0.00237642
0.0247128
-0.00213989
0.0252982
-0.00177988
0.0257555
-0.00127462
0.0260736
-0.000766532
0.0263289
-0.000452344
0.0264658
-0.000184181
0.0264426
0.000128894
0.0261933
0.000406684
0.0257828
0.000473345
0.0253094
0.000336082
0.0247805
0.000124588
0.0242038
-0.000123193
0.0236048
-0.000394416
0.0231152
-0.00075636
-0.00122546
0.00239076
-0.0146562
0.00446494
-0.0137056
0.00614162
-0.0116157
0.00753356
-0.00976484
0.00869771
-0.00826479
0.00967541
-0.0070642
0.0105028
-0.00611365
0.0112083
-0.00536492
0.0118147
-0.00477288
0.0123392
-0.00429364
0.0127921
-0.00388401
0.0131736
-0.00350683
0.0134736
-0.00314271
0.013686
-0.00280508
0.0138393
-0.00252974
0.013985
-0.00228554
0.0141235
-0.0019184
0.0141521
-0.0013033
0.013745
-0.000359414
0.0127846
0.000508067
0.0116247
0.000975716
0.0105352
0.00121842
0.00954463
0.00139726
0.00859593
0.00142204
0.00776332
0.00116869
0.00720006
0.000687854
0.0069001
0.000176766
0.00690252
-0.000396832
0.00718153
-0.00103538
-0.00166842
0.00135918
-0.0160153
0.00226658
-0.014613
0.00285999
-0.0122091
0.00327724
-0.0101821
0.00354799
-0.00853554
0.00369443
-0.00721065
0.00373572
-0.00615494
0.00368794
-0.00531714
0.00356524
-0.00465018
0.00338058
-0.00410897
0.00314555
-0.00364898
0.00286647
-0.00322775
0.00253315
-0.00280939
0.00210492
-0.00237686
0.00150361
-0.00192843
0.000677061
-0.00145899
-0.000286295
-0.00095504
-0.00129399
-0.000295605
-0.00204092
0.000387513
-0.0024917
0.00095885
-0.00290816
0.00139218
-0.00334698
0.00165723
-0.00373408
0.00178436
-0.00403127
0.00171922
-0.00424051
0.00137793
-0.00436431
0.000811657
-0.00433244
0.0001449
-0.00424259
-0.000486686
-0.00409693
-0.00118104
-0.00180161
0.000146635
-0.016162
-0.000157956
-0.0143085
-0.000706178
-0.0116609
-0.00133799
-0.00955028
-0.00206255
-0.00781098
-0.00285441
-0.00641879
-0.0037007
-0.00530865
-0.00459096
-0.00442689
-0.00551764
-0.0037235
-0.00647202
-0.00315459
-0.00743976
-0.00268124
-0.00839959
-0.00226793
-0.00932447
-0.00188451
-0.0101917
-0.00150961
-0.0109912
-0.00112897
-0.0117218
-0.000728334
-0.0123891
-0.000287799
-0.0128777
0.000193042
-0.0131846
0.00069442
-0.0134007
0.00117495
-0.0135557
0.00154717
-0.0136725
0.00177399
-0.0137364
0.00184829
-0.0137479
0.00173074
-0.0137496
0.00137963
-0.0137706
0.000832648
-0.0138104
0.000184703
-0.0138108
-0.000486321
-0.0138018
-0.00119005
-0.00182099
-0.00110188
-0.0150601
-0.00271328
-0.0126971
-0.00441722
-0.00995697
-0.00616318
-0.00780432
-0.00788436
-0.00608981
-0.00955539
-0.00474775
-0.0111537
-0.00371034
-0.0126597
-0.00292086
-0.0140589
-0.00232436
-0.0153426
-0.00187086
-0.0165072
-0.0015166
-0.0175516
-0.00122359
-0.0184762
-0.000959914
-0.0192855
-0.000700302
-0.0199866
-0.000427856
-0.0205843
-0.000130565
-0.0210565
0.000184359
-0.0213949
0.000531488
-0.0216172
0.000916653
-0.0217349
0.00129266
-0.0217776
0.00158987
-0.0217718
0.00176824
-0.0217287
0.00180514
-0.0216659
0.00166796
-0.0216197
0.00133347
-0.0216179
0.000830823
-0.021656
0.000222791
-0.0217147
-0.000427656
-0.0217797
-0.00112507
-0.00172888
-0.00245545
-0.0126046
-0.00530345
-0.00984906
-0.00815831
-0.00710211
-0.0108795
-0.00508318
-0.0133846
-0.00358468
-0.0156453
-0.00248706
-0.0176577
-0.00169795
-0.0194306
-0.00114796
-0.0209823
-0.000772598
-0.0223353
-0.000517867
-0.0235118
-0.000340138
-0.0245302
-0.000205191
-0.0254042
-8.59175e-05
-0.0261421
3.76337e-05
-0.026751
0.000180994
-0.0272378
0.000356293
-0.0276249
0.000571405
-0.0279231
0.000829757
-0.0281209
0.00111445
-0.0282174
0.00138911
-0.0282351
0.00160758
-0.0282014
0.00173452
-0.0281379
0.00174171
-0.0280694
0.00159941
-0.0280271
0.00129121
-0.0280341
0.000837738
-0.028094
0.000282742
-0.0281883
-0.00033341
-0.0283164
-0.000996979
-0.001536
-0.00389529
-0.00870935
-0.00795857
-0.00578578
-0.0118569
-0.00320376
-0.0153787
-0.00156136
-0.0184616
-0.000501788
-0.0210908
0.000142162
-0.0232845
0.00049566
-0.0250997
0.000667247
-0.0266086
0.000736295
-0.0278737
0.000747317
-0.0289437
0.000729819
-0.0298528
0.000703881
-0.0306241
0.000685379
-0.0312767
0.000690244
-0.0318283
0.000732637
-0.032292
0.000819948
-0.0326733
0.000952711
-0.0329671
0.00112354
-0.0331663
0.00131363
-0.0332728
0.00149569
-0.0333046
0.00163939
-0.0332871
0.00171703
-0.0332461
0.00170063
-0.0332081
0.00156142
-0.0332002
0.00128336
-0.0332411
0.000878603
-0.0333357
0.000377351
-0.0334746
-0.000194526
-0.033661
-0.00081059
-0.00129178
-0.00557553
-0.00313382
-0.0111569
-0.000204401
-0.0157963
0.00143558
-0.0196102
0.00225259
-0.0226978
0.00258585
-0.0252035
0.0026478
-0.0272725
0.00256464
-0.0290088
0.00240358
-0.0304729
0.00220037
-0.0317134
0.00198788
-0.0327711
0.00178746
-0.0336757
0.00160857
-0.0344478
0.00145744
-0.035103
0.00134542
-0.0356567
0.00128637
-0.0361234
0.00128663
-0.0365104
0.00133975
-0.0368156
0.0014287
-0.0370339
0.00153192
-0.0371677
0.0016295
-0.0372326
0.00170429
-0.0372534
0.0017378
-0.0372573
0.00170456
-0.0372706
0.00157476
-0.0373158
0.00132854
-0.0374067
0.000969462
-0.0375473
0.000517944
-0.0377358
-6.03197e-06
-0.0379753
-0.000571085
-0.00100638
-0.0071646
0.00403078
-0.0133297
0.00596066
-0.0181927
0.00629864
-0.0221356
0.00619548
-0.0253481
0.0057983
-0.0279685
0.00526823
-0.0301145
0.00471062
-0.0318823
0.00417146
-0.0333503
0.00366828
-0.034581
0.00321857
-0.0356256
0.00283215
-0.0365196
0.00250252
-0.0372827
0.00222058
-0.0379296
0.0019923
-0.0384779
0.00183466
-0.0389461
0.00175486
-0.0393447
0.00173833
-0.039672
0.00175599
-0.0399212
0.00178113
-0.0400924
0.0018007
-0.0402
0.00181185
-0.0402696
0.00180743
-0.04033
0.00176492
-0.0404059
0.00165067
-0.0405147
0.0014374
-0.0406654
0.00112008
-0.0408609
0.000713469
-0.0411013
0.000234374
-0.0413898
-0.00028262
-0.000678553
-0.00799282
0.0120236
-0.0147959
0.0127637
-0.020229
0.0117318
-0.0244461
0.0104126
-0.0277399
0.00909207
-0.0303405
0.00786889
-0.0324261
0.00679616
-0.0341262
0.00587161
-0.035526
0.00506808
-0.0366924
0.00438494
-0.0376857
0.00382546
-0.0385455
0.00336226
-0.0392856
0.00296074
-0.0399137
0.00262035
-0.0404485
0.00236946
-0.0409157
0.00222204
-0.0413301
0.00215281
-0.0416883
0.00211412
-0.0419769
0.00206982
-0.042191
0.00201478
-0.0423444
0.00196523
-0.0424664
0.00192942
-0.0425886
0.0018871
-0.0427342
0.00179632
-0.0429149
0.00161808
-0.0431329
0.00133804
-0.0433874
0.000968038
-0.0436806
0.000527508
-0.0440195
5.63126e-05
-0.000303759
-0.00935204
0.0213756
-0.0171503
0.0205619
-0.0228394
0.0174209
-0.0269673
0.0145405
-0.0300731
0.0121979
-0.0324501
0.0102459
-0.0343208
0.00866683
-0.0358486
0.00739942
-0.0371085
0.00632794
-0.0381547
0.00543117
-0.0390585
0.00472922
-0.039866
0.00416983
-0.0405762
0.00367091
-0.0411779
0.00322207
-0.0416901
0.00288167
-0.0421523
0.00268418
-0.0425875
0.00258801
-0.0429866
0.00251327
-0.0433238
0.00240703
-0.0435843
0.00227525
-0.0437825
0.00216345
-0.0439558
0.00210267
-0.0441417
0.00207306
-0.0443623
0.00201686
-0.0446213
0.00187712
-0.0449119
0.00162866
-0.0452284
0.00128448
-0.0455771
0.00087621
-0.0459685
0.000447735
0.000122947
-0.0118481
0.0332237
-0.0209562
0.0296701
-0.0264352
0.0228999
-0.0298773
0.0179826
-0.0324497
0.0147703
-0.034368
0.0121643
-0.0358434
0.0101422
-0.0370985
0.00865449
-0.0381644
0.00739386
-0.0390387
0.00630548
-0.0398146
0.00550511
-0.0405618
0.00491701
-0.041248
0.0043571
-0.0418206
0.00379466
-0.0422972
0.00335831
-0.0427471
0.00313408
-0.0432099
0.00305079
-0.043665
0.00296836
-0.044063
0.00280503
-0.0443724
0.00258467
-0.04461
0.00240101
-0.0448287
0.00232143
-0.045078
0.00232228
-0.045378
0.00231685
-0.0457222
0.00222134
-0.0460914
0.00199785
-0.0464723
0.00166543
-0.0468743
0.00127818
-0.04732
0.000893408
0.00061452
-0.0163513
0.049575
-0.0271365
0.0404553
-0.0316241
0.0273875
-0.0331873
0.0195457
-0.0348519
0.0164349
-0.0360854
0.0133978
-0.0369459
0.0110028
-0.037857
0.00956549
-0.0387396
0.00827647
-0.0393959
0.00696184
-0.0399906
0.00609975
-0.0406805
0.00560698
-0.0413719
0.00504851
-0.0419213
0.00434397
-0.0423393
0.00377632
-0.0427619
0.0035567
-0.0432634
0.00355228
-0.0437982
0.00350315
-0.044275
0.00328182
-0.0446344
0.00294406
-0.0448981
0.00266479
-0.0451493
0.00257256
-0.0454578
0.00263079
-0.0458408
0.00269985
-0.0462757
0.00265629
-0.0467259
0.00244807
-0.0471666
0.00210611
-0.0476094
0.00172098
-0.0480934
0.00137737
0.00115384
0.207447
0.00576137
0.207034
0.0111773
0.206431
0.0163531
0.205646
0.021372
0.204687
0.0262986
0.203559
0.0311874
0.202269
0.0360858
0.200823
0.0410355
0.199226
0.0460735
0.197484
0.051233
0.195602
0.0565441
0.193586
0.0620352
0.191442
0.0677337
0.189174
0.0736667
0.186788
0.0798631
0.184287
0.0863538
0.181675
0.093175
0.178953
0.100369
0.176122
0.107991
0.17318
0.116109
0.170123
0.124814
0.166946
0.134231
0.163646
0.14453
0.160224
0.155956
0.156703
0.168861
0.153181
0.183774
0.150025
0.201489
0.148922
0.22292
0.160698
0.245538
0.258607
0.236521
0.21249
0.00595389
0.212117
0.0115503
0.211573
0.0168969
0.210867
0.0220782
0.210006
0.0271595
0.208998
0.0321954
0.207851
0.0372334
0.206571
0.0423153
0.205167
0.0474779
0.203646
0.0527539
0.202017
0.058173
0.200289
0.0637631
0.198472
0.0695507
0.196576
0.0755624
0.194614
0.0818258
0.192597
0.0883707
0.19054
0.0952314
0.188462
0.102448
0.186383
0.11007
0.184331
0.11816
0.182348
0.126797
0.180495
0.136084
0.17887
0.146155
0.177646
0.15718
0.177147
0.169361
0.178026
0.182894
0.181706
0.19781
0.190795
0.213831
0.206305
0.230028
0.245464
0.219448
0.217658
0.00612392
0.217328
0.0118795
0.216849
0.0173759
0.216229
0.0226983
0.215476
0.0279123
0.214599
0.0330726
0.213607
0.0382262
0.212507
0.0434147
0.211311
0.048674
0.210029
0.0540363
0.208671
0.0595302
0.207252
0.0651822
0.205786
0.0710175
0.204287
0.0770607
0.202776
0.0833369
0.201274
0.0898729
0.199807
0.0966983
0.198408
0.103847
0.197118
0.11136
0.195995
0.119283
0.195115
0.127676
0.194593
0.136606
0.194599
0.14615
0.195396
0.156383
0.197395
0.167362
0.201206
0.179082
0.207601
0.191416
0.217234
0.204197
0.229818
0.217444
0.228577
0.246705
0.222951
0.00626948
0.22267
0.012161
0.222261
0.0177844
0.221734
0.023225
0.221098
0.0285484
0.220362
0.0338087
0.219536
0.0390525
0.21863
0.0443204
0.217657
0.0496476
0.216628
0.0550646
0.21556
0.0605987
0.214468
0.0662745
0.21337
0.0721149
0.212289
0.0781415
0.211251
0.0843758
0.210284
0.0908397
0.209426
0.0975563
0.208722
0.104551
0.208232
0.11185
0.208031
0.119484
0.208223
0.127485
0.208946
0.135882
0.210396
0.1447
0.212834
0.153945
0.216607
0.163589
0.222134
0.173555
0.229862
0.183688
0.240357
0.193702
0.254535
0.203266
0.210128
0.272984
0.228374
0.00638871
0.228144
0.0123912
0.227811
0.0181172
0.227384
0.0236517
0.226873
0.0290596
0.226287
0.0343944
0.225638
0.0397018
0.224938
0.045021
0.224199
0.0503858
0.223439
0.0558252
0.222673
0.0613644
0.221922
0.0670255
0.221208
0.0728283
0.220559
0.0787909
0.220005
0.08493
0.219583
0.0912615
0.219339
0.0978006
0.219327
0.104562
0.219618
0.111559
0.2203
0.118803
0.221484
0.126301
0.223316
0.13405
0.225981
0.142035
0.229709
0.150217
0.234779
0.158519
0.241518
0.166816
0.250305
0.174902
0.261582
0.182424
0.27582
0.189028
0.193628
0.29232
0.233929
0.00647991
0.233754
0.0125669
0.233501
0.0183697
0.23318
0.0239724
0.232801
0.029439
0.232374
0.0348216
0.231911
0.0401649
0.231425
0.0455064
0.230933
0.0508783
0.230451
0.0563074
0.229998
0.0618165
0.229599
0.0674248
0.229279
0.0731487
0.229068
0.0790019
0.229002
0.0849958
0.229124
0.0911398
0.229484
0.0974408
0.230143
0.103903
0.231176
0.110526
0.232673
0.117305
0.234747
0.124226
0.237534
0.131264
0.241196
0.138373
0.245925
0.145487
0.251942
0.152502
0.259487
0.15927
0.268802
0.165587
0.280063
0.171164
0.293364
0.175727
0.178767
0.308224
0.23962
0.00654161
0.239501
0.0126853
0.239333
0.0185378
0.239124
0.0241819
0.238882
0.0296802
0.238621
0.0350834
0.238351
0.0404343
0.238089
0.0457689
0.23785
0.0511171
0.237654
0.0565035
0.237523
0.0619481
0.23748
0.0674669
0.237557
0.0730725
0.237784
0.0787741
0.238202
0.0845779
0.238856
0.0904864
0.239798
0.0964987
0.241091
0.102609
0.242811
0.108807
0.245044
0.115073
0.247893
0.121377
0.251477
0.127679
0.255932
0.133918
0.261406
0.140013
0.268056
0.145852
0.276031
0.151296
0.285449
0.156169
0.296354
0.160258
0.308735
0.163346
0.165169
0.322333
0.245448
0.00657252
0.24539
0.0127437
0.245309
0.0186181
0.245215
0.024276
0.245117
0.0297783
0.245027
0.0351741
0.244957
0.0405042
0.244923
0.0458026
0.244943
0.0510968
0.245038
0.0564089
0.24523
0.061756
0.245546
0.0671508
0.246016
0.072602
0.246676
0.0781145
0.247565
0.083689
0.248729
0.0893224
0.250221
0.0950065
0.252102
0.100728
0.254443
0.106466
0.257321
0.112194
0.260828
0.117871
0.26506
0.123447
0.270122
0.128856
0.276121
0.134014
0.283155
0.138818
0.291305
0.143146
0.300617
0.146857
0.311081
0.149794
0.322627
0.1518
0.152742
0.335055
0.251418
0.00657164
0.251421
0.0127405
0.251432
0.0186077
0.251456
0.0242511
0.251505
0.0297296
0.251589
0.03509
0.251723
0.040371
0.251921
0.0456044
0.252202
0.0508151
0.252589
0.0560227
0.253103
0.0612413
0.253774
0.0664804
0.254631
0.0717451
0.255709
0.0770359
0.257049
0.0823492
0.258695
0.0876765
0.260697
0.0930042
0.263112
0.0983128
0.266003
0.103576
0.269437
0.10876
0.273487
0.11382
0.27823
0.118704
0.283741
0.123346
0.290088
0.127667
0.297328
0.131578
0.305495
0.134979
0.314589
0.137762
0.324566
0.139818
0.335326
0.14104
0.14137
0.346698
0.257532
0.00653822
0.257599
0.012674
0.257702
0.0185048
0.257848
0.0241052
0.258045
0.0295317
0.258307
0.0348288
0.258645
0.0400328
0.259076
0.0451732
0.259619
0.0502724
0.260294
0.0553472
0.261127
0.060409
0.262143
0.0654642
0.263374
0.0705144
0.264853
0.0755568
0.266618
0.0805839
0.268711
0.0855831
0.271179
0.0905369
0.27407
0.0954218
0.277438
0.100208
0.281338
0.104859
0.285828
0.109331
0.290962
0.11357
0.29679
0.117518
0.303351
0.121106
0.31067
0.12426
0.318748
0.126901
0.327558
0.128952
0.337036
0.130339
0.347078
0.130998
0.130906
0.357542
0.263794
0.00647178
0.263925
0.0125435
0.264121
0.0183081
0.264389
0.0238369
0.264738
0.0291835
0.265177
0.0343898
0.265719
0.0394899
0.266382
0.0445106
0.267183
0.0494718
0.268142
0.0543879
0.269283
0.0592675
0.270633
0.0641143
0.272221
0.0689271
0.274077
0.0737003
0.276238
0.0784232
0.27874
0.0830808
0.281624
0.0876527
0.284932
0.0921137
0.288708
0.0964329
0.292993
0.100574
0.297829
0.104494
0.303253
0.108147
0.309292
0.111479
0.315964
0.114433
0.323271
0.116953
0.331193
0.118979
0.339688
0.120457
0.348686
0.121342
0.358088
0.121595
0.121218
0.367776
0.270207
0.00637214
0.270402
0.0123487
0.270692
0.0180175
0.271083
0.0234463
0.271581
0.0286854
0.272196
0.0337744
0.272942
0.0387446
0.273832
0.0436203
0.274884
0.0484193
0.276119
0.0531533
0.277558
0.0578286
0.279226
0.0624466
0.281149
0.067004
0.283356
0.0714927
0.285879
0.0759003
0.28875
0.08021
0.292002
0.0844006
0.29567
0.0884463
0.299785
0.0923171
0.304381
0.0959786
0.309482
0.0993928
0.315111
0.102518
0.321279
0.105311
0.327986
0.107726
0.335219
0.10972
0.342947
0.111251
0.35112
0.112284
0.359669
0.112793
0.368506
0.112759
0.112195
0.377529
0.276774
0.0062394
0.277033
0.0120897
0.277417
0.0176334
0.277929
0.0229341
0.278575
0.0280391
0.279364
0.0329852
0.280308
0.037801
0.28142
0.0425085
0.282716
0.0471231
0.284215
0.0516544
0.285937
0.0561068
0.287903
0.0604798
0.290139
0.0647682
0.292669
0.0689626
0.29552
0.0730498
0.298718
0.0770121
0.30229
0.0808286
0.306262
0.0844745
0.310657
0.0879217
0.315496
0.0911396
0.320794
0.0940949
0.326559
0.0967531
0.332791
0.0990791
0.339478
0.101039
0.346597
0.1026
0.354111
0.103737
0.361969
0.104426
0.370106
0.104656
0.378443
0.104421
0.10374
0.386898
0.283498
0.00607395
0.28382
0.0117674
0.284297
0.0171572
0.284928
0.0223026
0.28572
0.0272477
0.286678
0.0320264
0.287814
0.0366649
0.28914
0.0411828
0.29067
0.0455934
0.29242
0.0499045
0.294408
0.0541188
0.296653
0.0582342
0.299177
0.0622447
0.301999
0.0661402
0.305142
0.0699068
0.308626
0.0735277
0.312472
0.0769826
0.316698
0.0802489
0.321318
0.0833015
0.326344
0.0861138
0.331781
0.088658
0.337627
0.0909065
0.343874
0.0928323
0.350502
0.0944105
0.357483
0.0956197
0.364777
0.0964429
0.372334
0.0968693
0.380095
0.0968951
0.387993
0.0965236
0.0957754
0.395957
0.290384
0.00587641
0.290768
0.011383
0.291335
0.0165908
0.292083
0.0215547
0.293015
0.0263153
0.294138
0.0309037
0.295459
0.0353438
0.296989
0.0396529
0.29874
0.0438424
0.300726
0.0479186
0.302962
0.0518827
0.305464
0.055732
0.308249
0.0594596
0.311334
0.0630554
0.314735
0.066506
0.318467
0.0697955
0.322544
0.0729054
0.326978
0.0758155
0.331775
0.0785044
0.336939
0.0809497
0.342468
0.0831292
0.348353
0.0850214
0.354579
0.0866066
0.361121
0.0878677
0.36795
0.0887911
0.375025
0.0893681
0.382299
0.0895948
0.38972
0.0894739
0.397231
0.0890135
0.0882347
0.404771
0.297435
0.00564765
0.297879
0.0109383
0.298533
0.015937
0.299394
0.0206941
0.300462
0.0252469
0.301742
0.0296238
0.30324
0.0338462
0.304963
0.0379294
0.306922
0.0418832
0.309128
0.0457125
0.311593
0.0494177
0.31433
0.0529954
0.317351
0.0564387
0.320668
0.0597378
0.324294
0.0628803
0.328238
0.0658516
0.332508
0.0686356
0.337108
0.0712149
0.342041
0.0735716
0.347303
0.0756876
0.352886
0.0775459
0.358777
0.0791306
0.364956
0.0804279
0.371397
0.0814269
0.378067
0.0821205
0.38493
0.0825053
0.391942
0.0825828
0.399057
0.0823594
0.406224
0.0818458
0.0810628
0.413396
0.304654
0.00538873
0.305157
0.0104353
0.305895
0.0151989
0.306864
0.0197253
0.308062
0.0240486
0.309492
0.0281944
0.311156
0.0321817
0.313062
0.0360241
0.315215
0.0397299
0.317624
0.043303
0.320299
0.0467432
0.323247
0.0500469
0.326479
0.0532074
0.330001
0.0562156
0.333821
0.0590604
0.337943
0.0617291
0.342371
0.0642078
0.347104
0.0664821
0.352138
0.0685376
0.357465
0.0703604
0.363073
0.0719377
0.368945
0.0732584
0.37506
0.0743137
0.381389
0.0750977
0.387902
0.0756076
0.394563
0.0758443
0.401333
0.0758124
0.408172
0.0755207
0.415037
0.074981
0.074213
0.421886
0.312046
0.00510086
0.312605
0.00987648
0.313424
0.0143802
0.314496
0.0186534
0.315817
0.0227269
0.317388
0.0266235
0.31921
0.0303603
0.321285
0.033949
0.323618
0.0373969
0.326214
0.0407069
0.329079
0.0438784
0.332217
0.046908
0.335635
0.0497896
0.339336
0.0525149
0.343322
0.0550744
0.347594
0.0574572
0.35215
0.0596518
0.356985
0.0616468
0.362092
0.0634308
0.367459
0.0649937
0.37307
0.0663265
0.378906
0.0674219
0.384945
0.068275
0.391159
0.0688837
0.397519
0.0692483
0.40399
0.0693725
0.41054
0.0692629
0.417131
0.0689294
0.423728
0.0683842
0.0676453
0.430296
0.319615
0.00478536
0.320227
0.00926442
0.321122
0.0134848
0.322292
0.0174837
0.32373
0.0212886
0.325434
0.0249198
0.327402
0.0283924
0.329634
0.0317166
0.332133
0.0348985
0.334899
0.0379404
0.337936
0.0408418
0.341245
0.0435992
0.344827
0.0462075
0.348682
0.0486594
0.35281
0.0509469
0.357206
0.053061
0.361865
0.0549927
0.366779
0.056733
0.371936
0.0582736
0.377322
0.0596072
0.382921
0.060728
0.388711
0.061632
0.394669
0.0623171
0.400768
0.0627838
0.406982
0.0630348
0.413279
0.0630755
0.419628
0.0629135
0.425999
0.062559
0.432359
0.062024
0.0613247
0.438679
0.327365
0.00444359
0.328028
0.00860179
0.328996
0.0125168
0.330258
0.0162217
0.331805
0.0197408
0.333633
0.0230921
0.335737
0.0262885
0.338115
0.0293389
0.340765
0.0322485
0.343686
0.0350193
0.346877
0.0376505
0.350337
0.0401392
0.354064
0.042481
0.358053
0.0446699
0.362301
0.0466992
0.3668
0.048562
0.371542
0.0502511
0.376515
0.05176
0.381706
0.0530828
0.387098
0.0542147
0.392674
0.0551525
0.398411
0.0558944
0.404288