/*--------------------------------*- C++ -*----------------------------------*\
  =========                 |
  \\      /  F ield         | OpenFOAM: The Open Source CFD Toolbox
   \\    /   O peration     | Website:  https://openfoam.org
    \\  /    A nd           | Version:  dev
     \\/     M anipulation  |
\*---------------------------------------------------------------------------*/
FoamFile
{
    version     2.0;
    format      ascii;
    class       volVectorField;
    location    "3";
    object      U;
}
// * * * * * * * * * * * * * * * * * * * * * * * * * * * * * * * * * * * * * //

dimensions      [0 1 -1 0 0 0 0];

internalField   nonuniform List<vector> 
2790
(
(9.94399 0 0.0205239)
(9.87572 0 0.0295891)
(9.7752 0 0.0359916)
(9.64941 0 0.0425589)
(9.50406 0 0.0493887)
(9.34002 0 0.056432)
(9.15649 0 0.0638199)
(8.95255 0 0.0717158)
(8.72738 0 0.0802595)
(8.47999 0 0.0895777)
(8.20917 0 0.0997975)
(7.91353 0 0.111049)
(7.59156 0 0.123464)
(7.24165 0 0.137168)
(6.8622 0 0.152275)
(6.45167 0 0.168872)
(6.00875 0 0.186998)
(5.53256 0 0.206619)
(5.02286 0 0.22759)
(4.48035 0 0.24961)
(3.90707 0 0.272174)
(3.30676 0 0.294522)
(2.68524 0 0.315616)
(2.05059 0 0.334285)
(1.41178 0 0.350602)
(0.798031 0 0.37288)
(0.110719 0 0.325053)
(-0.469537 0 -0.114849)
(-0.453769 0 -0.297129)
(-0.231151 0 -0.423837)
(9.9985 0 0.0407052)
(9.98145 0 0.0623871)
(9.93573 0 0.0791464)
(9.86414 0 0.0966328)
(9.77094 0 0.115133)
(9.65711 0 0.134499)
(9.522 0 0.154986)
(9.36478 0 0.176955)
(9.18463 0 0.200719)
(8.98058 0 0.226561)
(8.75142 0 0.254755)
(8.49577 0 0.28557)
(8.21208 0 0.319257)
(7.8987 0 0.356029)
(7.55391 0 0.396024)
(7.17607 0 0.439265)
(6.76366 0 0.485592)
(6.31555 0 0.534583)
(5.83115 0 0.585456)
(5.31079 0 0.636945)
(4.75608 0 0.687193)
(4.17035 0 0.733634)
(3.55926 0 0.77294)
(2.93153 0 0.801081)
(2.29994 0 0.813739)
(1.69295 0 0.807245)
(1.10716 0 0.747247)
(0.658902 0 0.54793)
(0.186446 0 0.22461)
(-0.00819451 0 -0.453723)
(9.99559 0 0.0432107)
(9.97555 0 0.075279)
(9.93179 0 0.103357)
(9.86487 0 0.132384)
(9.77775 0 0.163075)
(9.6715 0 0.195416)
(9.54582 0 0.229761)
(9.40007 0 0.266622)
(9.23357 0 0.306489)
(9.04554 0 0.349825)
(8.83498 0 0.397089)
(8.6007 0 0.448737)
(8.34133 0 0.505204)
(8.05537 0 0.566871)
(7.74125 0 0.634014)
(7.39732 0 0.706729)
(7.02199 0 0.78483)
(6.61384 0 0.867712)
(6.17184 0 0.954177)
(5.69555 0 1.04223)
(5.18556 0 1.12886)
(4.6439 0 1.20976)
(4.07476 0 1.27913)
(3.48535 0 1.32931)
(2.88684 0 1.35007)
(2.29947 0 1.32642)
(1.73185 0 1.22077)
(1.21626 0 0.973014)
(0.701151 0 0.570166)
(0.358039 0 -0.156536)
(9.99403 0 0.0495045)
(9.9718 0 0.0932165)
(9.92787 0 0.133587)
(9.86222 0 0.174228)
(9.7769 0 0.216455)
(9.67294 0 0.260686)
(9.55026 0 0.307456)
(9.40842 0 0.357442)
(9.24694 0 0.411318)
(9.06524 0 0.469731)
(8.86258 0 0.533325)
(8.63808 0 0.602743)
(8.39072 0 0.678607)
(8.11939 0 0.761483)
(7.82287 0 0.851823)
(7.49988 0 0.949869)
(7.14912 0 1.05553)
(6.76933 0 1.16822)
(6.35939 0 1.28657)
(5.91851 0 1.40823)
(5.44646 0 1.52943)
(4.94395 0 1.64464)
(4.41313 0 1.7461)
(3.85825 0 1.82318)
(3.28582 0 1.86133)
(2.70641 0 1.84031)
(2.12566 0 1.726)
(1.55427 0 1.47787)
(0.95796 0 1.08372)
(0.50943 0 0.50235)
(9.99331 0 0.0572204)
(9.96994 0 0.110972)
(9.92592 0 0.162123)
(9.86143 0 0.213372)
(9.77795 0 0.266385)
(9.6763 0 0.321946)
(9.55648 0 0.380736)
(9.41814 0 0.443523)
(9.26088 0 0.511091)
(9.08423 0 0.584203)
(8.88759 0 0.663617)
(8.67026 0 0.750088)
(8.43146 0 0.844353)
(8.17032 0 0.947094)
(7.88594 0 1.05888)
(7.57734 0 1.18006)
(7.24353 0 1.31066)
(6.88348 0 1.45015)
(6.49617 0 1.59718)
(6.08063 0 1.74927)
(5.63608 0 1.90235)
(5.16206 0 2.05025)
(4.65874 0 2.18411)
(4.1272 0 2.29169)
(3.56941 0 2.35652)
(2.98891 0 2.35729)
(2.38686 0 2.26495)
(1.76641 0 2.04766)
(1.09001 0 1.69143)
(0.536662 0 1.15418)
(9.99302 0 0.065547)
(9.96922 0 0.128718)
(9.92555 0 0.190137)
(9.86251 0 0.251873)
(9.78125 0 0.315614)
(9.6824 0 0.382358)
(9.56595 0 0.452917)
(9.43164 0 0.528145)
(9.27911 0 0.608923)
(9.10795 0 0.696125)
(8.91765 0 0.790616)
(8.70761 0 0.893255)
(8.47714 0 1.00488)
(8.22553 0 1.12627)
(7.952 0 1.25809)
(7.65574 0 1.4008)
(7.33588 0 1.55452)
(6.9915 0 1.71882)
(6.62156 0 1.8925)
(6.2249 0 2.07316)
(5.8002 0 2.25677)
(5.34598 0 2.43712)
(4.86067 0 2.60511)
(4.34269 0 2.74815)
(3.79041 0 2.84949)
(3.2026 0 2.88816)
(2.57661 0 2.83822)
(1.9135 0 2.67163)
(1.17278 0 2.37404)
(0.549982 0 1.89445)
(9.99297 0 0.0740848)
(9.96926 0 0.146333)
(9.92636 0 0.217511)
(9.86506 0 0.289328)
(9.78639 0 0.363398)
(9.6908 0 0.440875)
(9.57828 0 0.522711)
(9.44863 0 0.609863)
(9.30155 0 0.703307)
(9.13667 0 0.804014)
(8.95352 0 0.912945)
(8.75156 0 1.03105)
(8.53018 0 1.15925)
(8.28871 0 1.29841)
(8.02642 0 1.4493)
(7.74252 0 1.61247)
(7.43613 0 1.78815)
(7.10625 0 1.97611)
(6.75167 0 2.17534)
(6.37089 0 2.38373)
(5.96201 0 2.59764)
(5.52257 0 2.81128)
(5.04949 0 3.01605)
(4.539 0 3.19987)
(3.98668 0 3.3466)
(3.38795 0 3.43591)
(2.73731 0 3.44329)
(2.03629 0 3.34152)
(1.24179 0 3.11363)
(0.563535 0 2.69322)
(9.99306 0 0.0825996)
(9.9698 0 0.163629)
(9.92806 0 0.244083)
(9.86882 0 0.325522)
(9.79309 0 0.409496)
(9.70121 0 0.497262)
(9.59316 0 0.589898)
(9.4688 0 0.688458)
(9.32786 0 0.794001)
(9.17002 0 0.907588)
(8.99489 0 1.03027)
(8.80195 0 1.16308)
(8.59065 0 1.30704)
(8.36033 0 1.46311)
(8.11027 0 1.63215)
(7.83962 0 1.81485)
(7.54743 0 2.01163)
(7.2325 0 2.22245)
(6.89335 0 2.44665)
(6.52803 0 2.68259)
(6.13398 0 2.92723)
(5.70778 0 3.17564)
(5.24493 0 3.42023)
(4.73978 0 3.65007)
(4.18552 0 3.85013)
(3.57482 0 4.00082)
(2.8996 0 4.07788)
(2.16219 0 4.05241)
(1.31618 0 3.90177)
(0.583249 0 3.54025)
(9.99326 0 0.0909416)
(9.97071 0 0.180435)
(9.93045 0 0.269705)
(9.8736 0 0.36029)
(9.80114 0 0.453704)
(9.71338 0 0.551274)
(9.61031 0 0.654181)
(9.49179 0 0.763568)
(9.35765 0 0.880577)
(9.20761 0 1.00635)
(9.04131 0 1.14202)
(8.85832 0 1.28872)
(8.6581 0 1.44756)
(8.44003 0 1.61961)
(8.20337 0 1.80587)
(7.94726 0 2.00719)
(7.67058 0 2.22421)
(7.37197 0 2.45721)
(7.04962 0 2.70596)
(6.70112 0 2.96944)
(6.32322 0 3.24551)
(5.91156 0 3.53037)
(5.46032 0 3.8179)
(4.96202 0 4.09882)
(4.40747 0 4.35973)
(3.7865 0 4.582)
(3.08768 0 4.74104)
(2.31282 0 4.8045)
(1.41073 0 4.74119)
(0.614352 0 4.44207)
(9.99352 0 0.0990072)
(9.9719 0 0.196608)
(9.93339 0 0.294238)
(9.87922 0 0.393471)
(9.81036 0 0.49582)
(9.72711 0 0.602661)
(9.62946 0 0.715261)
(9.51732 0 0.834844)
(9.39057 0 0.962627)
(9.249 0 1.09983)
(9.0923 0 1.24767)
(8.92011 0 1.40736)
(8.73194 0 1.58012)
(8.52721 0 1.76714)
(8.30522 0 1.96957)
(8.06503 0 2.18847)
(7.8055 0 2.42475)
(7.52508 0 2.67909)
(7.2217 0 2.95181)
(6.89258 0 3.24268)
(6.53388 0 3.55061)
(6.14037 0 3.87329)
(5.705 0 4.20649)
(5.21849 0 4.54317)
(4.66907 0 4.87225)
(4.043 0 5.17683)
(3.32386 0 5.43225)
(2.50994 0 5.60202)
(1.542 0 5.64365)
(0.664124 0 5.41827)
(9.99384 0 0.106721)
(9.9733 0 0.212033)
(9.93678 0 0.31755)
(9.88555 0 0.424917)
(9.82059 0 0.535662)
(9.74219 0 0.651203)
(9.65037 0 0.772877)
(9.54508 0 0.901979)
(9.42626 0 1.03979)
(9.29376 0 1.18761)
(9.14736 0 1.34672)
(8.98676 0 1.51843)
(8.81154 0 1.70405)
(8.62121 0 1.90491)
(8.41508 0 2.12233)
(8.19227 0 2.35759)
(7.95162 0 2.61192)
(7.69153 0 2.88646)
(7.4098 0 3.18216)
(7.10342 0 3.49969)
(6.76816 0 3.83927)
(6.3982 0 4.2003)
(5.98549 0 4.58091)
(5.51909 0 4.97706)
(4.98447 0 5.38107)
(4.36344 0 5.77936)
(3.63213 0 6.14905)
(2.78038 0 6.45073)
(1.73366 0 6.62874)
(0.744943 0 6.50345)
(9.9942 0 0.114025)
(9.97486 0 0.226611)
(9.94054 0 0.339526)
(9.89249 0 0.454492)
(9.83169 0 0.573064)
(9.75845 0 0.696701)
(9.6728 0 0.826794)
(9.57478 0 0.964699)
(9.46436 0 1.11176)
(9.34147 0 1.26932)
(9.20598 0 1.43875)
(9.05767 0 1.62143)
(8.89622 0 1.81876)
(8.72122 0 2.03221)
(8.53211 0 2.26326)
(8.32808 0 2.51343)
(8.10806 0 2.7843)
(7.87052 0 3.07747)
(7.61332 0 3.39459)
(7.33346 0 3.7373)
(7.02668 0 4.10721)
(6.68696 0 4.50573)
(6.30578 0 4.93378)
(5.87107 0 5.3911)
(5.36587 0 5.87501)
(4.76711 0 6.37796)
(4.04104 0 6.88307)
(3.16185 0 7.35356)
(2.02509 0 7.72354)
(0.880927 0 7.75767)
(9.99459 0 0.120874)
(9.97656 0 0.240265)
(9.9446 0 0.360066)
(9.89992 0 0.482076)
(9.84351 0 0.607886)
(9.77569 0 0.738985)
(9.69654 0 0.876809)
(9.60612 0 1.02276)
(9.5045 0 1.17824)
(9.39169 0 1.34464)
(9.26763 0 1.52337)
(9.13221 0 1.71589)
(8.98523 0 1.9237)
(8.82642 0 2.14836)
(8.65533 0 2.39152)
(8.47136 0 2.65494)
(8.27359 0 2.94049)
(8.06073 0 3.25025)
(7.83092 0 3.58654)
(7.58146 0 3.95197)
(7.30848 0 4.34956)
(7.0064 0 4.78281)
(6.66704 0 5.25569)
(6.27841 0 5.7725)
(5.82254 0 6.33722)
(5.27274 0 6.95199)
(4.58497 0 7.61336)
(3.71056 0 8.30093)
(2.48878 0 8.9587)
(1.12484 0 9.29422)
(9.99501 0 0.127233)
(9.97837 0 0.252929)
(9.94889 0 0.379085)
(9.90776 0 0.50757)
(9.85594 0 0.640007)
(9.79375 0 0.777915)
(9.72134 0 0.922763)
(9.63882 0 1.07599)
(9.54633 0 1.23903)
(9.44396 0 1.41331)
(9.33175 0 1.60029)
(9.20972 0 1.80148)
(9.07779 0 2.01844)
(8.93585 0 2.25284)
(8.78365 0 2.50644)
(8.62081 0 2.7812)
(8.44671 0 3.07926)
(8.26041 0 3.40311)
(8.06054 0 3.75562)
(7.84504 0 4.14028)
(7.61092 0 4.56137)
(7.35373 0 5.02431)
(7.06687 0 5.53604)
(6.74026 0 6.10558)
(6.35795 0 6.74462)
(5.89435 0 7.4683)
(5.30137 0 8.29582)
(4.5098 0 9.24782)
(3.26994 0 10.3424)
(1.60579 0 11.361)
(9.99544 0 0.133075)
(9.98026 0 0.264552)
(9.95337 0 0.396513)
(9.91593 0 0.53088)
(9.86883 0 0.669308)
(9.81246 0 0.813337)
(9.74699 0 0.96446)
(9.67259 0 1.12414)
(9.58949 0 1.29383)
(9.49784 0 1.47499)
(9.39781 0 1.66911)
(9.28953 0 1.87771)
(9.17309 0 2.10242)
(9.04854 0 2.34495)
(8.91588 0 2.60717)
(8.77499 0 2.89116)
(8.62564 0 3.19926)
(8.46737 0 3.53424)
(8.29946 0 3.8994)
(8.12079 0 4.29883)
(7.92965 0 4.73776)
(7.72349 0 5.22302)
(7.49849 0 5.76384)
(7.24877 0 6.37304)
(6.96487 0 7.06908)
(6.63129 0 7.87983)
(6.21528 0 8.85079)
(5.66746 0 10.0651)
(4.6926 0 11.7314)
(2.68942 0 14.5965)
(0.154533 0 -0.16094)
(0.351885 0 -0.142145)
(0.557449 0 -0.114988)
(0.736385 0 -0.0913937)
(0.88385 0 -0.0726587)
(1.00553 0 -0.0580179)
(1.10779 0 -0.0466408)
(1.19533 0 -0.0378463)
(1.27147 0 -0.0310259)
(1.33859 0 -0.0256361)
(1.39832 0 -0.0212347)
(1.4517 0 -0.0175145)
(1.49936 0 -0.0143012)
(1.54179 0 -0.0114534)
(1.57919 0 -0.00867682)
(1.61095 0 -0.00544485)
(1.63515 0 -0.0013091)
(1.64922 0 0.00348101)
(1.65219 0 0.00766533)
(1.6459 0 0.00975282)
(1.63373 0 0.0100801)
(1.6182 0 0.00946809)
(1.6008 0 0.00812795)
(1.5847 0 0.00575191)
(1.57452 0 0.00219247)
(1.57549 0 -0.00178715)
(1.58982 0 -0.00535286)
(1.61698 0 -0.00818477)
(1.65425 0 -0.00965803)
(1.70592 0 -0.00842709)
(0.121232 0 -0.348898)
(0.30951 0 -0.321473)
(0.495123 0 -0.267211)
(0.659124 0 -0.217982)
(0.797769 0 -0.178513)
(0.915799 0 -0.147607)
(1.01829 0 -0.123612)
(1.10897 0 -0.105095)
(1.1905 0 -0.0907401)
(1.26482 0 -0.0793484)
(1.33324 0 -0.0699307)
(1.39656 0 -0.0618119)
(1.45523 0 -0.0546765)
(1.50968 0 -0.0483639)
(1.56051 0 -0.042358)
(1.60813 0 -0.0354433)
(1.65188 0 -0.0264333)
(1.68953 0 -0.0159156)
(1.71875 0 -0.00630605)
(1.73994 0 0.000975178)
(1.75675 0 0.00743443)
(1.76999 0 0.0120277)
(1.77994 0 0.0130531)
(1.78927 0 0.0101327)
(1.79952 0 0.0036455)
(1.81082 0 -0.00500492)
(1.82379 0 -0.0148041)
(1.83915 0 -0.0244258)
(1.85753 0 -0.0319161)
(1.88649 0 -0.0326244)
(0.0891482 0 -0.538061)
(0.245576 0 -0.500846)
(0.387008 0 -0.420449)
(0.512604 0 -0.346927)
(0.618211 0 -0.287755)
(0.708192 0 -0.24113)
(0.786236 0 -0.204667)
(0.855026 0 -0.176257)
(0.916557 0 -0.15398)
(0.972315 0 -0.136083)
(1.02331 0 -0.121082)
(1.07005 0 -0.107942)
(1.11267 0 -0.0962742)
(1.15121 0 -0.0861587)
(1.18628 0 -0.0772377)
(1.21917 0 -0.0675239)
(1.25048 0 -0.0538587)
(1.27838 0 -0.0363479)
(1.29893 0 -0.0217093)
(1.3114 0 -0.014936)
(1.32165 0 -0.0120259)
(1.32639 0 -0.00841409)
(1.31992 0 -0.00596353)
(1.30191 0 -0.00747379)
(1.27799 0 -0.0118499)
(1.25285 0 -0.0162143)
(1.22536 0 -0.0192707)
(1.19493 0 -0.0223602)
(1.16596 0 -0.0255243)
(1.14621 0 -0.0258375)
(0.0598669 0 -0.676849)
(0.175441 0 -0.624112)
(0.263004 0 -0.520756)
(0.343013 0 -0.429108)
(0.407328 0 -0.355908)
(0.461076 0 -0.298209)
(0.506257 0 -0.253051)
(0.544466 0 -0.217811)
(0.577026 0 -0.190143)
(0.605002 0 -0.167911)
(0.629197 0 -0.149217)
(0.650057 0 -0.132609)
(0.66755 0 -0.117458)
(0.680581 0 -0.104117)
(0.68874 0 -0.0931669)
(0.693957 0 -0.0838374)
(0.699825 0 -0.0725373)
(0.708728 0 -0.0562032)
(0.711419 0 -0.0335375)
(0.670761 0 -0.0108555)
(0.607756 0 0.0043526)
(0.552881 0 0.0191126)
(0.505454 0 0.0314485)
(0.45632 0 0.0357898)
(0.408217 0 0.0319123)
(0.366987 0 0.022545)
(0.349986 0 0.0110625)
(0.342947 0 -0.00143632)
(0.347798 0 -0.0165156)
(0.370835 0 -0.0352252)
(0.030358 0 -0.768344)
(0.0972382 0 -0.695271)
(0.12391 0 -0.572494)
(0.153991 0 -0.469119)
(0.170723 0 -0.386719)
(0.181652 0 -0.321611)
(0.186691 0 -0.270535)
(0.186652 0 -0.23057)
(0.182275 0 -0.199175)
(0.174243 0 -0.174082)
(0.163317 0 -0.153184)
(0.150328 0 -0.13461)
(0.136006 0 -0.116981)
(0.117708 0 -0.0999749)
(0.0926611 0 -0.084002)
(0.0566377 0 -0.0678483)
(0.00843086 0 -0.0471842)
(-0.0395183 0 -0.0189949)
(-0.0887801 0 0.0132615)
(-0.109026 0 0.0359621)
(-0.133646 0 0.045936)
(-0.155282 0 0.0494985)
(-0.174336 0 0.0511778)
(-0.191685 0 0.0473813)
(-0.206444 0 0.0357589)
(-0.217748 0 0.0182659)
(-0.219345 0 0.000795346)
(-0.214644 0 -0.0149563)
(-0.20976 0 -0.0312176)
(-0.206729 0 -0.0465106)
(-0.00109234 0 -0.804248)
(0.0101786 0 -0.707422)
(-0.0268185 0 -0.568491)
(-0.0509339 0 -0.458845)
(-0.086195 0 -0.371022)
(-0.123361 0 -0.301943)
(-0.163857 0 -0.247853)
(-0.206997 0 -0.205492)
(-0.252392 0 -0.171985)
(-0.299661 0 -0.144909)
(-0.348123 0 -0.122221)
(-0.39667 0 -0.102238)
(-0.444013 0 -0.08376)
(-0.489052 0 -0.066222)
(-0.531044 0 -0.0495448)
(-0.569731 0 -0.0336106)
(-0.604777 0 -0.0179777)
(-0.635484 0 -0.00113834)
(-0.651572 0 0.0156815)
(-0.664051 0 0.0325001)
(-0.673583 0 0.0459933)
(-0.680283 0 0.0526357)
(-0.683948 0 0.0538263)
(-0.685424 0 0.0493456)
(-0.686374 0 0.0384091)
(-0.688228 0 0.022782)
(-0.690324 0 0.00531104)
(-0.690125 0 -0.0128294)
(-0.692488 0 -0.0304905)
(-0.696693 0 -0.0450503)
(-0.0379252 0 -0.776206)
(-0.0877668 0 -0.653943)
(-0.184508 0 -0.511003)
(-0.267365 0 -0.400233)
(-0.353749 0 -0.312827)
(-0.437934 0 -0.245001)
(-0.519382 0 -0.192662)
(-0.596939 0 -0.152589)
(-0.669619 0 -0.121941)
(-0.736779 0 -0.098305)
(-0.798061 0 -0.0796615)
(-0.853282 0 -0.0642963)
(-0.902411 0 -0.050797)
(-0.945638 0 -0.0381092)
(-0.98341 0 -0.0255663)
(-1.01615 0 -0.0127822)
(-1.0439 0 0.000404342)
(-1.06294 0 0.013783)
(-1.07598 0 0.0271205)
(-1.08406 0 0.0393195)
(-1.0879 0 0.0483886)
(-1.08852 0 0.0530731)
(-1.08669 0 0.0530784)
(-1.08361 0 0.0478167)
(-1.08104 0 0.0368742)
(-1.08043 0 0.0216521)
(-1.08183 0 0.00469672)
(-1.08422 0 -0.0125153)
(-1.0896 0 -0.0299907)
(-1.09477 0 -0.0441895)
(-0.08081 0 -0.683055)
(-0.189541 0 -0.542599)
(-0.344594 0 -0.401274)
(-0.481637 0 -0.295667)
(-0.61165 0 -0.216514)
(-0.730046 0 -0.158021)
(-0.836249 0 -0.115091)
(-0.930403 0 -0.0840092)
(-1.01316 0 -0.0618711)
(-1.08549 0 -0.0461022)
(-1.14848 0 -0.0345794)
(-1.20315 0 -0.0256409)
(-1.25026 0 -0.0180304)
(-1.29049 0 -0.0108566)
(-1.32412 0 -0.00354916)
(-1.35163 0 0.00430474)
(-1.37308 0 0.0129527)
(-1.39004 0 0.0225993)
(-1.40208 0 0.0327806)
(-1.40904 0 0.0420384)
(-1.41158 0 0.0487532)
(-1.4108 0 0.051986)
(-1.40789 0 0.0512214)
(-1.4042 0 0.0459091)
(-1.40136 0 0.0358661)
(-1.40075 0 0.0221043)
(-1.40293 0 0.00634203)
(-1.40736 0 -0.0103685)
(-1.41456 0 -0.0273014)
(-1.41995 0 -0.040515)
(-0.129924 0 -0.52583)
(-0.297353 0 -0.376605)
(-0.506998 0 -0.247608)
(-0.689417 0 -0.158021)
(-0.853289 0 -0.0946006)
(-0.995368 0 -0.0514321)
(-1.11524 0 -0.024052)
(-1.21411 0 -0.00800296)
(-1.29621 0 0.0011581)
(-1.36486 0 0.00616066)
(-1.42276 0 0.00883123)
(-1.4719 0 0.0104092)
(-1.51365 0 0.0117799)
(-1.54898 0 0.0136061)
(-1.57896 0 0.0163972)
(-1.60434 0 0.0204128)
(-1.62548 0 0.0256812)
(-1.64227 0 0.0319971)
(-1.65435 0 0.0387244)
(-1.66167 0 0.044831)
(-1.66478 0 0.0491766)
(-1.66475 0 0.0509289)
(-1.66288 0 0.049463)
(-1.66055 0 0.0442133)
(-1.65923 0 0.0350241)
(-1.66016 0 0.0226182)
(-1.66411 0 0.00823703)
(-1.67092 0 -0.00728241)
(-1.68002 0 -0.023126)
(-1.68582 0 -0.0350718)
(-0.189806 0 -0.315889)
(-0.42681 0 -0.170424)
(-0.692693 0 -0.0421667)
(-0.898641 0 0.0217241)
(-1.06747 0 0.0523354)
(-1.20432 0 0.0644383)
(-1.31662 0 0.0667999)
(-1.41088 0 0.0645514)
(-1.49017 0 0.0598828)
(-1.55724 0 0.0542824)
(-1.61431 0 0.0487061)
(-1.66308 0 0.0436798)
(-1.70475 0 0.0395477)
(-1.74021 0 0.0367019)
(-1.77028 0 0.0355168)
(-1.79574 0 0.0361213)
(-1.81708 0 0.0383038)
(-1.83433 0 0.0415599)
(-1.84723 0 0.0451751)
(-1.85574 0 0.0483844)
(-1.86036 0 0.050478)
(-1.86214 0 0.0508393)
(-1.8624 0 0.0488315)
(-1.86253 0 0.0438223)
(-1.86377 0 0.0355421)
(-1.86718 0 0.0244206)
(-1.87362 0 0.0113323)
(-1.8831 0 -0.00301996)
(-1.89419 0 -0.0176997)
(-1.90053 0 -0.0285566)
(-0.259409 0 0.0287963)
(-0.53262 0 0.15667)
(-0.806587 0 0.186028)
(-1.02081 0 0.193662)
(-1.19647 0 0.186686)
(-1.33999 0 0.172275)
(-1.45748 0 0.154897)
(-1.55412 0 0.13681)
(-1.6341 0 0.119277)
(-1.7009 0 0.103294)
(-1.75736 0 0.0894191)
(-1.80554 0 0.0776481)
(-1.8467 0 0.0678124)
(-1.88168 0 0.0600595)
(-1.91135 0 0.0547604)
(-1.93669 0 0.0519947)
(-1.95837 0 0.0512727)
(-1.97651 0 0.0517237)
(-1.99078 0 0.0524941)
(-2.00102 0 0.0530262)
(-2.00764 0 0.0530106)
(-2.01173 0 0.0521062)
(-2.01468 0 0.0497064)
(-2.01784 0 0.0450499)
(-2.02221 0 0.0376565)
(-2.02866 0 0.027684)
(-2.03804 0 0.0157705)
(-2.05055 0 0.0025318)
(-2.06348 0 -0.0110596)
(-2.07048 0 -0.0210552)
(-0.287305 0 0.401385)
(-0.589418 0 0.447799)
(-0.898015 0 0.422825)
(-1.13142 0 0.380349)
(-1.31493 0 0.333013)
(-1.45948 0 0.286948)
(-1.57475 0 0.245377)
(-1.66807 0 0.209081)
(-1.74452 0 0.177585)
(-1.80792 0 0.150831)
(-1.86149 0 0.1288)
(-1.9076 0 0.110683)
(-1.94735 0 0.0954603)
(-1.98122 0 0.0829607)
(-2.01002 0 0.0737272)
(-2.03498 0 0.0679315)
(-2.0571 0 0.0647508)
(-2.07648 0 0.0628027)
(-2.09256 0 0.0609932)
(-2.10484 0 0.0589824)
(-2.11366 0 0.0569493)
(-2.12021 0 0.0549199)
(-2.12609 0 0.0523165)
(-2.13259 0 0.048151)
(-2.14052 0 0.0416343)
(-2.15042 0 0.0326557)
(-2.16306 0 0.0217089)
(-2.17861 0 0.00940101)
(-2.19358 0 -0.00320903)
(-2.2013 0 -0.0124823)
(-0.333543 0 0.819123)
(-0.68615 0 0.800197)
(-1.02532 0 0.685234)
(-1.26101 0 0.572511)
(-1.4368 0 0.477159)
(-1.57045 0 0.396463)
(-1.67455 0 0.330072)
(-1.75823 0 0.276325)
(-1.82683 0 0.231696)
(-1.88361 0 0.194773)
(-1.93201 0 0.165458)
(-1.97478 0 0.142038)
(-2.01255 0 0.122096)
(-2.04492 0 0.10505)
(-2.07236 0 0.0920602)
(-2.09664 0 0.0837366)
(-2.11928 0 0.0787966)
(-2.14035 0 0.0750149)
(-2.15872 0 0.0708752)
(-2.17333 0 0.0663283)
(-2.18436 0 0.0622726)
(-2.19331 0 0.0592725)
(-2.20213 0 0.0567422)
(-2.2122 0 0.0532953)
(-2.22399 0 0.0476904)
(-2.23766 0 0.0395233)
(-2.25373 0 0.0292487)
(-2.27235 0 0.0176576)
(-2.28981 0 0.00594418)
(-2.29805 0 -0.00267195)
(-0.42535 0 1.32024)
(-0.855059 0 1.20438)
(-1.21502 0 0.955362)
(-1.42375 0 0.749448)
(-1.56855 0 0.60515)
(-1.67691 0 0.490665)
(-1.75953 0 0.401592)
(-1.82694 0 0.334422)
(-1.88397 0 0.279481)
(-1.93138 0 0.233338)
(-1.9724 0 0.198012)
(-2.01089 0 0.171154)
(-2.04677 0 0.147654)
(-2.07761 0 0.126203)
(-2.10318 0 0.109481)
(-2.12627 0 0.0993219)
(-2.14953 0 0.0937001)
(-2.17294 0 0.0888651)
(-2.1943 0 0.0825825)
(-2.21154 0 0.0752696)
(-2.22463 0 0.0689852)
(-2.23567 0 0.0651433)
(-2.2473 0 0.0630597)
(-2.26107 0 0.06065)
(-2.27705 0 0.0560127)
(-2.2948 0 0.048422)
(-2.31447 0 0.0384395)
(-2.33617 0 0.0272874)
(-2.35601 0 0.0163924)
(-2.36546 0 0.00853924)
(-0.616939 0 2.21285)
(-1.13731 0 1.8192)
(-1.50674 0 1.24506)
(-1.63373 0 0.859159)
(-1.70946 0 0.691785)
(-1.77792 0 0.561523)
(-1.82789 0 0.456248)
(-1.87267 0 0.381367)
(-1.91695 0 0.318847)
(-1.95359 0 0.262704)
(-1.98467 0 0.223249)
(-2.01811 0 0.197239)
(-2.05315 0 0.172752)
(-2.08312 0 0.146753)
(-2.10609 0 0.125517)
(-2.12703 0 0.114223)
(-2.15102 0 0.109525)
(-2.17782 0 0.104702)
(-2.20325 0 0.0963374)
(-2.22348 0 0.085649)
(-2.23819 0 0.076613)
(-2.25062 0 0.0720634)
(-2.26469 0 0.0710313)
(-2.28222 0 0.0701972)
(-2.30268 0 0.0666985)
(-2.32471 0 0.0594654)
(-2.34786 0 0.049329)
(-2.37215 0 0.038256)
(-2.3938 0 0.0281687)
(-2.404 0 0.0212071)
(9.9959 0 0.138472)
(9.98224 0 0.275291)
(9.95809 0 0.412602)
(9.9245 0 0.552372)
(9.88237 0 0.69628)
(9.83209 0 0.845877)
(9.77389 0 1.00267)
(9.70802 0 1.16813)
(9.63476 0 1.34373)
(9.55439 0 1.53092)
(9.46717 0 1.7312)
(9.37337 0 1.94612)
(9.27325 0 2.1773)
(9.16707 0 2.42649)
(9.05509 0 2.69559)
(8.93752 0 2.98674)
(8.81456 0 3.3024)
(8.68634 0 3.64544)
(8.55294 0 4.01939)
(8.41436 0 4.42861)
(8.27054 0 4.87875)
(8.12137 0 5.37726)
(7.96682 0 5.93431)
(7.80717 0 6.56425)
(7.64368 0 7.28817)
(7.48138 0 8.13864)
(7.33367 0 9.16968)
(7.291 0 10.4749)
(7.75285 0 12.1993)
(7.94231 0 14.9192)
(9.99638 0 0.143434)
(9.98433 0 0.28515)
(9.96303 0 0.427336)
(9.93348 0 0.571991)
(9.89651 0 0.720806)
(9.85254 0 0.875339)
(9.80187 0 1.0371)
(9.74479 0 1.20755)
(9.68167 0 1.38817)
(9.61289 0 1.5804)
(9.53883 0 1.78571)
(9.4599 0 2.00565)
(9.37655 0 2.24182)
(9.28925 0 2.49594)
(9.19853 0 2.7699)
(9.10496 0 3.06582)
(9.0092 0 3.3861)
(8.912 0 3.73362)
(8.81428 0 4.1118)
(8.71722 0 4.52491)
(8.62243 0 4.97836)
(8.53228 0 5.47917)
(8.45051 0 6.03666)
(8.38339 0 6.66339)
(8.34215 0 7.37656)
(8.34891 0 8.19956)
(8.44264 0 9.16244)
(8.67941 0 10.2983)
(9.32827 0 11.5514)
(9.82149 0 12.6348)
(9.99688 0 0.147874)
(9.9865 0 0.293967)
(9.96817 0 0.440494)
(9.94279 0 0.589471)
(9.91115 0 0.742591)
(9.87369 0 0.901407)
(9.83075 0 1.06741)
(9.78269 0 1.24207)
(9.72996 0 1.42681)
(9.67301 0 1.62306)
(9.61237 0 1.83226)
(9.54857 0 2.05589)
(9.48225 0 2.29551)
(9.4141 0 2.55278)
(9.34492 0 2.82949)
(9.27562 0 3.12764)
(9.20731 0 3.4495)
(9.14133 0 3.79771)
(9.07937 0 4.17537)
(9.02364 0 4.58625)
(8.97716 0 5.03494)
(8.94421 0 5.52709)
(8.9311 0 6.06968)
(8.94736 0 6.67109)
(9.00749 0 7.34069)
(9.13363 0 8.08708)
(9.35682 0 8.91199)
(9.68643 0 9.80408)
(10.2519 0 10.7116)
(10.9389 0 11.4235)
(9.9974 0 0.151738)
(9.98873 0 0.301633)
(9.97345 0 0.451908)
(9.95235 0 0.60458)
(9.92617 0 0.761335)
(9.89536 0 0.923708)
(9.8603 0 1.09317)
(9.82143 0 1.27115)
(9.77924 0 1.45904)
(9.73429 0 1.65821)
(9.6872 0 1.87006)
(9.63865 0 2.09598)
(9.58944 0 2.33743)
(9.54046 0 2.59596)
(9.49275 0 2.87322)
(9.44756 0 3.171)
(9.40637 0 3.49131)
(9.371 0 3.8364)
(9.34376 0 4.20886)
(9.3276 0 4.61165)
(9.32648 0 5.04816)
(9.34567 0 5.52223)
(9.39244 0 6.03795)
(9.47668 0 6.59927)
(9.61159 0 7.20894)
(9.81397 0 7.86654)
(10.1065 0 8.56491)
(10.4978 0 9.28927)
(11.0545 0 10.0294)
(11.8463 0 10.6722)
(9.99792 0 0.15498)
(9.991 0 0.308057)
(9.97882 0 0.461443)
(9.96208 0 0.617141)
(9.94144 0 0.776818)
(9.91737 0 0.941979)
(9.89028 0 1.11406)
(9.86066 0 1.29444)
(9.82908 0 1.48446)
(9.79617 0 1.68542)
(9.76263 0 1.89863)
(9.72928 0 2.12538)
(9.69704 0 2.36701)
(9.66699 0 2.6249)
(9.64037 0 2.90049)
(9.61868 0 3.19531)
(9.60369 0 3.51103)
(9.59758 0 3.8494)
(9.60303 0 4.21235)
(9.62344 0 4.60192)
(9.66311 0 5.02019)
(9.72758 0 5.46918)
(9.82392 0 5.95048)
(9.96105 0 6.46477)
(10.15 0 7.01094)
(10.4039 0 7.58509)
(10.7399 0 8.17907)
(11.1695 0 8.77817)
(11.7158 0 9.37083)
(12.4672 0 9.88222)
(9.99845 0 0.157557)
(9.99329 0 0.313153)
(9.98425 0 0.468973)
(9.9719 0 0.62699)
(9.95684 0 0.788837)
(9.93953 0 0.955981)
(9.92042 0 1.12981)
(9.90006 0 1.31164)
(9.87904 0 1.50273)
(9.85807 0 1.70432)
(9.83794 0 1.91759)
(9.81955 0 2.14371)
(9.80393 0 2.38387)
(9.7923 0 2.63925)
(9.78605 0 2.91104)
(9.78684 0 3.20047)
(9.79663 0 3.50877)
(9.81778 0 3.83721)
(9.85317 0 4.18698)
(9.90627 0 4.55921)
(9.98136 0 4.95479)
(10.0837 0 5.37419)
(10.2195 0 5.81714)
(10.3964 0 6.28216)
(10.6232 0 6.766)
(10.9095 0 7.26286)
(11.2664 0 7.76353)
(11.702 0 8.25245)
(12.217 0 8.71295)
(12.891 0 9.10357)
(9.99898 0 0.159429)
(9.99559 0 0.316845)
(9.98969 0 0.474384)
(9.98172 0 0.633977)
(9.97222 0 0.797212)
(9.96164 0 0.965504)
(9.95047 0 1.14018)
(9.93926 0 1.32248)
(9.92866 0 1.51359)
(9.91942 0 1.71462)
(9.91239 0 1.92666)
(9.90854 0 2.15073)
(9.90897 0 2.38782)
(9.91499 0 2.6389)
(9.92808 0 2.9049)
(9.94997 0 3.18671)
(9.98271 0 3.48514)
(10.0287 0 3.80091)
(10.0907 0 4.13459)
(10.1722 0 4.48645)
(10.2771 0 4.85641)
(10.4099 0 5.24376)
(10.5759 0 5.64691)
(10.7811 0 6.06305)
(11.0319 0 6.4877)
(11.3346 0 6.91416)
(11.6953 0 7.33309)
(12.1182 0 7.73109)
(12.597 0 8.09364)
(13.2009 0 8.40027)
(9.99951 0 0.160563)
(9.99788 0 0.319064)
(9.99508 0 0.477578)
(9.99147 0 0.637977)
(9.98747 0 0.801792)
(9.98353 0 0.970375)
(9.98014 0 1.14498)
(9.9779 0 1.32677)
(9.97747 0 1.51682)
(9.97962 0 1.71615)
(9.98524 0 1.92569)
(9.99533 0 2.14631)
(10.0111 0 2.37882)
(10.0337 0 2.62395)
(10.0649 0 2.88237)
(10.1062 0 3.15461)
(10.1597 0 3.4411)
(10.2278 0 3.74207)
(10.313 0 4.0575)
(10.4184 0 4.38701)
(10.5474 0 4.72974)
(10.7038 0 5.08417)
(10.8918 0 5.4479)
(11.1156 0 5.81742)
(11.3796 0 6.18783)
(11.6874 0 6.55258)
(12.042 0 6.9034)
(12.4448 0 7.23)
(12.8881 0 7.52129)
(13.4298 0 7.76598)
(10 0 0.16093)
(10.0001 0 0.319758)
(10.0004 0 0.478477)
(10.001 0 0.638889)
(10.0024 0 0.802459)
(10.005 0 0.970465)
(10.0092 0 1.14408)
(10.0156 0 1.32437)
(10.025 0 1.51232)
(10.0381 0 1.70882)
(10.0558 0 1.91464)
(10.0791 0 2.13052)
(10.1091 0 2.35705)
(10.1473 0 2.59475)
(10.195 0 2.84401)
(10.2539 0 3.10506)
(10.3259 0 3.37797)
(10.4131 0 3.66256)
(10.5179 0 3.95833)
(10.6429 0 4.2644)
(10.7908 0 4.57939)
(10.9647 0 4.90128)
(11.1676 0 5.22728)
(11.4024 0 5.55369)
(11.6717 0 5.87576)
(11.9773 0 6.18764)
(12.3201 0 6.4825)
(12.6997 0 6.75251)
(13.1086 0 6.98937)
(13.5954 0 7.18625)
(10.0005 0 0.16051)
(10.0023 0 0.318883)
(10.0056 0 0.47702)
(10.0104 0 0.636639)
(10.017 0 0.799129)
(10.0258 0 0.965688)
(10.0373 0 1.1374)
(10.0521 0 1.31523)
(10.0709 0 1.50006)
(10.0943 0 1.69264)
(10.1233 0 1.89362)
(10.159 0 2.10354)
(10.2023 0 2.32285)
(10.2546 0 2.55182)
(10.3172 0 2.79061)
(10.3916 0 3.03919)
(10.4797 0 3.29731)
(10.5832 0 3.56446)
(10.7041 0 3.8398)
(10.8445 0 4.12211)
(11.0067 0 4.4097)
(11.1929 0 4.70032)
(11.405 0 4.99109)
(11.6449 0 5.27843)
(11.9138 0 5.55806)
(12.2124 0 5.82502)
(12.5403 0 6.07379)
(12.896 0 6.29849)
(13.2725 0 6.49311)
(13.7116 0 6.65348)
(10.001 0 0.159287)
(10.0044 0 0.31641)
(10.0106 0 0.473166)
(10.0194 0 0.631181)
(10.031 0 0.791757)
(10.0459 0 0.956005)
(10.0643 0 1.12492)
(10.087 0 1.29936)
(10.1146 0 1.48009)
(10.1478 0 1.66774)
(10.1874 0 1.86282)
(10.2343 0 2.06572)
(10.2897 0 2.2767)
(10.3547 0 2.49586)
(10.4304 0 2.72314)
(10.5184 0 2.95829)
(10.6201 0 3.2008)
(10.737 0 3.44994)
(10.8708 0 3.70464)
(11.023 0 3.96348)
(11.1954 0 4.22461)
(11.3894 0 4.48578)
(11.6062 0 4.74419)
(11.8468 0 4.99662)
(12.1116 0 5.23934)
(12.4002 0 5.46827)
(12.7116 0 5.67909)
(13.0439 0 5.86746)
(13.391 0 6.02917)
(13.7892 0 6.16169)
(10.0015 0 0.157254)
(10.0065 0 0.312325)
(10.0153 0 0.466899)
(10.028 0 0.622498)
(10.0444 0 0.780333)
(10.0649 0 0.941426)
(10.09 0 1.10667)
(10.1201 0 1.27683)
(10.1559 0 1.45254)
(10.1981 0 1.63433)
(10.2473 0 1.82257)
(10.3046 0 2.0175)
(10.3708 0 2.21924)
(10.4469 0 2.42771)
(10.5341 0 2.64269)
(10.6336 0 2.86375)
(10.7466 0 3.09021)
(10.8742 0 3.32117)
(11.0179 0 3.55545)
(11.1787 0 3.79153)
(11.3578 0 4.02757)
(11.5561 0 4.2614)
(11.7741 0 4.49048)
(12.0123 0 4.71197)
(12.2702 0 4.92277)
(12.5473 0 5.1196)
(12.8419 0 5.29914)
(13.1521 0 5.45827)
(13.4725 0 5.59405)
(13.8356 0 5.70499)
(10.0019 0 0.154408)
(10.0084 0 0.306627)
(10.0199 0 0.458221)
(10.0361 0 0.610602)
(10.0571 0 0.764887)
(10.0829 0 0.922004)
(10.1141 0 1.08275)
(10.1511 0 1.24778)
(10.1945 0 1.41763)
(10.2448 0 1.59271)
(10.3028 0 1.77327)
(10.3692 0 1.95944)
(10.4449 0 2.15118)
(10.5308 0 2.3483)
(10.6277 0 2.55043)
(10.7368 0 2.75702)
(10.8588 0 2.96728)
(10.9948 0 3.18024)
(11.1457 0 3.39463)
(11.3123 0 3.60898)
(11.4952 0 3.82153)
(11.695 0 4.03027)
(11.9116 0 4.23298)
(12.1451 0 4.42724)
(12.3946 0 4.6105)
(12.6593 0 4.78021)
(12.9375 0 4.93388)
(13.2271 0 5.06924)
(13.5238 0 5.18432)
(13.8566 0 5.27826)
(10.0024 0 0.150757)
(10.0102 0 0.29933)
(10.0241 0 0.447155)
(10.0437 0 0.595534)
(10.0689 0 0.745483)
(10.0997 0 0.897838)
(10.1365 0 1.05329)
(10.1798 0 1.21242)
(10.2301 0 1.37564)
(10.2878 0 1.54326)
(10.3536 0 1.71543)
(10.428 0 1.89216)
(10.512 0 2.07332)
(10.6061 0 2.25861)
(10.7111 0 2.44756)
(10.8278 0 2.63954)
(10.9569 0 2.83372)
(11.0991 0 3.02908)
(11.2549 0 3.22439)
(11.4249 0 3.41822)
(11.6094 0 3.60898)
(11.8084 0 3.79488)
(12.0218 0 3.97401)
(12.249 0 4.14435)
(12.4893 0 4.30388)
(12.7414 0 4.45063)
(13.0038 0 4.58274)
(13.2747 0 4.69861)
(13.5502 0 4.79694)
(13.8566 0 4.87727)
(10.0027 0 0.146312)
(10.0119 0 0.290458)
(10.0281 0 0.433745)
(10.0508 0 0.577359)
(10.0798 0 0.722218)
(10.1152 0 0.869063)
(10.1572 0 1.0185)
(10.2062 0 1.171)
(10.2626 0 1.3269)
(10.3268 0 1.48641)
(10.3994 0 1.64958)
(10.4808 0 1.81635)
(10.5717 0 1.9865)
(10.6727 0 2.15965)
(10.7842 0 2.33529)
(10.9069 0 2.51273)
(11.0413 0 2.69113)
(11.1877 0 2.86949)
(11.3466 0 3.04664)
(11.5181 0 3.22128)
(11.7023 0 3.39198)
(11.8989 0 3.55718)
(12.1076 0 3.71529)
(12.3277 0 3.86466)
(12.5582 0 4.0037)
(12.7981 0 4.13091)
(13.0456 0 4.24494)
(13.2993 0 4.34467)
(13.5559 0 4.42924)
(13.8395 0 4.49849)
(10.0031 0 0.141093)
(10.0134 0 0.28005)
(10.0317 0 0.418052)
(10.0573 0 0.556167)
(10.0898 0 0.695217)
(10.1293 0 0.835852)
(10.1759 0 0.978589)
(10.23 0 1.12381)
(10.2918 0 1.27178)
(10.3617 0 1.42262)
(10.4402 0 1.57631)
(10.5275 0 1.73272)
(10.6242 0 1.89157)
(10.7307 0 2.05243)
(10.8473 0 2.21477)
(10.9745 0 2.37789)
(11.1126 0 2.54097)
(11.2617 0 2.70305)
(11.422 0 2.86308)
(11.5934 0 3.01987)
(11.7758 0 3.17218)
(11.9689 0 3.31869)
(12.172 0 3.45808)
(12.3844 0 3.58905)
(12.6052 0 3.71035)
(12.8331 0 3.82085)
(13.0669 0 3.91958)
(13.3049 0 4.00579)
(13.5446 0 4.07892)
(13.8082 0 4.13898)
(10.0034 0 0.135121)
(10.0148 0 0.268155)
(10.035 0 0.400152)
(10.0632 0 0.532068)
(10.0988 0 0.664631)
(10.142 0 0.798404)
(10.1927 0 0.933822)
(10.2513 0 1.07119)
(10.3178 0 1.2107)