/*--------------------------------*- C++ -*----------------------------------*\
  =========                 |
  \\      /  F ield         | OpenFOAM: The Open Source CFD Toolbox
   \\    /   O peration     | Website:  https://openfoam.org
    \\  /    A nd           | Version:  dev
     \\/     M anipulation  |
\*---------------------------------------------------------------------------*/
FoamFile
{
    version     2.0;
    format      ascii;
    class       surfaceVectorField;
    location    "3";
    object      Uf;
}
// * * * * * * * * * * * * * * * * * * * * * * * * * * * * * * * * * * * * * //

dimensions      [0 1 -1 0 0 0 0];

internalField   nonuniform List<vector> 
5457
(
(9.92088 0 0.0251107)
(9.97124 0 0.0387473)
(9.82401 0 0.0328286)
(9.92858 0 0.0485881)
(9.7096 0 0.0393145)
(9.85546 0 0.0587724)
(9.57541 0 0.0460146)
(9.75678 0 0.0705988)
(9.42134 0 0.0529524)
(9.6375 0 0.0830199)
(9.24749 0 0.0601701)
(9.49857 0 0.0959438)
(9.05356 0 0.067815)
(9.33924 0 0.10962)
(8.83885 0 0.0760387)
(9.15867 0 0.124297)
(8.60243 0 0.0849743)
(8.95601 0 0.140175)
(8.34316 0 0.0947487)
(8.73028 0 0.157441)
(8.05973 0 0.105491)
(8.48029 0 0.176277)
(7.75068 0 0.117331)
(8.20465 0 0.196863)
(7.41443 0 0.130398)
(7.90182 0 0.219366)
(7.04937 0 0.144812)
(7.57017 0 0.243926)
(6.6539 0 0.160673)
(7.20805 0 0.270634)
(6.22659 0 0.178043)
(6.81387 0 0.2995)
(5.76631 0 0.196926)
(6.38621 0 0.330411)
(5.27247 0 0.21723)
(5.92406 0 0.363079)
(4.74528 0 0.238731)
(5.427 0 0.396969)
(4.18613 0 0.261027)
(4.89557 0 0.431228)
(3.59792 0 0.283482)
(4.33158 0 0.464609)
(2.98552 0 0.305195)
(3.73856 0 0.495413)
(2.3561 0 0.325062)
(3.12225 0 0.521501)
(1.7191 0 0.342541)
(2.49106 0 0.540546)
(1.08436 0 0.361874)
(1.85586 0 0.551663)
(0.451857 0 0.348681)
(1.24549 0 0.563011)
(-0.145812 0 0.102474)
(0.608941 0 0.544875)
(-0.4236 0 -0.207078)
(0.0946826 0 0.259376)
(-0.402143 0 -0.36124)
(-0.133661 0 -0.0205197)
(-0.119673 0 -0.393875)
(9.99641 0 0.0516757)
(9.99705 0 0.0405076)
(9.95878 0 0.0708669)
(9.9785 0 0.0674603)
(9.89823 0 0.0879941)
(9.93376 0 0.0898785)
(9.81656 0 0.105994)
(9.86451 0 0.113566)
(9.71355 0 0.124932)
(9.77434 0 0.138528)
(9.58903 0 0.144865)
(9.66431 0 0.164661)
(9.44268 0 0.166102)
(9.53391 0 0.192347)
(9.27382 0 0.188979)
(9.38242 0 0.222047)
(9.08157 0 0.213794)
(9.2091 0 0.254165)
(8.86479 0 0.240826)
(9.01306 0 0.289079)
(8.62218 0 0.270346)
(8.7932 0 0.327167)
(8.35226 0 0.302615)
(8.54823 0 0.368798)
(8.05343 0 0.337863)
(8.2767 0 0.414326)
(7.72398 0 0.376265)
(7.97703 0 0.464053)
(7.36224 0 0.417903)
(7.64758 0 0.518192)
(6.96659 0 0.462705)
(7.28669 0 0.576805)
(6.53571 0 0.51038)
(6.89282 0 0.63972)
(6.06872 0 0.560323)
(6.46469 0 0.706417)
(5.56549 0 0.611508)
(6.00149 0 0.775894)
(5.02702 0 0.662369)
(5.50317 0 0.846505)
(4.45582 0 0.710691)
(4.97082 0 0.915784)
(3.85645 0 0.753522)
(4.40713 0 0.980283)
(3.23617 0 0.787179)
(3.81701 0 1.03543)
(2.60581 0 0.807485)
(3.20844 0 1.07546)
(1.9828 0 0.810453)
(2.59339 0 1.09313)
(1.40529 0 0.776888)
(1.99621 0 1.07707)
(0.92976 0 0.646397)
(1.41951 0 0.978402)
(0.439864 0 0.384338)
(0.937583 0 0.716802)
(0.0591769 0 -0.11861)
(0.443798 0 0.343534)
(0.174922 0 -0.335914)
(9.98903 0 0.0594364)
(9.99481 0 0.045882)
(9.95433 0 0.0894855)
(9.97368 0 0.084863)
(9.89728 0 0.118044)
(9.92983 0 0.119187)
(9.82044 0 0.147913)
(9.86355 0 0.153992)
(9.72412 0 0.179439)
(9.77732 0 0.190427)
(9.60816 0 0.212794)
(9.67222 0 0.228658)
(9.47228 0 0.248412)
(9.54804 0 0.269152)
(9.31599 0 0.286794)
(9.40424 0 0.31252)
(9.13859 0 0.328416)
(9.24025 0 0.359349)
(8.93914 0 0.37374)
(9.05539 0 0.410197)
(8.71653 0 0.423221)
(8.84878 0 0.465618)
(8.46947 0 0.477308)
(8.61939 0 0.526169)
(8.19654 0 0.536406)
(8.36602 0 0.592384)
(7.89619 0 0.600844)
(8.08738 0 0.664744)
(7.56678 0 0.670806)
(7.78206 0 0.743617)
(7.2067 0 0.746246)
(7.4486 0 0.829181)
(6.81444 0 0.826766)
(7.08555 0 0.921303)
(6.38876 0 0.911461)
(6.69158 0 1.01938)
(5.92894 0 0.998731)
(6.26561 0 1.12214)
(5.43506 0 1.08606)
(5.80703 0 1.22739)
(4.90849 0 1.16979)
(5.31601 0 1.33171)
(4.35239 0 1.24486)
(4.79393 0 1.43015)
(3.77257 0 1.30452)
(4.24394 0 1.51584)
(3.17872 0 1.33981)
(3.6718 0 1.57939)
(2.58664 0 1.3381)
(3.08633 0 1.60772)
(2.01987 0 1.27296)
(2.50294 0 1.58156)
(1.48696 0 1.09541)
(1.92876 0 1.46424)
(0.958312 0 0.769183)
(1.38527 0 1.21041)
(0.479883 0 0.202473)
(0.829555 0 0.801057)
(0.433735 0 0.134102)
(9.98515 0 0.0716217)
(9.99367 0 0.0531539)
(9.95038 0 0.113643)
(9.97087 0 0.102303)
(9.89435 0 0.15415)
(9.92689 0 0.147971)
(9.81879 0 0.195594)
(9.86183 0 0.193743)
(9.72438 0 0.238835)
(9.77743 0 0.241303)
(9.61107 0 0.28435)
(9.67462 0 0.291192)
(9.47867 0 0.332748)
(9.55337 0 0.343986)
(9.32687 0 0.384702)
(9.41328 0 0.400404)
(9.15513 0 0.440873)
(9.25391 0 0.461171)
(8.9628 0 0.501908)
(9.07473 0 0.526991)
(8.74905 0 0.568449)
(8.87508 0 0.598562)
(8.51291 0 0.641128)
(8.65417 0 0.676584)
(8.25333 0 0.72054)
(8.41109 0 0.761736)
(7.96912 0 0.807193)
(8.14485 0 0.854644)
(7.65904 0 0.901432)
(7.8544 0 0.955818)
(7.32179 0 1.00333)
(7.53861 0 1.06556)
(6.95608 0 1.11255)
(7.19632 0 1.18383)
(6.56073 0 1.2281)
(6.8264 0 1.31005)
(6.13479 0 1.34813)
(6.42778 0 1.44288)
(5.67776 0 1.46955)
(5.99957 0 1.57985)
(5.18994 0 1.58772)
(5.54127 0 1.71703)
(4.67283 0 1.69598)
(5.053 0 1.84848)
(4.12978 0 1.7851)
(4.53593 0 1.96577)
(3.56665 0 1.84249)
(3.99272 0 2.05725)
(2.99206 0 1.85069)
(3.42761 0 2.1071)
(2.41587 0 1.78247)
(2.84766 0 2.09446)
(1.84057 0 1.60046)
(2.25626 0 1.98872)
(1.25941 0 1.27844)
(1.66034 0 1.75305)
(0.666785 0 0.789561)
(1.02398 0 1.36778)
(0.523046 0 0.787177)
(9.98337 0 0.0844174)
(9.99316 0 0.0612989)
(9.9482 0 0.136853)
(9.96958 0 0.119942)
(9.89313 0 0.188054)
(9.92573 0 0.176261)
(9.81903 0 0.240195)
(9.86197 0 0.232725)
(9.72659 0 0.294498)
(9.7796 0 0.291119)
(9.61584 0 0.351692)
(9.67935 0 0.35231)
(9.48664 0 0.412505)
(9.56121 0 0.417015)
(9.3387 0 0.477711)
(9.42489 0 0.486048)
(9.17161 0 0.548084)
(9.27 0 0.560243)
(8.98481 0 0.624385)
(9.09609 0 0.640423)
(8.77766 0 0.707369)
(8.90262 0 0.7274)
(8.5494 0 0.797784)
(8.68893 0 0.821982)
(8.29921 0 0.896337)
(8.4543 0 0.92496)
(8.0262 0 1.00365)
(8.19792 0 1.03706)
(7.72943 0 1.1202)
(7.91897 0 1.15891)
(7.40791 0 1.24614)
(7.61654 0 1.29091)
(7.06063 0 1.38124)
(7.28971 0 1.43312)
(6.68657 0 1.52454)
(6.93749 0 1.58506)
(6.28474 0 1.67414)
(6.55886 0 1.74545)
(5.85429 0 1.82673)
(6.15277 0 1.91182)
(5.39464 0 1.97719)
(5.71814 0 2.08009)
(4.90571 0 2.11798)
(5.25402 0 2.24401)
(4.38823 0 2.23854)
(4.75971 0 2.39453)
(3.84395 0 2.32449)
(4.23494 0 2.51912)
(3.27546 0 2.35691)
(3.67991 0 2.60118)
(2.68542 0 2.31057)
(3.09575 0 2.61966)
(2.07272 0 2.155)
(2.48173 0 2.5473)
(1.42941 0 1.86742)
(1.83996 0 2.35373)
(0.742628 0 1.4196)
(1.13139 0 2.02455)
(0.543322 0 1.51453)
(9.98264 0 0.0975099)
(9.99299 0 0.0698018)
(9.94743 0 0.159795)
(9.96924 0 0.137601)
(9.89352 0 0.221374)
(9.92595 0 0.203952)
(9.82131 0 0.284124)
(9.86378 0 0.270721)
(9.7313 0 0.349385)
(9.78382 0 0.339621)
(9.62361 0 0.418059)
(9.6866 0 0.41174)
(9.49812 0 0.49098)
(9.57211 0 0.487949)
(9.35456 0 0.569017)
(9.44013 0 0.569152)
(9.19259 0 0.653045)
(9.29033 0 0.65628)
(9.01172 0 0.743935)
(9.12231 0 0.750258)
(8.81138 0 0.842549)
(8.93559 0 0.851996)
(8.59094 0 0.949734)
(8.72958 0 0.962399)
(8.3497 0 1.0663)
(8.50366 0 1.08235)
(8.0869 0 1.19297)
(8.25712 0 1.21266)
(7.80176 0 1.3303)
(7.98921 0 1.35404)
(7.49344 0 1.47858)
(7.69913 0 1.50701)
(7.16104 0 1.63765)
(7.38601 0 1.67173)
(6.80359 0 1.8067)
(7.04887 0 1.84787)
(6.41999 0 1.98391)
(6.68661 0 2.0343)
(6.00903 0 2.16606)
(6.29789 0 2.22876)
(5.56933 0 2.34802)
(5.8811 0 2.42739)
(5.09942 0 2.52212)
(5.43428 0 2.62416)
(4.59773 0 2.67749)
(4.95508 0 2.8102)
(4.06271 0 2.79942)
(4.44085 0 2.97313)
(3.49273 0 2.86905)
(3.88855 0 3.09655)
(2.88587 0 2.86289)
(3.29528 0 3.15985)
(2.23806 0 2.75393)
(2.65696 0 3.13789)
(1.54248 0 2.52106)
(1.9749 0 3.00321)
(0.793671 0 2.13138)
(1.20728 0 2.74064)
(0.556758 0 2.29189)
(9.9825 0 0.110641)
(9.99301 0 0.078372)
(9.9477 0 0.182348)
(9.96953 0 0.155058)
(9.89521 0 0.253849)
(9.92721 0 0.230916)
(9.82521 0 0.326805)
(9.86694 0 0.307547)
(9.73809 0 0.402599)
(9.78974 0 0.386567)
(9.63397 0 0.482282)
(9.696 0 0.469199)
(9.51278 0 0.566808)
(9.58572 0 0.556452)
(9.37429 0 0.657144)
(9.45871 0 0.649327)
(9.21817 0 0.754262)
(9.3147 0 0.748843)
(9.04402 0 0.85913)
(9.15334 0 0.856015)
(8.85131 0 0.972702)
(8.9742 0 0.971849)
(8.63947 0 1.09591)
(8.77676 0 1.09734)
(8.40786 0 1.22966)
(8.56042 0 1.23345)
(8.15578 0 1.37476)
(8.32452 0 1.38109)
(7.88247 0 1.53186)
(8.06835 0 1.54108)
(7.5871 0 1.70136)
(7.79107 0 1.71403)
(7.26873 0 1.88326)
(7.49178 0 1.90027)
(6.92627 0 2.07691)
(7.16937 0 2.09965)
(6.55838 0 2.28078)
(6.82251 0 2.31132)
(6.16336 0 2.49196)
(6.44946 0 2.5334)
(5.73905 0 2.70574)
(6.04799 0 2.76254)
(5.28268 0 2.91488)
(5.61518 0 2.99335)
(4.79082 0 3.10906)
(5.14721 0 3.21773)
(4.25932 0 3.27411)
(4.63939 0 3.42416)
(3.68344 0 3.39179)
(4.0861 0 3.59705)
(3.05811 0 3.43965)
(3.48139 0 3.71647)
(2.3778 0 3.3918)
(2.81845 0 3.7581)
(1.63797 0 3.22621)
(2.09924 0 3.69401)
(0.839165 0 2.90091)
(1.27898 0 3.50455)
(0.573392 0 3.1138)
(9.98273 0 0.123598)
(9.99316 0 0.0868297)
(9.94872 0 0.204337)
(9.97026 0 0.172117)
(9.89792 0 0.285289)
(9.92925 0 0.25701)
(9.83048 0 0.36801)
(9.87121 0 0.343032)
(9.74666 0 0.453903)
(9.79711 0 0.431731)
(9.64662 0 0.544134)
(9.70729 0 0.52441)
(9.5303 0 0.639767)
(9.60174 0 0.622198)
(9.39753 0 0.74186)
(9.48029 0 0.726191)
(9.24802 0 0.851473)
(9.34275 0 0.83749)
(9.0814 0 0.969662)
(9.18882 0 0.957195)
(8.89722 0 1.09747)
(9.0181 0 1.0864)
(8.69494 0 1.23592)
(8.83014 0 1.22618)
(8.47396 0 1.38601)
(8.62437 0 1.37762)
(8.23358 0 1.54864)
(8.40018 0 1.54171)
(7.97304 0 1.72459)
(8.15682 0 1.71938)
(7.69143 0 1.91442)
(7.89344 0 1.91141)
(7.38767 0 2.1183)
(7.609 0 2.11832)
(7.06045 0 2.33589)
(7.30223 0 2.34023)
(6.70806 0 2.56603)
(6.97148 0 2.57667)
(6.32824 0 2.80637)
(6.61457 0 2.82632)
(5.91802 0 3.05292)
(6.2286 0 3.08657)
(5.47341 0 3.2994)
(5.80967 0 3.35302)
(4.9893 0 3.53652)
(5.35263 0 3.61883)
(4.45938 0 3.7513)
(4.8509 0 3.87385)
(3.8763 0 3.92638)
(4.29649 0 4.10382)
(3.23243 0 4.03981)
(3.68066 0 4.2896)
(2.52094 0 4.06499)
(2.99364 0 4.40675)
(1.73846 0 3.97619)
(2.23751 0 4.42462)
(0.889524 0 3.71885)
(1.36345 0 4.31639)
(0.5988 0 3.98503)
(9.98321 0 0.136223)
(9.99339 0 0.0950543)
(9.95031 0 0.225603)
(9.97131 0 0.188616)
(9.90149 0 0.315539)
(9.93192 0 0.282089)
(9.83691 0 0.407555)
(9.87641 0 0.377011)
(9.75679 0 0.503072)
(9.80575 0 0.4749)
(9.66129 0 0.603342)
(9.72025 0 0.577117)
(9.55038 0 0.709528)
(9.61988 0 0.684887)
(9.42393 0 0.822771)
(9.50456 0 0.799392)
(9.28172 0 0.944214)
(9.37411 0 0.92181)
(9.12342 0 1.075)
(9.2283 0 1.05332)
(8.94864 0 1.21625)
(9.06681 0 1.1951)
(8.75688 0 1.36909)
(8.88921 0 1.34833)
(8.54758 0 1.53462)
(8.69502 0 1.51416)
(8.32005 0 1.71385)
(8.48362 0 1.69373)
(8.0735 0 1.90773)
(8.2543 0 1.88811)
(7.80693 0 2.11699)
(8.00614 0 2.09825)
(7.51913 0 2.3421)
(7.73804 0 2.32492)
(7.2085 0 2.58307)
(7.44852 0 2.56861)
(6.87294 0 2.83928)
(7.13566 0 2.82934)
(6.50964 0 3.10913)
(6.79685 0 3.1065)
(6.11479 0 3.38964)
(6.42855 0 3.39845)
(5.68327 0 3.67585)
(6.02597 0 3.70211)
(5.20839 0 3.96004)
(5.58266 0 4.01229)
(4.68171 0 4.23083)
(5.09026 0 4.32078)
(4.09329 0 4.47219)
(4.53827 0 4.61522)
(3.43256 0 4.66247)
(3.91475 0 4.87775)
(2.6902 0 4.77315)
(3.20577 0 5.08353)
(1.86192 0 4.77247)
(2.41138 0 5.198)
(0.954224 0 4.58984)
(1.47637 0 5.18442)
(0.639238 0 4.91963)
(9.98386 0 0.148391)
(9.99368 0 0.102959)
(9.95234 0 0.246006)
(9.9726 0 0.204425)
(9.90576 0 0.344447)
(9.93509 0 0.306014)
(9.84434 0 0.445257)
(9.88238 0 0.409328)
(9.76828 0 0.549879)
(9.81548 0 0.515884)
(9.67773 0 0.659634)
(9.73465 0 0.627088)
(9.57273 0 0.775767)
(9.63991 0 0.744241)
(9.45317 0 0.899499)
(9.5312 0 0.868603)
(9.31889 0 1.03205)
(9.40841 0 1.00143)
(9.16964 0 1.17463)
(9.27138 0 1.14396)
(9.00506 0 1.32846)
(9.11983 0 1.29746)
(8.82474 0 1.49477)
(8.95343 0 1.46319)
(8.62815 0 1.67474)
(8.77174 0 1.64242)
(8.41463 0 1.86956)
(8.57421 0 1.8364)
(8.18339 0 2.08032)
(8.36015 0 2.04636)
(7.93338 0 2.30802)
(8.12865 0 2.27348)
(7.66325 0 2.55344)
(7.87856 0 2.51883)
(7.37122 0 2.81708)
(7.6083 0 2.78331)
(7.05486 0 3.09898)
(7.31575 0 3.06756)
(6.71085 0 3.39848)
(6.998 0 3.3718)
(6.33468 0 3.71388)
(6.65102 0 3.69558)
(5.92018 0 4.04188)
(6.26928 0 4.03743)
(5.45915 0 4.37684)
(5.84524 0 4.39427)
(4.941 0 4.70968)
(5.36879 0 4.76047)
(4.35271 0 5.02636)
(4.82677 0 5.12651)
(3.67963 0 5.30607)
(4.20322 0 5.47688)
(2.90758 0 5.51815)
(3.47799 0 5.78738)
(2.02774 0 5.62308)
(2.64516 0 6.01952)
(1.04516 0 5.52961)
(1.63783 0 6.12407)
(0.704534 0 5.9433)
(9.98464 0 0.160006)
(9.99402 0 0.11048)
(9.95472 0 0.265422)
(9.97408 0 0.219435)
(9.91063 0 0.371875)
(9.93866 0 0.328663)
(9.85263 0 0.480951)
(9.88902 0 0.439841)
(9.78095 0 0.594123)
(9.82614 0 0.554511)
(9.69574 0 0.712767)
(9.75032 0 0.674112)
(9.59707 0 0.838199)
(9.66159 0 0.800012)
(9.48491 0 0.97171)
(9.55993 0 0.933535)
(9.35914 0 1.11459)
(9.44531 0 1.076)
(9.21958 0 1.26812)
(9.31762 0 1.22871)
(9.06595 0 1.4336)
(9.17667 0 1.39301)
(8.89791 0 1.61235)
(9.02221 0 1.57023)
(8.715 0 1.80568)
(8.85388 0 1.76175)
(8.51662 0 2.01492)
(8.67121 0 1.96895)
(8.30201 0 2.24136)
(8.47359 0 2.19323)
(8.07014 0 2.48627)
(8.26018 0 2.436)
(7.81963 0 2.75083)
(8.02984 0 2.69866)
(7.54859 0 3.03607)
(7.78102 0 2.98258)
(7.25441 0 3.34282)
(7.51156 0 3.28908)
(6.93348 0 3.67151)
(7.21844 0 3.6193)
(6.58078 0 4.02194)
(6.89742 0 3.97416)
(6.18937 0 4.39288)
(6.54258 0 4.35407)
(5.74975 0 4.78135)
(6.14563 0 4.75851)
(5.24917 0 5.18148)
(5.69508 0 5.18526)
(4.67107 0 5.5826)
(5.17517 0 5.62894)
(3.9951 0 5.96642)
(4.56527 0 6.07859)
(3.19864 0 6.30169)
(3.83659 0 6.51348)
(2.26198 0 6.5408)
(2.97111 0 6.8941)
(1.18074 0 6.56534)
(1.87938 0 7.15807)
(0.812935 0 7.09977)
(9.98553 0 0.170991)
(9.9944 0 0.117566)
(9.95737 0 0.283744)
(9.97571 0 0.233558)
(9.91598 0 0.397696)
(9.94257 0 0.349925)
(9.86166 0 0.514486)
(9.89621 0 0.468423)
(9.79463 0 0.635622)
(9.8376 0 0.590626)
(9.7151 0 0.762525)
(9.76707 0 0.718007)
(9.62315 0 0.89657)
(9.68467 0 0.851982)
(9.51883 0 1.03911)
(9.59045 0 0.993931)
(9.40207 0 1.19148)
(9.48443 0 1.14522)
(9.27277 0 1.35505)
(9.36658 0 1.30723)
(9.13075 0 1.53118)
(9.2368 0 1.48134)
(8.97574 0 1.72127)
(9.09494 0 1.66897)
(8.80739 0 1.92676)
(8.94073 0 1.87158)
(8.6252 0 2.14912)
(8.77382 0 2.09069)
(8.42849 0 2.38984)
(8.59372 0 2.32784)
(8.21632 0 2.65049)
(8.39972 0 2.5847)
(7.9874 0 2.93264)
(8.19082 0 2.86299)
(7.73988 0 3.23793)
(7.96563 0 3.16456)
(7.47121 0 3.56799)
(7.72212 0 3.49139)
(7.17775 0 3.92446)
(7.45746 0 3.84562)
(6.85436 0 4.30885)
(7.16758 0 4.2296)
(6.49377 0 4.72231)
(6.84668 0 4.64578)
(6.08572 0 5.16517)
(6.48641 0 5.0966)
(5.61577 0 5.63595)
(6.07474 0 5.58405)
(5.06382 0 6.12949)
(5.5942 0 6.10865)
(4.40255 0 6.63353)
(5.01992 0 6.66721)
(3.59653 0 7.12113)
(4.31301 0 7.2483)
(2.60471 0 7.54076)
(3.4362 0 7.82018)
(1.39456 0 7.74081)
(2.25694 0 8.31534)
(1.00289 0 8.46565)
(9.9865 0 0.181283)
(9.9948 0 0.124177)
(9.96025 0 0.300881)
(9.97747 0 0.246722)
(9.92174 0 0.4218)
(9.94674 0 0.369708)
(9.8713 0 0.545733)
(9.90384 0 0.494964)
(9.80918 0 0.674219)
(9.84973 0 0.624098)
(9.7356 0 0.808721)
(9.78472 0 0.758614)
(9.65071 0 0.950659)
(9.70894 0 0.899964)
(9.55459 0 1.10143)
(9.62247 0 1.04957)
(9.44728 0 1.26243)
(9.52542 0 1.20885)
(9.32874 0 1.43507)
(9.41782 0 1.37921)
(9.19888 0 1.62078)
(9.29969 0 1.5621)
(9.05757 0 1.82104)
(9.17096 0 1.75899)
(8.90455 0 2.03737)
(9.03151 0 1.97141)
(8.73946 0 2.27139)
(8.88113 0 2.20099)
(8.5618 0 2.5248)
(8.71949 0 2.44943)
(8.37078 0 2.79942)
(8.54608 0 2.71858)
(8.16531 0 3.09722)
(8.36015 0 3.01049)
(7.94381 0 3.42041)
(8.16057 0 3.32741)
(7.70398 0 3.77144)
(7.94573 0 3.67197)
(7.44255 0 4.15314)
(7.71325 0 4.04724)
(7.15478 0 4.56877)
(7.4597 0 4.4569)
(6.83379 0 5.02208)
(7.18006 0 4.90545)
(6.46953 0 5.51718)
(6.86695 0 5.3984)
(6.04713 0 6.05823)
(6.50933 0 5.94249)
(5.54435 0 6.64828)
(6.09024 0 6.54562)
(4.92755 0 7.28663)
(5.58354 0 7.21624)
(4.14563 0 7.96126)
(4.94317 0 7.96114)
(3.12245 0 8.63374)
(4.11018 0 8.77554)
(1.75677 0 9.12846)
(2.87936 0 9.62135)
(1.36532 0 10.1863)
(9.98753 0 0.190832)
(9.99523 0 0.130283)
(9.96331 0 0.316761)
(9.97931 0 0.25887)
(9.92783 0 0.444095)
(9.95113 0 0.387935)
(9.88144 0 0.57458)
(9.91185 0 0.519371)
(9.82443 0 0.709785)
(9.86238 0 0.654818)
(9.75704 0 0.851205)
(9.8031 0 0.795802)
(9.67948 0 1.00029)
(9.73416 0 0.943807)
(9.59188 0 1.15848)
(9.65571 0 1.10028)
(9.49436 0 1.32721)
(9.56791 0 1.26667)
(9.38697 0 1.50792)
(9.4709 0 1.44443)
(9.26974 0 1.70209)
(9.36478 0 1.63501)
(9.14265 0 1.91126)
(9.24962 0 1.83994)
(9.00559 0 2.13704)
(9.12544 0 2.06083)
(8.85839 0 2.38116)
(8.9922 0 2.29934)
(8.70073 0 2.64546)
(8.84977 0 2.55732)
(8.53211 0 2.93201)
(8.6979 0 2.83677)
(8.35174 0 3.24312)
(8.53617 0 3.13997)
(8.15845 0 3.58147)
(8.36389 0 3.46952)
(7.95053 0 3.95025)
(8.18 0 3.82854)
(7.72542 0 4.35334)
(7.98292 0 4.22085)
(7.47937 0 4.79561)
(7.77028 0 4.65124)
(7.20685 0 5.28323)
(7.53861 0 5.12591)
(6.89946 0 5.82421)
(7.28268 0 5.65308)
(6.54427 0 6.42892)
(6.99451 0 6.2439)
(6.12054 0 7.11079)
(6.66141 0 6.9139)
(5.59353 0 7.887)
(6.26282 0 7.68535)
(4.90172 0 8.77751)
(5.75833 0 8.59184)
(3.928 0 9.80167)
(5.08863 0 9.68473)
(2.4343 0 10.8578)
(3.98127 0 11.0498)
(2.14761 0 12.5705)
(9.98861 0 0.199599)
(9.99567 0 0.135861)
(9.96651 0 0.331321)
(9.98123 0 0.269956)
(9.93417 0 0.464499)
(9.95569 0 0.404545)
(9.89198 0 0.600921)
(9.92013 0 0.54157)
(9.84024 0 0.742184)
(9.87547 0 0.682697)
(9.77924 0 0.889802)
(9.82209 0 0.82947)
(9.70921 0 1.04525)
(9.76019 0 0.983389)
(9.63037 0 1.21)
(9.68998 0 1.14592)
(9.54291 0 1.3855)
(9.6117 0 1.31853)
(9.44697 0 1.57321)
(9.52558 0 1.50268)
(9.34272 0 1.77466)
(9.43184 0 1.69985)
(9.23025 0 1.99141)
(9.33066 0 1.91159)
(9.10964 0 2.22514)
(9.22223 0 2.13951)
(8.9809 0 2.47763)
(9.10669 0 2.38536)
(8.84399 0 2.75086)
(8.98418 0 2.65102)
(8.69871 0 3.04705)
(8.85473 0 2.9386)
(8.54471 0 3.36875)
(8.71832 0 3.25051)
(8.38139 0 3.719)
(8.5748 0 3.58959)
(8.2078 0 4.1015)
(8.42382 0 3.95925)
(8.0225 0 4.52092)
(8.26482 0 4.36376)
(7.82329 0 4.98329)
(8.09689 0 4.80859)
(7.6069 0 5.49666)
(7.91869 0 5.30097)
(7.36832 0 6.07208)
(7.72826 0 5.85076)
(7.09964 0 6.72522)
(7.52273 0 6.4719)
(6.78774 0 7.4793)
(7.29789 0 7.18497)
(6.40911 0 8.37111)
(7.04835 0 8.02239)
(5.91677 0 9.46521)
(6.76397 0 9.0407)
(5.1981 0 10.9082)
(6.46398 0 10.3558)
(3.88708 0 13.1811)
(6.19397 0 12.3035)
(5.26652 0 16.3777)
(0.240295 0 -0.151655)
(0.137882 0 -0.235354)
(0.464563 0 -0.128729)
(0.330698 0 -0.214469)
(0.654513 0 -0.103332)
(0.526286 0 -0.177359)
(0.812714 0 -0.0821381)
(0.697755 0 -0.144227)
(0.94487 0 -0.0654257)
(0.840809 0 -0.117636)
(1.05615 0 -0.0523973)
(0.960666 0 -0.0967178)
(1.15091 0 -0.0422961)
(1.06304 0 -0.0804101)
(1.23273 0 -0.0344768)
(1.15215 0 -0.0677919)
(1.30441 0 -0.0283632)
(1.23099 0 -0.0579833)
(1.36793 0 -0.0234617)
(1.30171 0 -0.0501711)
(1.42457 0 -0.0193968)
(1.36578 0 -0.0436885)
(1.47516 0 -0.015927)
(1.42413 0 -0.038087)
(1.52024 0 -0.0128943)
(1.4773 0 -0.0331492)
(1.56026 0 -0.0100817)
(1.52574 0 -0.0287284)
(1.59509 0 -0.00708015)
(1.56985 0 -0.0244065)
(1.62332 0 -0.00340168)
(1.60954 0 -0.0193223)
(1.64238 0 0.00105733)
(1.64351 0 -0.0127376)
(1.65045 0 0.00554817)
(1.66938 0 -0.00526397)
(1.64844 0 0.0086966)
(1.68547 0 0.00127974)
(1.63911 0 0.00991452)
(1.69292 0 0.00580726)
(1.62571 0 0.00977776)
(1.69524 0 0.00813246)
(1.60907 0 0.00880603)
(1.69409 0 0.00986748)
(1.59198 0 0.00695413)
(1.69037 0 0.00989421)
(1.57901 0 0.00399346)
(1.68699 0 0.00732871)
(1.57463 0 0.000226437)
(1.68702 0 0.00241939)
(1.58246 0 -0.0035487)
(1.69315 0 -0.00422123)
(1.60328 0 -0.0067519)
(1.70681 0 -0.0109522)
(1.63585 0 -0.0089126)
(1.72806 0 -0.0167285)
(1.6763 0 -0.00904991)
(1.75589 0 -0.0202882)
(1.79621 0 -0.0193829)
(0.207902 0 -0.335349)
(0.10519 0 -0.438981)
(0.409026 0 -0.294666)
(0.277543 0 -0.406806)
(0.582872 0 -0.242891)
(0.441065 0 -0.339683)
(0.730556 0 -0.198483)
(0.585864 0 -0.278865)
(0.857 0 -0.163245)
(0.70799 0 -0.230189)
(0.966619 0 -0.135753)
(0.811996 0 -0.191989)
(1.06301 0 -0.114464)
(0.902261 0 -0.162207)
(1.14907 0 -0.0980034)
(0.981996 0 -0.139099)
(1.22704 0 -0.0851123)
(1.05353 0 -0.121056)
(1.2985 0 -0.0746958)
(1.11857 0 -0.106614)
(1.36445 0 -0.0659198)
(1.17827 0 -0.0945525)
(1.42547 0 -0.0582868)
(1.23331 0 -0.0840362)
(1.48203 0 -0.0515579)
(1.28395 0 -0.0747287)
(1.53475 0 -0.0453969)
(1.33045 0 -0.0665765)
(1.58427 0 -0.038942)
(1.37339 0 -0.059113)
(1.63031 0 -0.0309922)
(1.41365 0 -0.050828)
(1.67097 0 -0.0212373)
(1.45118 0 -0.0399071)
(1.70377 0 -0.0111682)
(1.48396 0 -0.0266597)
(1.7282 0 -0.00270894)
(1.50884 0 -0.0142842)
(1.74739 0 0.00416621)
(1.52567 0 -0.00612611)
(1.76314 0 0.0097036)
(1.5392 0 -0.0014347)
(1.7745 0 0.0125343)
(1.54819 0 0.00313183)
(1.78372 0 0.0116103)
(1.54993 0 0.00455554)
(1.79355 0 0.00692785)
(1.54559 0 0.00177582)
(1.8048 0 -0.000628022)
(1.53875 0 -0.00378981)
(1.81718 0 -0.00984595)
(1.53183 0 -0.010893)
(1.83136 0 -0.0195574)
(1.52458 0 -0.0184113)
(1.84846 0 -0.0281262)
(1.51704 0 -0.025515)
(1.87031 0 -0.032266)
(1.51174 0 -0.0312473)
(1.51635 0 -0.0305396)
(0.165074 0 -0.519676)
(0.0745076 0 -0.60066)
(0.321253 0 -0.461128)
(0.210508 0 -0.556161)
(0.45441 0 -0.384128)
(0.325006 0 -0.464014)
(0.56717 0 -0.317694)
(0.427809 0 -0.381665)
(0.663603 0 -0.264721)
(0.512769 0 -0.316026)
(0.747026 0 -0.223116)
(0.584634 0 -0.264493)
(0.820189 0 -0.190632)
(0.646247 0 -0.224293)
(0.885276 0 -0.165252)
(0.699746 0 -0.193025)
(0.94396 0 -0.145138)
(0.746792 0 -0.16853)
(0.997437 0 -0.128672)
(0.788658 0 -0.148853)
(1.04639 0 -0.11459)
(0.826252 0 -0.132305)
(1.09105 0 -0.102178)
(0.860053 0 -0.117668)
(1.13155 0 -0.0912769)
(0.890111 0 -0.1045)
(1.16844 0 -0.0817515)
(0.915897 0 -0.0930579)
(1.20292 0 -0.0724388)
(0.937511 0 -0.0832811)
(1.23564 0 -0.0607729)
(0.956562 0 -0.0732207)
(1.26491 0 -0.0452079)
(0.975154 0 -0.0594638)
(1.28778 0 -0.029116)
(0.993553 0 -0.0415779)
(1.30368 0 -0.0183631)
(1.00517 0 -0.0244135)
(1.31645 0 -0.0134984)
(0.991083 0 -0.0140666)
(1.32329 0 -0.0102416)
(0.964704 0 -0.00559222)
(1.32213 0 -0.00720346)
(0.939633 0 0.00382112)
(1.30966 0 -0.00670964)
(0.912687 0 0.0117716)
(1.28914 0 -0.00963569)
(0.879115 0 0.0133776)
(1.26547 0 -0.014006)
(0.843105 0 0.00927394)
(1.23902 0 -0.0177242)
(0.809918 0 0.00335672)
(1.21019 0 -0.020797)
(0.787674 0 -0.00324074)
(1.18024 0 -0.0239234)
(0.768937 0 -0.0101305)
(1.15576 0 -0.025679)
(0.756881 0 -0.0189682)
(0.758524 0 -0.0300065)
(0.119538 0 -0.650796)
(0.0451124 0 -0.71774)
(0.223247 0 -0.573052)
(0.136339 0 -0.655339)
(0.307081 0 -0.475479)
(0.193457 0 -0.542291)
(0.376678 0 -0.392945)
(0.248502 0 -0.445114)
(0.434885 0 -0.327403)
(0.289025 0 -0.367839)
(0.48377 0 -0.2759)
(0.321364 0 -0.306979)
(0.525139 0 -0.235642)
(0.346474 0 -0.259397)
(0.560415 0 -0.204142)
(0.365559 0 -0.222253)
(0.590733 0 -0.17916)
(0.379651 0 -0.193057)
(0.616961 0 -0.158676)
(0.389622 0 -0.16957)
(0.639606 0 -0.141012)
(0.396257 0 -0.14977)
(0.658681 0 -0.125124)
(0.400193 0 -0.132032)
(0.67368 0 -0.110868)
(0.401778 0 -0.115528)
(0.6843 0 -0.0987076)
(0.399144 0 -0.100681)
(0.691965 0 -0.0885579)
(0.390701 0 -0.0886539)
(0.699248 0 -0.0782549)
(0.375297 0 -0.0782042)
(0.706173 0 -0.0644678)
(0.354128 0 -0.0640914)
(0.707607 0 -0.0450058)
(0.334605 0 -0.0425134)
(0.687251 0 -0.022332)
(0.31132 0 -0.0114471)
(0.639231 0 -0.00334232)
(0.280868 0 0.0157994)
(0.581236 0 0.0116444)
(0.237055 0 0.0296254)
(0.52676 0 0.0252068)
(0.1988 0 0.0361206)
(0.477231 0 0.0335932)
(0.165559 0 0.0404442)
(0.429797 0 0.0338742)
(0.132317 0 0.0401893)
(0.388166 0 0.0272847)
(0.100886 0 0.0322491)
(0.360003 0 0.0168724)
(0.0746191 0 0.0185325)
(0.345005 0 0.00488775)
(0.0653203 0 0.00465004)
(0.345126 0 -0.00888586)
(0.0641518 0 -0.0101926)
(0.359077 0 -0.0257586)
(0.0690189 0 -0.0259655)
(0.0820527 0 -0.0408529)
(0.067959 0 -0.732244)
(0.0146328 0 -0.784302)
(0.113329 0 -0.634616)
(0.0537084 0 -0.698727)
(0.142999 0 -0.521424)
(0.0485457 0 -0.569995)
(0.163862 0 -0.428411)
(0.0515287 0 -0.464134)
(0.177399 0 -0.354554)
(0.0422638 0 -0.379889)
(0.184722 0 -0.296378)
(0.0291453 0 -0.313343)
(0.186786 0 -0.250791)
(0.011417 0 -0.261149)
(0.184397 0 -0.21506)
(-0.0101728 0 -0.220274)
(0.178262 0 -0.186778)
(-0.0350587 0 -0.188094)
(0.169029 0 -0.163758)
(-0.0627089 0 -0.162277)
(0.157278 0 -0.144008)
(-0.0924032 0 -0.140707)
(0.143323 0 -0.125901)
(-0.123171 0 -0.121524)
(0.126658 0 -0.108579)
(-0.154003 0 -0.103275)
(0.105246 0 -0.0920839)
(-0.185672 0 -0.0853111)
(0.0751806 0 -0.0760217)
(-0.219192 0 -0.0675811)
(0.033853 0 -0.0576397)
(-0.256547 0 -0.0499221)
(-0.0143148 0 -0.033258)
(-0.298173 0 -0.0319068)
(-0.0646995 0 -0.00305946)
(-0.337501 0 -0.00964259)
(-0.102046 0 0.0244762)
(-0.370176 0 0.012342)
(-0.124585 0 0.0408895)
(-0.386538 0 0.0298175)
(-0.145408 0 0.047696)
(-0.403615 0 0.0422704)
(-0.167349 0 0.0503281)
(-0.417782 0 0.0491297)
(-0.186704 0 0.0493022)
(-0.429142 0 0.0516489)
(-0.201563 0 0.0416395)
(-0.438555 0 0.0485883)
(-0.212025 0 0.0271169)
(-0.446409 0 0.0380229)
(-0.218215 0 0.00963499)
(-0.452988 0 0.0218681)
(-0.216622 0 -0.00698635)
(-0.454835 0 0.00381176)
(-0.212129 0 -0.0229898)
(-0.452384 0 -0.0125005)
(-0.204846 0 -0.0387727)
(-0.451124 0 -0.0296185)
(-0.451711 0 -0.0441142)
(0.00733174 0 -0.756413)
(-0.0195087 0 -0.791483)
(-0.00789779 0 -0.638786)
(-0.0387941 0 -0.684163)
(-0.0353089 0 -0.514323)
(-0.105663 0 -0.544401)
(-0.0668994 0 -0.415458)
(-0.15915 0 -0.435334)
(-0.103127 0 -0.336895)
(-0.219972 0 -0.347641)
(-0.142721 0 -0.275221)
(-0.280647 0 -0.278932)
(-0.185035 0 -0.226926)
(-0.341619 0 -0.225242)
(-0.229548 0 -0.188939)
(-0.401968 0 -0.183393)
(-0.275882 0 -0.158609)
(-0.461006 0 -0.150611)
(-0.323601 0 -0.133701)
(-0.51822 0 -0.124585)
(-0.371988 0 -0.112349)
(-0.573092 0 -0.10339)
(-0.419979 0 -0.0931092)
(-0.624976 0 -0.0853871)
(-0.466224 0 -0.0750958)
(-0.673212 0 -0.0692758)
(-0.509586 0 -0.0579831)
(-0.717345 0 -0.0541836)
(-0.549559 0 -0.0416729)
(-0.757227 0 -0.0395644)
(-0.586091 0 -0.0258875)
(-0.79294 0 -0.0249214)
(-0.619453 0 -0.00965865)
(-0.824337 0 -0.00961503)
(-0.643886 0 0.00717106)
(-0.849211 0 0.00629698)
(-0.659231 0 0.0239903)
(-0.863778 0 0.0221169)
(-0.670036 0 0.0391661)
(-0.874057 0 0.0365375)
(-0.677785 0 0.0492748)
(-0.880742 0 0.0469762)
(-0.683623 0 0.0532239)
(-0.884403 0 0.052591)
(-0.68682 0 0.0516127)
(-0.885321 0 0.0534994)
(-0.687396 0 0.0439427)
(-0.884517 0 0.0489138)
(-0.687481 0 0.0306889)
(-0.883705 0 0.0380698)
(-0.68853 0 0.0141509)
(-0.884331 0 0.0224337)
(-0.69052 0 -0.0036508)
(-0.886079 0 0.00485885)
(-0.690539 0 -0.0215544)
(-0.887174 0 -0.0124911)
(-0.690088 0 -0.0376834)
(-0.891043 0 -0.0298444)
(-0.895734 0 -0.0445887)
(-0.0550942 0 -0.715805)
(-0.0593676 0 -0.737522)
(-0.135664 0 -0.583327)
(-0.138654 0 -0.607113)
(-0.220861 0 -0.45628)
(-0.264551 0 -0.464851)
(-0.308159 0 -0.357052)
(-0.374501 0 -0.355747)
(-0.394218 0 -0.279319)
(-0.4827 0 -0.271037)
(-0.477769 0 -0.219144)
(-0.58399 0 -0.206316)
(-0.557685 0 -0.172865)
(-0.677816 0 -0.157427)
(-0.632986 0 -0.137448)
(-0.763671 0 -0.121003)
(-0.702943 0 -0.110264)
(-0.84139 0 -0.0940174)
(-0.767129 0 -0.0890947)
(-0.911132 0 -0.0738867)
(-0.825361 0 -0.0720707)
(-0.973272 0 -0.0584812)
(-0.877578 0 -0.0576273)
(-1.02822 0 -0.046068)
(-0.923808 0 -0.0445289)
(-1.07634 0 -0.035287)
(-0.964273 0 -0.0319127)
(-1.11807 0 -0.0251355)
(-0.999329 0 -0.0192506)
(-1.15377 0 -0.0149941)
(-1.02922 0 -0.00626771)
(-1.18389 0 -0.00446755)
(-1.05283 0 0.00701372)
(-1.20849 0 0.00615921)
(-1.06975 0 0.0203721)
(-1.22649 0 0.017337)
(-1.08086 0 0.0331471)
(-1.23903 0 0.0291948)
(-1.08674 0 0.0437998)
(-1.24655 0 0.0401981)
(-1.08888 0 0.0507028)
(-1.24974 0 0.0482728)
(-1.08859 0 0.0530757)
(-1.24966 0 0.0524205)
(-1.08643 0 0.050479)
(-1.24729 0 0.0522504)
(-1.0833 0 0.0424108)
(-1.24391 0 0.0471394)
(-1.08099 0 0.0293541)
(-1.2412 0 0.036796)
(-1.0809 0 0.0132757)
(-1.24059 0 0.0223845)
(-1.0828 0 -0.00380642)
(-1.24238 0 0.00586078)
(-1.08573 0 -0.0211486)
(-1.24579 0 -0.0109843)
(-1.08898 0 -0.0370053)
(-1.25208 0 -0.0282149)
(-1.25736 0 -0.0423333)
(-0.122773 0 -0.613666)
(-0.105367 0 -0.617273)
(-0.265172 0 -0.472781)
(-0.243447 0 -0.470936)
(-0.407915 0 -0.349101)
(-0.425796 0 -0.331569)
(-0.543973 0 -0.256563)
(-0.585527 0 -0.231708)
(-0.669229 0 -0.187617)
(-0.73247 0 -0.159542)
(-0.782264 0 -0.136813)
(-0.862707 0 -0.108076)
(-0.882883 0 -0.0997357)
(-0.975742 0 -0.0720429)
(-0.971528 0 -0.0730725)
(-1.07225 0 -0.0475567)
(-1.04912 0 -0.0540809)
(-1.15468 0 -0.0312506)
(-1.11677 0 -0.0404096)
(-1.22517 0 -0.0204523)
(-1.17559 0 -0.0301635)
(-1.28562 0 -0.0131159)
(-1.22651 0 -0.0218811)
(-1.33752 0 -0.00772542)
(-1.27021 0 -0.0144863)
(-1.38196 0 -0.00315838)
(-1.30711 0 -0.00724652)
(-1.41973 0 0.00135076)
(-1.33755 0 0.000330861)
(-1.45154 0 0.00634286)
(-1.36189 0 0.00857704)
(-1.47798 0 0.0121913)
(-1.38124 0 0.0177184)
(-1.49928 0 0.01909)
(-1.39616 0 0.0276291)
(-1.51616 0 0.0270665)
(-1.40605 0 0.0373542)
(-1.52822 0 0.0354945)
(-1.41087 0 0.0453557)
(-1.53536 0 0.0431973)
(-1.41175 0 0.0503503)
(-1.53818 0 0.0488106)
(-1.41007 0 0.0516083)
(-1.53778 0 0.0514209)
(-1.4069 0 0.048597)
(-1.53538 0 0.0504145)
(-1.40347 0 0.0409476)
(-1.53238 0 0.0452021)
(-1.40136 0 0.0290674)
(-1.5303 0 0.0356301)
(-1.4017 0 0.0143174)
(-1.53045 0 0.0225708)
(-1.4047 0 -0.00191336)
(-1.53352 0 0.00743787)
(-1.40941 0 -0.0187338)
(-1.53914 0 -0.00856361)
(-1.41582 0 -0.0338293)
(-1.54729 0 -0.0250025)
(-1.55289 0 -0.0376103)
(-0.194764 0 -0.452109)
(-0.159865 0 -0.426514)
(-0.397928 0 -0.312877)
(-0.362082 0 -0.276649)
(-0.592846 0 -0.20335)
(-0.599845 0 -0.149571)
(-0.768937 0 -0.12669)
(-0.794029 0 -0.071172)
(-0.923082 0 -0.0732743)
(-0.960378 0 -0.0223329)
(-1.05454 0 -0.0379056)