/*--------------------------------*- C++ -*----------------------------------*\
  =========                 |
  \\      /  F ield         | OpenFOAM: The Open Source CFD Toolbox
   \\    /   O peration     | Website:  https://openfoam.org
    \\  /    A nd           | Version:  dev
     \\/     M anipulation  |
\*---------------------------------------------------------------------------*/
FoamFile
{
    version     2.0;
    format      ascii;
    class       volScalarField;
    location    "7.6";
    object      p;
}
// * * * * * * * * * * * * * * * * * * * * * * * * * * * * * * * * * * * * * //

dimensions      [0 2 -2 0 0 0 0];

internalField   nonuniform List<scalar> 
2790
(
146.758
146.665
146.933
147.504
148.284
149.241
150.373
151.68
153.157
154.798
156.597
158.548
160.642
162.867
165.207
167.643
170.147
172.686
175.218
177.692
180.051
182.228
184.159
185.779
187.039
187.913
188.349
188.404
188.455
188.668
146.555
146.573
146.865
147.433
148.21
149.164
150.292
151.592
153.061
154.694
156.484
158.425
160.508
162.722
165.051
167.477
169.973
172.506
175.036
177.514
179.883
182.078
184.032
185.681
186.965
187.84
188.236
188.291
188.423
188.708
146.356
146.444
146.755
147.313
148.076
149.018
150.131
151.413
152.861
154.469
156.231
158.14
160.188
162.364
164.652
167.035
169.487
171.977
174.469
176.917
179.267
181.459
183.432
185.121
186.472
187.448
188.041
188.396
188.712
189.01
146.132
146.25
146.574
147.123
147.872
148.797
149.89
151.148
152.567
154.142
155.865
157.731
159.729
161.85
164.078
166.396
168.781
171.204
173.631
176.022
178.329
180.5
182.482
184.222
185.676
186.828
187.696
188.367
188.92
189.439
145.871
146.003
146.336
146.877
147.609
148.513
149.581
150.808
152.19
153.721
155.395
157.204
159.14
161.191
163.343
165.578
167.877
170.212
172.553
174.866
177.112
179.247
181.229
183.019
184.59
185.932
187.063
188.025
188.836
189.583
145.57
145.708
146.043
146.574
147.287
148.165
149.2
150.39
151.727
153.207
154.822
156.564
158.425
160.393
162.454
164.592
166.787
169.017
171.254
173.469
175.632
177.709
179.671
181.492
183.155
184.657
186.003
187.208
188.228
189.146
145.227
145.366
145.698
146.217
146.906
147.754
148.753
149.898
151.184
152.604
154.151
155.817
157.592
159.465
161.422
163.447
165.524
167.629
169.742
171.838
173.894
175.885
177.792
179.603
181.308
182.909
184.403
185.782
186.947
187.993
144.843
144.98
145.304
145.806
146.47
147.284
148.241
149.337
150.564
151.917
153.388
154.967
156.646
158.412
160.252
162.151
164.092
166.056
168.024
169.976
171.894
173.761
175.568
177.31
178.989
180.608
182.163
183.635
184.885
186.036
144.417
144.55
144.863
145.346
145.981
146.757
147.668
148.709
149.872
151.151
152.537
154.021
155.594
157.242
158.953
160.711
162.501
164.304
166.104
167.882
169.626
171.324
172.972
174.573
176.135
177.67
179.178
180.649
181.92
183.158
143.95
144.078
144.378
144.839
145.442
146.176
147.037
148.018
149.112
150.31
151.605
152.986
154.443
155.964
157.533
159.137
160.759
162.381
163.987
165.561
167.089
168.563
169.982
171.35
172.683
174.002
175.322
176.66
177.861
179.165
143.445
143.566
143.852
144.287
144.855
145.546
146.352
147.269
148.288
149.401
150.598
151.869
153.203
154.585
156.003
157.439
158.876
160.298
161.684
163.019
164.287
165.477
166.584
167.613
168.577
169.506
170.437
171.436
172.399
173.717
142.903
143.017
143.285
143.694
144.225
144.868
145.618
146.467
147.407
148.429
149.523
150.678
151.881
153.118
154.373
155.63
156.868
158.069
159.211
160.273
161.235
162.078
162.786
163.352
163.779
164.09
164.333
164.642
165.025
166.198
142.326
142.432
142.682
143.062
143.554
144.148
144.838
145.616
146.473
147.401
148.387
149.421
150.487
151.572
152.657
153.723
154.75
155.714
156.589
157.348
157.961
158.396
158.618
158.594
158.291
157.695
156.821
155.831
154.885
155.392
141.716
141.815
142.045
142.394
142.845
143.388
144.016
144.721
145.493
146.323
147.198
148.106
149.032
149.958
150.867
151.736
152.541
153.255
153.846
154.278
154.508
154.485
154.147
153.416
152.193
150.366
147.805
144.507
140.565
138.534
141.077
141.167
141.377
141.694
142.103
142.593
143.157
143.787
144.472
145.202
145.964
146.743
147.525
148.29
149.018
149.685
150.262
150.718
151.015
151.105
150.932
150.421
149.477
147.962
145.684
142.354
137.514
130.504
120.055
107.852
0.696924
0.67699
0.608123
0.513154
0.415267
0.326474
0.251319
0.190768
0.144001
0.10906
0.0842693
0.0671825
0.0555328
0.0476362
0.0422661
0.0385022
0.0356525
0.0332058
0.0307928
0.0281572
0.0251417
0.0216849
0.0178021
0.0137196
0.00969743
0.00612474
0.00331539
0.00136708
0.000169413
-0.000515503
0.64898
0.626559
0.561854
0.474375
0.384257
0.302095
0.232203
0.175766
0.132386
0.100924
0.0787778
0.0634603
0.053072
0.046088
0.0413808
0.0380909
0.035565
0.0333231
0.0310224
0.0284248
0.0253805
0.0218506
0.0178398
0.013664
0.00952703
0.00588166
0.00308713
0.00121411
0.000116542
-0.000189162
0.595524
0.568804
0.50671
0.426253
0.344487
0.270006
0.206644
0.155665
0.116782
0.0885947
0.0691742
0.0564445
0.0482624
0.0430372
0.0397162
0.0375088
0.0357963
0.0341206
0.0321685
0.0297304
0.0266753
0.0230207
0.0186836
0.0139337
0.00934949
0.00540787
0.00252575
0.0007926
-5.56437e-05
-1.699e-05
0.543433
0.512283
0.451913
0.37741
0.303388
0.236272
0.179354
0.13388
0.099695
0.0755712
0.0593606
0.0489443
0.0426905
0.0391481
0.0372502
0.0361756
0.0353171
0.0342513
0.0327056
0.0305039
0.0275536
0.0235019
0.0188416
0.0137943
0.00890772
0.00474723
0.00172473
5.34089e-05
-0.000656674
-0.000631025
0.506169
0.470786
0.411914
0.341622
0.273205
0.211291
0.158917
0.11733
0.0865474
0.0655242
0.0521159
0.0436542
0.0382904
0.0356164
0.0345479
0.0342571
0.0340829
0.0335719
0.0324305
0.0303895
0.0272202
0.0232141
0.0185213
0.0133873
0.00839087
0.00437706
0.00171322
0.000132525
-0.000638149
-0.000827332
0.496003
0.455432
0.397497
0.328571
0.262196
0.201922
0.150862
0.110318
0.0805687
0.0606517
0.0477052
0.0392851
0.0348803
0.0327351
0.0321023
0.032221
0.0325367
0.0325805
0.0320088
0.0305022
0.0277317
0.0236863
0.0186323
0.0130158
0.00757874
0.00326733
0.000648669
-0.000658869
-0.00126545
-0.00104742
0.523698
0.475448
0.415999
0.343998
0.2744
0.211133
0.157414
0.114671
0.0833623
0.0628791
0.0506672
0.0417507
0.0347479
0.0312514
0.0301663
0.0300556
0.0302721
0.0304135
0.0300923
0.0288957
0.0264675
0.0227387
0.0179178
0.0124671
0.00723596
0.00311581
0.000515873
-0.000998233
-0.00190419
-0.00126954
0.593931
0.536531
0.4679
0.386834
0.308309
0.237723
0.178249
0.131005
0.0958507
0.0711578
0.054074
0.0428652
0.0358159
0.0315395
0.0294228
0.0285659
0.0283355
0.0283034
0.0280297
0.0269956
0.0247451
0.0211278
0.016372
0.0110527
0.00605068
0.00219987
-0.000283727
-0.00196547
-0.00297535
-0.00154838
0.706431
0.63054
0.543371
0.446272
0.353888
0.272421
0.204943
0.151665
0.110883
0.0809712
0.0603719
0.0466188
0.037679
0.0321356
0.0288884
0.0270573
0.0261036
0.025674
0.0253094
0.0243485
0.0221513
0.018456
0.0135721
0.00831908
0.0037206
0.000460182
-0.00160819
-0.00321724
-0.00406756
-0.00182852
0.843434
0.736384
0.620392
0.50259
0.395789
0.303247
0.226457
0.166018
0.120751
0.0879405
0.0648031
0.0490786
0.0387849
0.0322514
0.0280476
0.0252178
0.0234057
0.0224979
0.0220777
0.0212442
0.019003
0.0149043
0.00943981
0.00390511
-0.000307208
-0.0026423
-0.00378866
-0.00481738
-0.00512681
-0.00209383
0.972147
0.82494
0.680982
0.538776
0.415417
0.314707
0.23451
0.171971
0.124864
0.0904166
0.0657671
0.048846
0.0379364
0.0310982
0.0263654
0.0225848
0.0197671
0.0183625
0.0181307
0.0177442
0.0155288
0.010671
0.00396962
-0.002428
-0.00637602
-0.00736889
-0.00690931
-0.00672479
-0.00612083
-0.00233775
1.0778
0.87653
0.696717
0.537725
0.406713
0.303375
0.223501
0.162818
0.117998
0.0852046
0.0611438
0.0443836
0.0340976
0.0281852
0.0236976
0.0190138
0.0148533
0.0128622
0.0132653
0.0139866
0.0120818
0.00603953
-0.00287105
-0.0110625
-0.0149861
-0.0140193
-0.0109695
-0.00882767
-0.00701916
-0.00255461
1.10019
0.830505
0.624642
0.464059
0.343111
0.253735
0.18582
0.134289
0.0974855
0.0708553
0.0499048
0.0345192
0.0262778
0.0231837
0.0202193
0.0145851
0.00829092
0.00539125
0.00717033
0.0102318
0.00928607
0.00153609
-0.0110374
-0.0225036
-0.0268428
-0.0229767
-0.0158669
-0.0108954
-0.00778338
-0.00274044
0.874314
0.53162
0.382063
0.28482
0.207437
0.158104
0.11945
0.0853481
0.0627412
0.047822
0.0323497
0.0183715
0.0134241
0.0162188
0.0170605
0.0101827
-6.8541e-05
-0.00485336
-0.000600837
0.00695565
0.00819415
-0.00195821
-0.0203862
-0.0374632
-0.0430068
-0.034798
-0.0213361
-0.0124549
-0.00833555
-0.00289284
0.19855
-0.211289
-0.13332
-0.0201567
-0.0107688
0.0236052
0.0369451
0.0181774
0.0102632
0.0159098
0.0102197
-0.00397731
-0.00521946
0.00806323
0.0164949
0.00714721
-0.0111087
-0.0200872
-0.011547
0.00447849
0.0102617
-0.00315654
-0.0306601
-0.0569509
-0.0650949
-0.0503609
-0.026854
-0.0125798
-0.00849592
-0.00301053
140.398
140.479
140.667
140.952
141.317
141.752
142.25
142.801
143.396
144.023
144.668
145.316
145.95
146.549
147.092
147.55
147.894
148.085
148.079
147.819
147.232
146.223
144.659
142.346
138.984
134.079
126.711
114.968
92.8293
33.1276
139.671
139.742
139.908
140.158
140.477
140.855
141.284
141.755
142.256
142.776
143.301
143.813
144.294
144.724
145.077
145.324
145.43
145.353
145.042
144.432
143.439
141.948
139.802
136.769
132.491
126.384
117.416
103.854
84.3313
55.8646
138.901
138.963
139.105
139.319
139.591
139.91
140.268
140.656
141.062
141.474
141.875
142.25
142.577
142.836
142.999
143.034
142.904
142.564
141.958
141.015
139.644
137.724
135.09
131.513
126.667
120.096
111.21
99.3675
85.1148
68.4522
138.091
138.142
138.261
138.438
138.661
138.92
139.206
139.51
139.819
140.121
140.399
140.635
140.81
140.899
140.874
140.702
140.344
139.753
138.871
137.624
135.923
133.648
130.649
126.729
121.64
115.089
106.778
96.3727
83.809
68.6449
137.241
137.282
137.376
137.516
137.689
137.888
138.101
138.321
138.533
138.725
138.88
138.981
139.004
138.927
138.72
138.351
137.778
136.954
135.822
134.311
132.335
129.789
126.543
122.44
117.299
110.921
103.105
93.6065
82.2575
69.264
136.354
136.385
136.454
136.556
136.68
136.817
136.959
137.094
137.21
137.294
137.328
137.295
137.172
136.936
136.556
136
135.229
134.196
132.846
131.115
128.925
126.185
122.79
118.621
113.547
107.434
100.157
91.618
81.8058
71.1329
135.433
135.453
135.498
135.562
135.637
135.714
135.783
135.835
135.857
135.834
135.751
135.589
135.327
134.939
134.398
133.672
132.722
131.506
129.973
128.066
125.718
122.855
119.394
115.25
110.334
104.566
97.8932
90.303
81.8386
72.8359
134.481
134.491
134.511
134.538
134.564
134.581
134.58
134.55
134.48
134.355
134.16
133.875
133.48
132.952
132.264
131.384
130.278
128.907
127.225
125.185
122.731
119.804
116.344
112.292
107.593
102.209
96.1242
89.3592
81.9637
74.21
133.502
133.501
133.497
133.487
133.465
133.424
133.354
133.246
133.087
132.865
132.562
132.163
131.646
130.989
130.167
129.153
127.913
126.415
124.619
122.484
119.969
117.028
113.619
109.704
105.254
100.253
94.7089
88.6545
82.1438
75.4044
132.499
132.488
132.461
132.415
132.347
132.249
132.113
131.93
131.687
131.372
130.969
130.463
129.834
129.062
128.123
126.992
125.642
124.043
122.163
119.97
117.431
114.514
111.191
107.44
103.249
98.6183
93.5655
88.13
82.365
76.4555
131.477
131.456
131.407
131.327
131.214
131.062
130.863
130.608
130.286
129.885
129.39
128.786
128.057
127.182
126.142
124.914
123.475
121.801
119.864
117.642
115.109
112.244
109.031
105.459
101.526
97.2431
92.6325
87.7339
82.5955
77.3656
130.441
130.411
130.34
130.227
130.072
129.869
129.611
129.289
128.893
128.412
127.833
127.142
126.323
125.36
124.235
122.928
121.42
119.692
117.723
115.495
112.992
110.2
107.111
103.723
100.04
96.0772
91.8604
87.4255
82.8146
78.1469
129.396
129.358
129.266
129.122
128.927
128.676
128.363
127.979
127.515
126.962
126.307
125.539
124.642
123.604
122.408
121.039
119.481
117.719
115.737
113.524
111.068
108.362
105.404
102.197
98.7499
95.08
91.2116
87.1773
83.013
78.8148
128.349
128.302
128.191
128.019
127.786
127.49
127.126
126.685
126.16
125.542
124.82
123.984
123.022
121.921
120.669
119.253
117.661
115.881
113.903
111.718
109.321
106.71
103.885
100.853
97.6252
94.2196
90.6586
86.9707
83.1861
79.3827
127.305
127.251
127.122
126.922
126.655
126.319
125.908
125.416
124.836
124.16
123.38
122.486
121.468
120.316
119.021
117.571
115.959
114.175
112.213
110.069
107.739
105.225
102.531
99.6647
96.6393
93.471
90.1806
86.7924
83.332
79.8627
126.271
126.209
126.064
125.84
125.541
125.168
124.715
124.177
123.549
122.823
121.993
121.05
119.987
118.795
117.468
115.997
114.375
112.599
110.663
108.565
106.307
103.891
101.323
98.612
95.7707
92.8145
89.7618
86.6335
83.451
80.266
125.253
125.185
125.025
124.778
124.452
124.045
123.555
122.977
122.306
121.537
120.664
119.681
118.582
117.361
116.011
114.528
112.908
111.147
109.244
107.198
105.013
102.693
100.244
97.6768
95.0022
92.2348
89.3908
86.4879
83.5443
80.6022
124.258
124.184
124.011
123.745
123.393
122.957
122.434
121.821
121.113
120.308
119.4
118.385
117.259
116.016
114.653
113.166
111.554
109.815
107.949
105.958
103.846
101.618
99.2806
96.8443
94.3199
91.72
89.059
86.3519
83.614
80.8804
123.294
123.215
123.03
122.746
122.372
121.91
121.359
120.715
119.978
119.142
118.206
117.166
116.019
114.762
113.392
111.909
110.311
108.598
106.772
104.836
102.795
100.653
98.4196
96.1027
93.7126
91.261
88.7601
86.2231
83.6628
81.1082
122.367
122.284
122.089
121.789
121.396
120.912
120.336
119.668
118.904
118.044
117.086
116.027
114.866
113.601
112.231
110.755
109.175
107.491
105.706
103.825
101.851
99.7904
97.6514
95.4421
93.1718
90.8508
88.49
86.1006
83.6935
81.2929
121.486
121.399
121.195
120.882
120.472
119.969
119.373
118.683
117.899
117.02
116.045
114.972
113.802
112.534
111.167
109.704
108.144
106.491
104.747
102.917
101.006
99.021
96.9678
94.8548
92.6906
90.4843
88.2455
85.9839
83.709
81.4408
120.659
120.568
120.356
120.031
119.607
119.088
118.475
117.769
116.968
116.074
115.086
114.004
112.83
111.562
110.203
108.753
107.215
105.593
103.889
102.108
100.256
98.3385
96.3623
94.3349
92.2641
90.158
88.0251
85.8739
83.7127
81.558
119.892
119.798
119.579
119.245
118.809
118.277
117.65
116.929
116.116
115.211
114.214
113.127
111.951
110.687
109.337
107.902
106.387
104.794
103.128
101.393
99.594
97.7375
95.8298
93.8777
91.8884
89.8692
87.8276
85.7712
83.7071
81.6494
119.195
119.099
118.874
118.531
118.084
117.541
116.903
116.172
115.349
114.435
113.433
112.343
111.168
109.91
108.57
107.152
105.659
104.094
102.462
100.768
99.0173
97.2149
95.3672
93.4806
91.5617
89.6171
87.6537
85.678
83.6965
81.7209
118.576
118.477
118.246
117.896
117.441
116.889
116.242
115.502
114.672
113.753
112.747
111.657
110.484
109.232
107.903
106.501
105.028
103.49
101.889
100.232
98.5224
96.7669
94.9709
93.1403
91.2812
89.3998
87.5022
85.5943
83.6819
81.7748
118.044
117.943
117.706
117.348
116.886
116.327
115.674
114.928
114.092
113.169
112.162
111.072
109.904
108.659
107.341
105.953
104.499
102.983
101.41
99.7837
98.1103
96.3946
94.6422
92.8586
91.0495
89.2206
87.3775
85.5257
83.6704
81.8201
117.61
117.504
117.261
116.895
116.426
115.861
115.202
114.451
113.612
112.686
111.679
110.591
109.426
108.188
106.88
105.504
104.067
102.57
101.02
99.4202
97.7763
96.0931
94.376
92.6303
90.8613
89.0743
87.2745
85.4671
83.6568
81.8505
117.284
117.173
116.92
116.548
116.074
115.504
114.841
114.087
113.245
112.318
111.311
110.225
109.064
107.832
106.531
105.167
103.742
102.261
100.729
99.1504
97.5297
95.872
94.1826
92.4663
90.7285
88.974
87.2079
85.435
83.6599
81.8889
117.082
116.947
116.677
116.299
115.823
115.251
114.585
113.829
112.986
112.06
111.053
109.969
108.812
107.584
106.29
104.933
103.518
102.048
100.528
98.9639
97.3589
95.7184
94.0474
92.3508
90.6335
88.9004
87.1561
85.4054
83.6526
81.9027
117.064
116.865
116.567
116.182
115.703
115.128
114.459
113.701
112.857
111.931
110.925
109.843
108.688
107.464
106.175
104.823
103.415
101.953
100.442
98.8867
97.2921
95.6627
94.0035
92.3193
90.6149
88.8949
87.1642
85.4271
83.6879
81.951
-50.5373
-30.2794
-11.162
35.4826
28.0125
15.9262
50.9235
38.8176
27.5825
52.3559
41.9236
33.8686
56.6989
48.4028
41.637
61.089
54.1736
48.2762
64.3665
58.4804
53.4272
66.9674
61.9389
57.6268
69.1603
64.8254
61.1143
71.0118
67.2311
64.0025
72.569
69.2373
66.3992
73.8812
70.9178
68.3986
74.9892
72.3308
70.0742
75.9251
73.5216
71.4835
76.7154
74.5269
72.6723
77.3821
75.3762
73.6769
77.9434
76.0937
74.5265
78.4146
76.699
75.2448
78.8086
77.2085
75.8512
79.1366
77.6361
76.362
79.4079
77.9934
76.7909
79.6314
78.2908
77.1496
79.8136
78.5365
77.4475
79.9626
78.7395
77.6947
80.081
78.9032
77.8956
80.1806
79.0401
78.0626
80.2526
79.142
78.1892
80.3255
79.2377
78.3022
80.3597
79.2882
78.3667
80.4289
79.3715
78.4564
-2.94994
-2.85803
-1.39831
-0.258027
-0.221982
-0.123944
-0.0627218
-0.0889466
-0.0720419
-0.0102154
0.00205415
-0.0270345
-0.0340659
-0.00514981
0.0203078
0.00755872
-0.0253938
-0.0425804
-0.0265142
0.00511157
0.0194708
0.000931758
-0.0411101
-0.0826363
-0.0960906
-0.0715277
-0.0316067
-0.00946234
-0.0077708
-0.0030965
2.14901
-0.748371
0.843324
0.319581
-1.03357
-0.786118
-0.140959
-0.107562
-0.0877649
0.013595
-0.00498718
-0.0944387
-0.113668
-0.0302073
0.0497713
0.0284711
-0.0378657
-0.0770125
-0.052668
0.0067388
0.0374824
0.0109196
-0.0536054
-0.118975
-0.141748
-0.101823
-0.0339411
0.000722375
-0.00468833
-0.00316966
13.3085
4.94477
2.13345
-0.317118
-0.630576
0.860173
1.02979
-0.327262
-0.692588
-0.32944
0.015396
-0.0837128
-0.120383
0.034372
0.12962
0.0522896
-0.0834759
-0.161942
-0.112887
0.0145604
0.0843159
0.0423334
-0.0576255
-0.160725
-0.202278
-0.143396
-0.030695
0.0249619
0.00426704
-0.00331332
23.0981
13.2076
7.32285
3.55295
1.83671
1.30998
0.0849624
-0.589863
-0.193674
0.976626
0.849678
-0.236883
-0.613889
-0.39051
0.111449
0.153667
-0.0803943
-0.219814
-0.13295
0.0856476
0.168689
0.0806287
-0.0769458
-0.238777
-0.313904
-0.228608
-0.021256
0.0737263
0.0253732
-0.00379972
32.2792
22.5019
15.1765
9.88759
6.25967
3.79272
1.92361
0.93289
0.676277
0.658527
0.14097
-0.453794
-0.508747
0.469652
0.990919
0.363979
-0.225149
-0.549476
-0.491424
-0.0381124
0.257573
0.158664
-0.0695211
-0.298823
-0.408418
-0.251998
0.0182813
0.162297
0.0662192
-0.0053803
40.2668
31.3308
23.4375
17.0042
12.081
8.44215
5.77603
3.89966
2.63095
1.7192
0.950845
0.361911
0.158563
0.45671
0.459496
0.196462
-0.26668
-0.561533
-0.292374
0.510919
0.689856
0.226696
-0.117188
-0.438455
-0.667299
-0.59358
-0.0152432
0.29025
0.130587
-0.010488
46.7862
38.9723
31.1894
24.2953
18.6711
14.2167
10.6989
7.94828
5.85529
4.28319
3.06482
2.1122
1.48584
1.17812
0.914987
0.571682
0.100948
-0.198593
-0.0799319
0.282373
0.416398
0.234994
-0.0893604
-0.464955
-0.716278
-0.427216
0.36063
0.557757
0.207928
-0.023531
52.0959
45.3579
38.0938
31.2601
25.377
20.4341
16.297
12.8778
10.1115
7.90002
6.11539
4.67779
3.58622
2.81099
2.20257
1.60778
1.02092
0.614224
0.505829
0.587911
0.603189
0.395911
0.0324
-0.336552
-0.529419
-0.31288
0.160488
0.39775
0.30462
-0.064218
56.4273
50.6054
44.016
37.539
31.7201
26.6097
22.1428
18.2843
15.0051
12.2489
9.94053
8.02273
6.46661
5.22888
4.20905
3.30819
2.51834
1.91449
1.54856
1.35393
1.15717
0.832477
0.422258
0.0519745
-0.141409
-0.0462765
0.235489
0.392036
0.261394
-0.303045
59.9621
54.8908
48.9843
42.9966
37.4418
32.3977
27.8354
23.7504
20.1443
16.9987
14.2767
11.9406
9.95783
8.28842
6.86937
5.64063
4.5829
3.71803
3.06073
2.56288
2.11578
1.6376
1.14431
0.715108
0.440166
0.374946
0.445217
0.433061
0.173051
-0.517922
62.8654
58.4034
53.1204
47.6501
42.4532
37.6131
33.1169
28.9764
25.2124
21.8307
18.8194
16.1583
13.8249
11.7908
10.0176
8.46641
7.11523
5.96213
5.00308
4.20263
3.49459
2.82498
2.19221
1.63938
1.21998
0.957632
0.792715
0.576257
0.171531
-0.593016
65.2703
61.3049
56.5649
51.5847
46.7697
42.199
37.8655
33.7865
29.9917
26.4999
23.3148
20.4307
17.8367
15.5167
13.448
11.6058
9.97162
8.53526
7.28558
6.19624
5.22544
4.33626
3.51965
2.79495
2.18889
1.70622
1.29955
0.867447
0.307568
-0.522363
67.2765
63.72
59.4438
54.9041
50.4579
46.1759
42.052
38.1034
34.3619
30.8522
27.587
24.5702
21.8003
19.2709
16.9704
14.8846
12.9999
11.3058
9.79009
8.43323
7.20776
6.08803
5.06274
4.13673
3.31912
2.6045
1.95582
1.3038
0.577082
-0.331523
68.9594
65.7431
61.8609
57.7082
53.6008
49.6011
45.7017
41.9174
38.2786
34.8117
31.5336
28.4541
25.5781
22.906
20.4341
18.1555
16.0622
14.1457
12.3961
10.7991
9.33633
7.98959
6.74762
5.60739
4.56788
3.619
2.73202
1.85969
0.954812
-0.0564132
70.3769
67.4461
63.8994
60.0831
56.2794
52.5431
48.8651
45.2567
41.7455
38.3573
35.1106
32.018
29.0884
26.3267
23.7345
21.3101
19.05
16.9489
14.9998
13.1929
11.5157
9.95508
8.50091
7.14661
5.88615
4.70794
3.58966
2.49895
1.4053
0.263033
71.5742
68.8846
65.6242
62.0997
58.565
55.0685
51.5994
48.1656
44.7914
41.5008
38.3122
35.2396
32.2935
29.4819
26.8096
24.2788
21.8891
19.6386
17.5229
15.5359
13.669
11.913
10.2591
8.69969
7.22684
5.82905
4.48874
3.18317
1.89205
0.591318
72.587
70.1021
67.0871
63.8154
60.5174
57.2362
53.9595
50.6923
47.4552
44.2702
41.1546
38.1224
35.1851
32.352
29.6301
27.024
24.5359
22.1662
19.9132
17.7733
15.7412
13.8102
11.973
10.2224
8.55008
6.94528
5.39372
3.87844
2.38448
0.90285
73.4441
71.1335
68.329
65.2765
62.1861
59.0966
55.9946
52.8824
49.7775
46.6991
43.6635
40.6838
37.7716
34.937
32.188
29.5307
26.9691
24.5055
22.1401
19.8716
17.6967
15.6108
13.6084
11.6826
9.82564
8.02776
6.27676
4.55875
2.86083
1.1832
74.1689
72.007
69.3836
66.5209
63.6121
60.6923
57.7473
54.777
51.7961
48.8215
45.8676
42.9467
40.07
37.2475
34.4877
31.7975
29.1821
26.6452
24.1885
21.8121
19.5147
17.2931
15.143
13.0585
11.0326
9.05615
7.11827
5.20645
3.30787
1.42736
74.7808
72.7457
70.278
67.5799
64.8294
62.0589
59.2538
56.4119
53.5454
50.669
47.7953
44.9356
42.1002
39.2987
36.5397
33.8305
31.1769
28.5835
26.053
23.5868
21.1847
18.8449
16.564
14.3371
12.1577
10.0173
7.9058
5.81095
3.71912
1.63665
75.2959
73.369
71.035
68.479
65.8662
63.2265
60.545
57.8182
55.0557
52.2702
49.4731
46.674
43.8825
41.1076
38.3574
35.6394
32.9598
30.3233
27.7338
25.1932
22.7023
20.2601
17.8643
15.5105
13.1928
10.9033
8.63189
6.36647
4.09224
1.81522
75.728
73.8931
71.6738
69.2401
66.7464
64.2206
61.6476
59.0226
56.3534
53.651
50.925
48.1841
45.4367
42.6911
39.9551
37.2357
34.5393
31.8708
29.2343
26.6326
24.0668
21.5368
19.0406
16.5748
14.1336
11.7096
9.29279
6.87066
4.4275
1.96801
76.0883
74.3314
72.2097
69.8808
67.4895
65.062
62.5833
60.0475
57.4609
54.8329
52.1718
49.4851
46.7803
44.0649
41.346
38.6304
35.924
33.2321
30.5589
27.9072
25.2788
22.674
20.0912
17.5274
14.9772
12.4334
9.88584
7.32189
4.72512
2.09844
76.3877
74.6963
72.6573
70.4174
68.1132
65.7697
63.372
60.9134
58.3989
55.8364
53.2332
50.5958
47.9307
45.2446
42.5441
39.8353
37.1242
34.4156
31.7138
29.0219
26.3417
23.6739
21.0172
18.3688
15.7236
13.0744
10.4113
7.72119
4.98729
2.21023
76.6325
74.9954
73.0255
70.8601
68.6291
66.3563
64.0271
61.6341
59.1813
56.6754
54.1227
51.5288
48.8994
46.2406
43.5582
40.858
38.1454
35.4253
32.7016
29.9775
27.2551
24.5349
21.816
19.0957
16.3692
13.6292
10.8657
8.06564
5.21194
2.30298
76.8343
75.2414
73.3282
71.2242
69.0533
66.8388
64.5663
62.2279
59.8266
57.3682
54.8583
52.3018
49.7035
47.0689
44.4034
41.7121
39.0003
36.2723
33.5322
30.7829
28.0265
25.2637
22.4937
19.7137
16.9191
14.1026
11.2541
8.36059
5.40469
2.38182
76.9901
75.4321
73.5637
71.5083
69.3852
67.2172
64.9899
62.6952
60.3352
57.9153
55.4402
52.9141
50.3416
47.7273
45.0763
42.3933
39.6831
36.95
34.1977
31.4292
28.6464
25.8499
23.0391
20.2112
17.3616
14.483
11.5653
8.5952
5.55565
2.43972
77.1221
75.5898
73.7554
71.7369
69.65
67.517
65.324
63.0625
60.7341
58.3435
55.895
53.3925
50.8399
48.2416
45.6021
42.9259
40.2176
37.4811
34.72
31.9372
29.1346
26.3127
23.4709
20.6064
17.7145
14.7879
11.8164
8.78657
5.68106
2.48923
77.2033
75.6871
73.8751
71.8816
69.8191
67.7096
65.5395
63.3003
60.993
58.6221
56.1916
53.705
51.1659
48.5784
45.9469
43.2755
40.5687
37.8301
35.0634
32.2712
29.4554
26.6166
23.7539
20.8647
17.9441
14.9848
11.9764
8.90499
5.75334
2.50915
77.2923
75.7773
73.9775
71.999
69.9502
67.8533
65.6953
63.4677
61.1715
58.8107
56.3892
53.9103
51.3777
48.7951
46.1668
43.4971
40.7899
38.0492
35.2783
32.48
29.6561
26.8071
23.9323
21.029
18.0922
15.1145
12.0851
8.98944
5.80754
2.51555
)
;

boundaryField
{
    inlet
    {
        type            zeroGradient;
    }
    outlet
    {
        type            fixedValue;
        value           uniform 0;
    }
    flap
    {
        type            zeroGradient;
    }
    upperWall
    {
        type            zeroGradient;
    }
    lowerWall
    {
        type            zeroGradient;
    }
    frontAndBack
    {
        type            empty;
    }
}


// ************************************************************************* //
