/*--------------------------------*- C++ -*----------------------------------*\
  =========                 |
  \\      /  F ield         | OpenFOAM: The Open Source CFD Toolbox
   \\    /   O peration     | Website:  https://openfoam.org
    \\  /    A nd           | Version:  dev
     \\/     M anipulation  |
\*---------------------------------------------------------------------------*/
FoamFile
{
    version     2.0;
    format      ascii;
    class       volVectorField;
    location    "7.6";
    object      U;
}
// * * * * * * * * * * * * * * * * * * * * * * * * * * * * * * * * * * * * * //

dimensions      [0 1 -1 0 0 0 0];

internalField   nonuniform List<vector> 
2790
(
(9.94399 0 0.0205232)
(9.87572 0 0.0295877)
(9.77521 0 0.0359895)
(9.64944 0 0.0425563)
(9.50409 0 0.0493856)
(9.34007 0 0.0564286)
(9.15654 0 0.0638164)
(8.95262 0 0.0717124)
(8.72746 0 0.0802563)
(8.48008 0 0.089575)
(8.20926 0 0.0997955)
(7.91363 0 0.111048)
(7.59166 0 0.123464)
(7.24175 0 0.137169)
(6.86229 0 0.152278)
(6.45175 0 0.168877)
(6.00882 0 0.187005)
(5.53262 0 0.206627)
(5.02289 0 0.227599)
(4.48036 0 0.24962)
(3.90706 0 0.272185)
(3.30673 0 0.294533)
(2.68518 0 0.315626)
(2.05052 0 0.334293)
(1.4117 0 0.350609)
(0.797954 0 0.372887)
(0.110594 0 0.325016)
(-0.46957 0 -0.114882)
(-0.453791 0 -0.297137)
(-0.231164 0 -0.423852)
(9.9985 0 0.040703)
(9.98145 0 0.0623828)
(9.93574 0 0.0791403)
(9.86416 0 0.096625)
(9.77097 0 0.115124)
(9.65715 0 0.134489)
(9.52206 0 0.154976)
(9.36485 0 0.176945)
(9.18471 0 0.20071)
(8.98067 0 0.226553)
(8.75152 0 0.254749)
(8.49587 0 0.285567)
(8.21218 0 0.319258)
(7.8988 0 0.356033)
(7.55401 0 0.396032)
(7.17615 0 0.439277)
(6.76373 0 0.485608)
(6.3156 0 0.534604)
(5.83118 0 0.585479)
(5.3108 0 0.636971)
(4.75607 0 0.687219)
(4.17032 0 0.733659)
(3.5592 0 0.772961)
(2.93146 0 0.801096)
(2.29986 0 0.813747)
(1.69288 0 0.807248)
(1.10708 0 0.747232)
(0.65885 0 0.547903)
(0.186374 0 0.224571)
(-0.00819871 0 -0.45375)
(9.99559 0 0.043207)
(9.97556 0 0.0752717)
(9.9318 0 0.103346)
(9.8649 0 0.132371)
(9.77778 0 0.16306)
(9.67155 0 0.1954)
(9.54588 0 0.229744)
(9.40013 0 0.266605)
(9.23365 0 0.306474)
(9.04563 0 0.349812)
(8.83508 0 0.397079)
(8.6008 0 0.448731)
(8.34143 0 0.505204)
(8.05548 0 0.566878)
(7.74135 0 0.634028)
(7.3974 0 0.70675)
(7.02206 0 0.784858)
(6.6139 0 0.867746)
(6.17187 0 0.954217)
(5.69556 0 1.04228)
(5.18555 0 1.1289)
(4.64387 0 1.2098)
(4.0747 0 1.27917)
(3.48529 0 1.32933)
(2.88676 0 1.35008)
(2.29939 0 1.32641)
(1.73178 0 1.22075)
(1.21621 0 0.972971)
(0.70111 0 0.570107)
(0.358019 0 -0.156616)
(9.99403 0 0.0494993)
(9.97181 0 0.0932063)
(9.92788 0 0.133572)
(9.86225 0 0.174209)
(9.77693 0 0.216434)
(9.67298 0 0.260663)
(9.55031 0 0.307432)
(9.40849 0 0.357419)
(9.24702 0 0.411296)
(9.06533 0 0.469712)
(8.86268 0 0.533311)
(8.63818 0 0.602735)
(8.39083 0 0.678607)
(8.1195 0 0.761492)
(7.82297 0 0.851841)
(7.49997 0 0.949898)
(7.1492 0 1.05557)
(6.76939 0 1.16827)
(6.35943 0 1.28663)
(5.91853 0 1.40829)
(5.44645 0 1.52949)
(4.94392 0 1.6447)
(4.41308 0 1.74615)
(3.85818 0 1.82322)
(3.28573 0 1.86135)
(2.70632 0 1.8403)
(2.12558 0 1.72597)
(1.55421 0 1.47782)
(0.957918 0 1.08364)
(0.509414 0 0.502264)
(9.99331 0 0.0572136)
(9.96994 0 0.110959)
(9.92593 0 0.162104)
(9.86146 0 0.213348)
(9.77799 0 0.266358)
(9.67635 0 0.321916)
(9.55654 0 0.380705)
(9.41822 0 0.443493)
(9.26097 0 0.511062)
(9.08433 0 0.584179)
(8.8877 0 0.663599)
(8.67037 0 0.750077)
(8.43157 0 0.844352)
(8.17044 0 0.947105)
(7.88605 0 1.0589)
(7.57744 0 1.1801)
(7.24362 0 1.31071)
(6.88355 0 1.45021)
(6.49622 0 1.59725)
(6.08066 0 1.74935)
(5.63608 0 1.90244)
(5.16203 0 2.05033)
(4.65868 0 2.18418)
(4.12712 0 2.29174)
(3.56931 0 2.35654)
(2.9888 0 2.35729)
(2.38676 0 2.26491)
(1.76633 0 2.04758)
(1.08996 0 1.69132)
(0.536636 0 1.15406)
(9.99302 0 0.0655386)
(9.96923 0 0.128702)
(9.92556 0 0.190114)
(9.86253 0 0.251844)
(9.78129 0 0.315579)
(9.68244 0 0.382321)
(9.56601 0 0.452878)
(9.43171 0 0.528106)
(9.2792 0 0.608887)
(9.10806 0 0.696094)
(8.91777 0 0.790592)
(8.70773 0 0.89324)
(8.47727 0 1.00488)
(8.22566 0 1.12628)
(7.95212 0 1.25812)
(7.65585 0 1.40084)
(7.33599 0 1.55458)
(6.99159 0 1.7189)
(6.62162 0 1.89259)
(6.22493 0 2.07326)
(5.8002 0 2.25688)
(5.34595 0 2.43722)
(4.86061 0 2.60521)
(4.3426 0 2.74822)
(3.79029 0 2.84952)
(3.20248 0 2.88816)
(2.57648 0 2.83816)
(1.9134 0 2.67153)
(1.1727 0 2.3739)
(0.549947 0 1.89429)
(9.99297 0 0.0740748)
(9.96927 0 0.146314)
(9.92637 0 0.217483)
(9.86509 0 0.289292)
(9.78643 0 0.363356)
(9.69085 0 0.440829)
(9.57835 0 0.522664)
(9.44871 0 0.609816)
(9.30165 0 0.703263)
(9.13678 0 0.803976)
(8.95364 0 0.912914)
(8.75169 0 1.03103)
(8.53032 0 1.15924)
(8.28886 0 1.29843)
(8.02657 0 1.44933)
(7.74266 0 1.61252)
(7.43625 0 1.78823)
(7.10635 0 1.97621)
(6.75174 0 2.17545)
(6.37093 0 2.38386)
(5.96201 0 2.59778)
(5.52254 0 2.81141)
(5.04942 0 3.01617)
(4.53889 0 3.19996)
(3.98654 0 3.34666)
(3.38779 0 3.43592)
(2.73714 0 3.44323)
(2.03615 0 3.34139)
(1.24169 0 3.11344)
(0.563488 0 2.693)
(9.99306 0 0.0825879)
(9.96981 0 0.163606)
(9.92807 0 0.24405)
(9.86885 0 0.32548)
(9.79313 0 0.409447)
(9.70126 0 0.497208)
(9.59323 0 0.589842)
(9.46888 0 0.688401)
(9.32796 0 0.793948)
(9.17014 0 0.907541)
(8.99502 0 1.03023)
(8.8021 0 1.16306)
(8.59081 0 1.30703)
(8.36049 0 1.46312)
(8.11043 0 1.63218)
(7.83978 0 1.81491)
(7.54757 0 2.01171)
(7.23262 0 2.22256)
(6.89344 0 2.44679)
(6.52809 0 2.68274)
(6.134 0 2.9274)
(5.70774 0 3.17581)
(5.24485 0 3.42039)
(4.73965 0 3.6502)
(4.18534 0 3.85021)
(3.57461 0 4.00083)
(2.89938 0 4.07781)
(2.16199 0 4.05224)
(1.31604 0 3.90153)
(0.583183 0 3.53996)
(9.99326 0 0.090928)
(9.97072 0 0.180408)
(9.93046 0 0.269667)
(9.87362 0 0.360241)
(9.80118 0 0.453647)
(9.71344 0 0.551211)
(9.61038 0 0.654115)
(9.49189 0 0.763501)
(9.35776 0 0.880513)
(9.20774 0 1.00629)
(9.04146 0 1.14197)
(8.85848 0 1.28869)
(8.65827 0 1.44755)
(8.44021 0 1.61962)
(8.20356 0 1.80591)
(7.94743 0 2.00725)
(7.67075 0 2.2243)
(7.37212 0 2.45734)
(7.04973 0 2.70612)
(6.70119 0 2.96963)
(6.32325 0 3.24572)
(5.91153 0 3.53059)
(5.46022 0 3.81811)
(4.96185 0 4.099)
(4.40723 0 4.35985)
(3.78622 0 4.58204)
(3.08738 0 4.74096)
(2.31255 0 4.80429)
(1.41053 0 4.74086)
(0.614256 0 4.44167)
(9.99352 0 0.0989918)
(9.97191 0 0.196578)
(9.9334 0 0.294194)
(9.87924 0 0.393416)
(9.8104 0 0.495755)
(9.72717 0 0.602589)
(9.62954 0 0.715185)
(9.51742 0 0.834767)
(9.39069 0 0.962552)
(9.24913 0 1.09976)
(9.09246 0 1.24761)
(8.92028 0 1.40731)
(8.73213 0 1.58009)
(8.52742 0 1.76714)
(8.30542 0 1.9696)
(8.06524 0 2.18854)
(7.8057 0 2.42485)
(7.52525 0 2.67924)
(7.22185 0 2.952)
(6.89269 0 3.2429)
(6.53393 0 3.55087)
(6.14034 0 3.87357)
(5.70489 0 4.20676)
(5.21829 0 4.54342)
(4.66877 0 4.87243)
(4.04262 0 5.17691)
(3.32344 0 5.43218)
(2.50954 0 5.60176)
(1.5417 0 5.64321)
(0.663978 0 5.4177)
(9.99384 0 0.106703)
(9.9733 0 0.211999)
(9.9368 0 0.317501)
(9.88558 0 0.424854)
(9.82064 0 0.535588)
(9.74226 0 0.651121)
(9.65045 0 0.772789)
(9.54519 0 0.901889)
(9.42639 0 1.03971)
(9.29391 0 1.18753)
(9.14753 0 1.34665)
(8.98695 0 1.51837)
(8.81175 0 1.70402)
(8.62143 0 1.90491)
(8.41531 0 2.12236)
(8.19251 0 2.35766)
(7.95186 0 2.61203)
(7.69175 0 2.88662)
(7.40999 0 3.18237)
(7.10356 0 3.49996)
(6.76824 0 3.83958)
(6.39819 0 4.20064)
(5.98537 0 4.58127)
(5.51885 0 4.97739)
(4.9841 0 5.38134)
(4.36295 0 5.77951)
(3.63156 0 6.149)
(2.77979 0 6.45041)
(1.7332 0 6.62813)
(0.744709 0 6.50261)
(9.9942 0 0.114005)
(9.97487 0 0.226573)
(9.94056 0 0.339471)
(9.89252 0 0.454421)
(9.83174 0 0.572981)
(9.75851 0 0.696608)
(9.67289 0 0.826694)
(9.57489 0 0.964596)
(9.46449 0 1.11166)
(9.34163 0 1.26923)
(9.20617 0 1.43867)
(9.05788 0 1.62136)
(8.89646 0 1.81872)
(8.72148 0 2.0322)
(8.53238 0 2.26329)
(8.32836 0 2.51351)
(8.10833 0 2.78443)
(7.87078 0 3.07766)
(7.61356 0 3.39483)
(7.33365 0 3.73761)
(7.0268 0 4.10758)
(6.68699 0 4.50616)
(6.30567 0 4.93424)
(5.8708 0 5.39156)
(5.36542 0 5.87542)
(4.76647 0 6.37823)
(4.04023 0 6.88309)
(3.16097 0 7.3532)
(2.02435 0 7.7227)
(0.880526 0 7.7564)
(9.99459 0 0.120852)
(9.97657 0 0.240222)
(9.94461 0 0.360005)
(9.89996 0 0.481997)
(9.84357 0 0.607793)
(9.77576 0 0.73888)
(9.69663 0 0.876696)
(9.60624 0 1.02265)
(9.50465 0 1.17812)
(9.39186 0 1.34452)
(9.26783 0 1.52327)
(9.13244 0 1.71581)
(8.98549 0 1.92364)
(8.8267 0 2.14834)
(8.65564 0 2.39154)
(8.47168 0 2.655)
(8.27392 0 2.94062)
(8.06105 0 3.25045)
(7.83122 0 3.58681)
(7.58171 0 3.95232)
(7.30866 0 4.35)
(7.00647 0 4.78334)
(6.66696 0 5.25629)
(6.27813 0 5.77313)
(5.82201 0 6.33783)
(5.27192 0 6.95247)
(4.58385 0 7.61355)
(3.70922 0 8.3006)
(2.48752 0 8.95755)
(1.1241 0 9.29217)
(9.99501 0 0.127209)
(9.97838 0 0.252882)
(9.94891 0 0.379017)
(9.9078 0 0.507482)
(9.85599 0 0.639903)
(9.79383 0 0.777798)
(9.72144 0 0.922635)
(9.63895 0 1.07586)
(9.54649 0 1.23889)
(9.44415 0 1.41318)
(9.33198 0 1.60017)
(9.20997 0 1.80138)
(9.07808 0 2.01837)
(8.93617 0 2.2528)
(8.784 0 2.50644)
(8.62118 0 2.78125)
(8.44709 0 3.07939)
(8.2608 0 3.40331)
(8.06091 0 3.75592)
(7.84538 0 4.14068)
(7.61119 0 4.56189)
(7.35389 0 5.02494)
(7.06686 0 5.53679)
(6.74001 0 6.10642)
(6.35738 0 6.74551)
(5.89335 0 7.46912)
(5.29985 0 8.29636)
(4.50774 0 9.24771)
(3.26767 0 10.341)
(1.60427 0 11.3574)
(9.99545 0 0.133049)
(9.98027 0 0.2645)
(9.95339 0 0.396437)
(9.91596 0 0.530783)
(9.86889 0 0.669193)
(9.81254 0 0.813206)
(9.74709 0 0.964317)
(9.67273 0 1.12399)
(9.58965 0 1.29368)
(9.49804 0 1.47484)
(9.39805 0 1.66897)
(9.28981 0 1.87759)
(9.17341 0 2.10232)
(9.0489 0 2.34489)
(8.91627 0 2.60715)
(8.77542 0 2.8912)
(8.62609 0 3.19938)
(8.46783 0 3.53444)
(8.29993 0 3.89971)
(8.12123 0 4.29927)
(7.93003 0 4.73834)
(7.72377 0 5.22376)
(7.4986 0 5.76476)
(7.24862 0 6.37414)
(6.96433 0 7.07034)
(6.63017 0 7.88117)
(6.21332 0 8.852)
(5.66433 0 10.0657)
(4.68823 0 11.7302)
(2.6859 0 14.5889)
(0.120448 0 -0.119569)
(0.282545 0 -0.108382)
(0.447405 0 -0.0846206)
(0.583917 0 -0.0615597)
(0.68639 0 -0.0419349)
(0.758562 0 -0.0258427)
(0.805599 0 -0.0128745)
(0.832003 0 -0.00263135)
(0.841679 0 0.00511611)
(0.838261 0 0.010121)
(0.825073 0 0.0130103)
(0.805287 0 0.0144415)
(0.781559 0 0.0147997)
(0.755959 0 0.0143678)
(0.730122 0 0.0133748)
(0.705336 0 0.0120241)
(0.68255 0 0.0104995)
(0.662382 0 0.00895613)
(0.645147 0 0.00750721)
(0.630915 0 0.00622261)
(0.61955 0 0.00514512)
(0.610715 0 0.00429539)
(0.603877 0 0.00365456)
(0.598381 0 0.00322807)
(0.593475 0 0.00305852)
(0.588441 0 0.0030821)
(0.582774 0 0.00317648)
(0.576264 0 0.00322792)
(0.569051 0 0.00312034)
(0.560481 0 0.00244405)
(0.104047 0 -0.28133)
(0.263118 0 -0.263052)
(0.41834 0 -0.212587)
(0.550241 0 -0.162214)
(0.654722 0 -0.118871)
(0.735259 0 -0.0829825)
(0.796225 0 -0.0537408)
(0.8413 0 -0.0302988)
(0.873408 0 -0.0119782)
(0.894981 0 0.00175741)
(0.907621 0 0.0114672)
(0.912966 0 0.0176989)
(0.913455 0 0.0211148)
(0.911072 0 0.0223406)
(0.90741 0 0.0219093)
(0.903731 0 0.0202801)
(0.900962 0 0.0178675)
(0.899697 0 0.0150361)
(0.900237 0 0.0120749)
(0.90265 0 0.00919778)
(0.906803 0 0.00659453)
(0.91235 0 0.00448691)
(0.918719 0 0.00306283)
(0.925376 0 0.0023906)
(0.931835 0 0.00234467)
(0.93758 0 0.00278267)
(0.942125 0 0.00344988)
(0.945413 0 0.00404538)
(0.947623 0 0.00433072)
(0.949447 0 0.00382952)
(0.0834165 0 -0.445987)
(0.221714 0 -0.416606)
(0.347122 0 -0.339599)
(0.453766 0 -0.263358)
(0.538427 0 -0.198043)
(0.604602 0 -0.144033)
(0.655681 0 -0.100133)
(0.694436 0 -0.0650913)
(0.723296 0 -0.0377918)
(0.744511 0 -0.0170183)
(0.760969 0 -0.0017493)
(0.773973 0 0.00878848)
(0.783357 0 0.0152191)
(0.790436 0 0.0182392)
(0.79613 0 0.0185774)
(0.801156 0 0.0169679)
(0.806027 0 0.014101)
(0.811028 0 0.0105847)
(0.816249 0 0.00689373)
(0.821665 0 0.0033801)
(0.827023 0 0.00035183)
(0.832024 0 -0.00190071)
(0.837183 0 -0.00330047)
(0.842662 0 -0.00376964)
(0.848362 0 -0.00343888)
(0.854114 0 -0.0024773)
(0.859922 0 -0.00113069)
(0.865684 0 0.000214488)
(0.87125 0 0.00123316)
(0.876526 0 0.00183046)
(0.063354 0 -0.577939)
(0.174824 0 -0.532413)
(0.263378 0 -0.431706)
(0.339757 0 -0.33526)
(0.399407 0 -0.253743)
(0.446587 0 -0.186558)
(0.483493 0 -0.131955)
(0.511789 0 -0.0882706)
(0.532984 0 -0.0542333)
(0.548674 0 -0.0289032)
(0.560455 0 -0.0111761)
(0.570868 0 0.000792459)
(0.580359 0 0.00846049)
(0.588004 0 0.0125788)
(0.594247 0 0.013793)
(0.599379 0 0.0128487)
(0.60355 0 0.0105546)
(0.606807 0 0.00763317)
(0.609169 0 0.00461481)
(0.610762 0 0.00192203)
(0.611684 0 -0.000261937)
(0.61229 0 -0.00207642)
(0.612532 0 -0.00346689)
(0.612462 0 -0.00422052)
(0.612093 0 -0.00416122)
(0.611407 0 -0.00355505)
(0.610391 0 -0.00282108)
(0.609077 0 -0.0020845)
(0.60686 0 -0.00119296)
(0.604476 0 0.00014585)
(0.042524 0 -0.678735)
(0.121634 0 -0.612331)
(0.167592 0 -0.491471)
(0.211088 0 -0.381456)
(0.242274 0 -0.289926)
(0.267559 0 -0.214839)
(0.287646 0 -0.153892)
(0.30324 0 -0.10499)
(0.314924 0 -0.0667922)
(0.323444 0 -0.0385181)
(0.329696 0 -0.0187182)
(0.334926 0 -0.0048607)
(0.341437 0 0.00396681)
(0.345899 0 0.00864654)
(0.348197 0 0.0104593)
(0.348429 0 0.0102183)
(0.346773 0 0.00864316)
(0.343313 0 0.00640784)
(0.338143 0 0.0038311)
(0.33153 0 0.00119593)
(0.324282 0 -0.00117776)
(0.316387 0 -0.00302414)
(0.307398 0 -0.00397549)
(0.297002 0 -0.00388564)
(0.284872 0 -0.00271028)
(0.270812 0 -0.000718548)
(0.254979 0 0.00120085)
(0.23789 0 0.00260784)
(0.221121 0 0.00387467)
(0.204652 0 0.00455276)
(0.0203255 0 -0.742854)
(0.0615915 0 -0.651785)
(0.0607653 0 -0.514496)
(0.0691387 0 -0.397291)
(0.0684973 0 -0.300995)
(0.0684726 0 -0.222748)
(0.0680254 0 -0.159681)
(0.0674976 0 -0.109127)
(0.0668369 0 -0.069441)
(0.0662631 0 -0.0405752)
(0.0650824 0 -0.0230337)
(0.0639237 0 -0.0118514)
(0.0604535 0 -0.00109793)
(0.0520566 0 0.00722514)
(0.0420657 0 0.0118797)
(0.0290759 0 0.0140123)
(0.0129835 0 0.0146801)
(-0.00661944 0 0.0144561)
(-0.0285882 0 0.013543)
(-0.0528613 0 0.012093)
(-0.0784662 0 0.010534)
(-0.104229 0 0.00935144)
(-0.128875 0 0.0087156)
(-0.15141 0 0.00879716)
(-0.17074 0 0.00971995)
(-0.185766 0 0.0114045)
(-0.197256 0 0.0131331)
(-0.208369 0 0.0139552)
(-0.220504 0 0.0131352)
(-0.230546 0 0.0106041)
(-0.0047984 0 -0.763289)
(-0.00690741 0 -0.644977)
(-0.0557276 0 -0.496403)
(-0.0865916 0 -0.378401)
(-0.122025 0 -0.283069)
(-0.152525 0 -0.207503)
(-0.179379 0 -0.14809)
(-0.20229 0 -0.101332)
(-0.221842 0 -0.0641228)
(-0.240232 0 -0.0342289)
(-0.264326 0 -0.0114241)
(-0.299522 0 0.0039529)
(-0.324771 0 0.014379)
(-0.343652 0 0.0216978)
(-0.362183 0 0.0261802)
(-0.380856 0 0.0289867)
(-0.399839 0 0.0306142)
(-0.419185 0 0.0311711)
(-0.438925 0 0.0307567)
(-0.45926 0 0.0294336)
(-0.480181 0 0.0273795)
(-0.501295 0 0.0248966)
(-0.521893 0 0.0222433)
(-0.541156 0 0.0196898)
(-0.558048 0 0.0176396)
(-0.571637 0 0.0165677)
(-0.582073 0 0.0165203)
(-0.590805 0 0.016619)
(-0.59881 0 0.0157251)
(-0.604311 0 0.0138596)
(-0.0359867 0 -0.732461)
(-0.0856217 0 -0.589701)
(-0.180784 0 -0.439356)
(-0.256418 0 -0.324849)
(-0.330178 0 -0.235148)
(-0.396452 0 -0.165168)
(-0.455982 0 -0.110282)
(-0.508842 0 -0.0663702)
(-0.555339 0 -0.0306235)
(-0.596797 0 -0.00274131)
(-0.629142 0 0.0158299)
(-0.651142 0 0.0256531)
(-0.673254 0 0.0311266)
(-0.693826 0 0.035489)
(-0.713317 0 0.0388948)
(-0.732102 0 0.0410769)
(-0.750359 0 0.0421192)
(-0.768109 0 0.042159)
(-0.785447 0 0.0413693)
(-0.80267 0 0.0399152)
(-0.820114 0 0.0379159)
(-0.83785 0 0.0354241)
(-0.855519 0 0.0324426)
(-0.872352 0 0.0291116)
(-0.887302 0 0.0258983)
(-0.899459 0 0.0233825)
(-0.908728 0 0.0217838)
(-0.916017 0 0.0206221)
(-0.922052 0 0.0191223)
(-0.925566 0 0.0174705)
(-0.0735674 0 -0.64829)
(-0.171724 0 -0.485547)
(-0.317238 0 -0.338838)
(-0.439311 0 -0.233167)
(-0.550734 0 -0.15538)
(-0.647208 0 -0.096961)
(-0.729403 0 -0.0525327)
(-0.798377 0 -0.0190689)
(-0.85339 0 0.005374)
(-0.892349 0 0.0223013)
(-0.922148 0 0.0338598)
(-0.948137 0 0.0416259)
(-0.971334 0 0.0466608)
(-0.992394 0 0.0499848)
(-1.01189 0 0.0523199)
(-1.03029 0 0.0537081)
(-1.04781 0 0.0540626)
(-1.06444 0 0.053419)
(-1.08025 0 0.0520101)
(-1.09555 0 0.0501282)
(-1.11088 0 0.047903)
(-1.12655 0 0.045196)
(-1.14236 0 0.0417276)
(-1.15754 0 0.0374357)
(-1.17096 0 0.0327917)
(-1.18173 0 0.028643)
(-1.18981 0 0.0255862)
(-1.19603 0 0.0234649)
(-1.20094 0 0.0217142)
(-1.2035 0 0.0204132)
(-0.121599 0 -0.506387)
(-0.273498 0 -0.332186)
(-0.471443 0 -0.199502)
(-0.637282 0 -0.109903)
(-0.781647 0 -0.0486276)
(-0.898489 0 -0.00911952)
(-0.987401 0 0.0156178)
(-1.05405 0 0.0318646)
(-1.10423 0 0.0429338)
(-1.1447 0 0.0510889)
(-1.17776 0 0.0569766)
(-1.20551 0 0.0607818)
(-1.22935 0 0.0629959)
(-1.25031 0 0.0643404)
(-1.26934 0 0.0652529)
(-1.28712 0 0.0656233)
(-1.30393 0 0.0651094)
(-1.31964 0 0.0636043)
(-1.33422 0 0.0614308)
(-1.34804 0 0.0590773)
(-1.3618 0 0.0567291)
(-1.37607 0 0.054034)
(-1.39075 0 0.0503356)
(-1.40495 0 0.045262)
(-1.41731 0 0.0392461)
(-1.4269 0 0.0334385)
(-1.4338 0 0.028913)
(-1.43896 0 0.025889)
(-1.44295 0 0.0239313)
(-1.4449 0 0.0228786)
(-0.191275 0 -0.307926)
(-0.420981 0 -0.125948)
(-0.682437 0 0.000134717)
(-0.86931 0 0.0517343)
(-1.01166 0 0.0712611)
(-1.12001 0 0.0774792)
(-1.20531 0 0.0795165)
(-1.27247 0 0.0801165)
(-1.32555 0 0.080389)
(-1.36785 0 0.0806705)
(-1.40212 0 0.0807907)
(-1.43043 0 0.0803512)
(-1.45413 0 0.0793569)
(-1.47439 0 0.0783653)
(-1.4925 0 0.0777477)
(-1.50946 0 0.0771321)
(-1.52557 0 0.0757458)
(-1.54049 0 0.0732388)
(-1.55395 0 0.0700832)
(-1.56634 0 0.067119)
(-1.57869 0 0.0646885)
(-1.59191 0 0.062192)
(-1.60599 0 0.0584599)
(-1.61978 0 0.0526719)
(-1.63154 0 0.045195)
(-1.64011 0 0.037604)
(-1.64574 0 0.0316127)
(-1.64972 0 0.0278303)
(-1.65279 0 0.0257744)
(-1.65426 0 0.024916)
(-0.296943 0 0.0478125)
(-0.579944 0 0.19607)
(-0.854348 0 0.213458)
(-1.05298 0 0.203955)
(-1.20401 0 0.184281)
(-1.3185 0 0.163343)
(-1.40586 0 0.145203)
(-1.47322 0 0.130491)
(-1.52554 0 0.118943)
(-1.56668 0 0.110551)
(-1.59993 0 0.104624)
(-1.62736 0 0.0997578)
(-1.64997 0 0.0952302)
(-1.66875 0 0.0916056)
(-1.68533 0 0.0894554)
(-1.7012 0 0.0880834)
(-1.71669 0 0.0859906)
(-1.73097 0 0.0823867)
(-1.74331 0 0.077987)
(-1.75414 0 0.074259)
(-1.76497 0 0.0718765)
(-1.77729 0 0.0699153)
(-1.79121 0 0.0664584)
(-1.80518 0 0.0600213)
(-1.81678 0 0.0508556)
(-1.82441 0 0.0411532)
(-1.82855 0 0.0335712)
(-1.83108 0 0.0291853)
(-1.83316 0 0.0271998)
(-1.8342 0 0.0265151)
(-0.373347 0 0.493737)
(-0.712632 0 0.525493)
(-1.03707 0 0.449865)
(-1.25272 0 0.371365)
(-1.40603 0 0.30491)
(-1.51634 0 0.249823)
(-1.59757 0 0.208465)
(-1.6594 0 0.1782)
(-1.70685 0 0.155099)
(-1.7436 0 0.13835)
(-1.77352 0 0.127003)
(-1.7988 0 0.118165)
(-1.81949 0 0.109924)
(-1.83589 0 0.1033)
(-1.85009 0 0.0997237)
(-1.86451 0 0.0981565)
(-1.87952 0 0.0958096)
(-1.89344 0 0.0910543)
(-1.90464 0 0.0850069)
(-1.9135 0 0.0802672)
(-1.92243 0 0.0781619)
(-1.93382 0 0.0772962)
(-1.94804 0 0.0746139)
(-1.96287 0 0.0676385)
(-1.9748 0 0.0564161)
(-1.98147 0 0.0440302)
(-1.98369 0 0.0345805)
(-1.98435 0 0.029802)
(-1.98532 0 0.0281898)
(-1.98599 0 0.0276975)
(-0.49785 0 1.01566)
(-0.930041 0 0.932655)
(-1.29178 0 0.713062)
(-1.49255 0 0.53568)
(-1.62565 0 0.416829)
(-1.71758 0 0.324261)
(-1.78178 0 0.261829)
(-1.83135 0 0.220777)
(-1.87002 0 0.187915)
(-1.89916 0 0.162586)
(-1.92347 0 0.1465)
(-1.94574 0 0.13475)
(-1.96409 0 0.122906)
(-1.97706 0 0.112951)
(-1.98757 0 0.108353)
(-1.99992 0 0.107791)
(-2.01482 0 0.106057)
(-2.02896 0 0.0999724)
(-2.03899 0 0.0913806)
(-2.04517 0 0.0849905)
(-2.05141 0 0.0833949)
(-2.06166 0 0.084448)
(-2.07669 0 0.0832818)
(-2.09328 0 0.0759383)
(-2.10618 0 0.0620996)
(-2.1118 0 0.0461004)
(-2.11132 0 0.0342748)
(-2.10943 0 0.0294375)
(-2.10916 0 0.0287703)
(-2.10958 0 0.0285618)
(-0.735313 0 2.04627)
(-1.27287 0 1.61186)
(-1.65971 0 1.00946)
(-1.79083 0 0.621028)
(-1.86561 0 0.487286)
(-1.9214 0 0.378623)
(-1.95317 0 0.305993)
(-1.98469 0 0.259221)
(-2.01446 0 0.212592)
(-2.03371 0 0.174609)
(-2.04912 0 0.157549)
(-2.06745 0 0.148688)
(-2.08359 0 0.135244)
(-2.09194 0 0.120801)
(-2.09672 0 0.114345)
(-2.10617 0 0.115968)
(-2.12185 0 0.115863)
(-2.13745 0 0.108029)
(-2.14636 0 0.0954986)
(-2.14856 0 0.0866315)
(-2.1506 0 0.0862706)
(-2.15919 0 0.0909334)
(-2.17565 0 0.0926849)
(-2.19518 0 0.0854001)
(-2.20992 0 0.0682012)
(-2.21424 0 0.0471435)
(-2.20982 0 0.0320448)
(-2.20423 0 0.0276909)
(-2.2026 0 0.0290449)
(-2.20302 0 0.0293917)
(9.9959 0 0.138444)
(9.98225 0 0.275234)
(9.95811 0 0.412519)
(9.92454 0 0.552266)
(9.88243 0 0.696152)
(9.83217 0 0.845731)
(9.774 0 1.00251)
(9.70817 0 1.16796)
(9.63494 0 1.34355)
(9.55461 0 1.53075)
(9.46743 0 1.73103)
(9.37367 0 1.94597)
(9.2736 0 2.17717)
(9.16747 0 2.42639)
(9.05553 0 2.69554)
(8.938 0 2.98676)
(8.81508 0 3.30249)
(8.68689 0 3.64563)
(8.55351 0 4.0197)
(8.41493 0 4.42907)
(8.27108 0 4.87939)
(8.12183 0 5.37811)
(7.96714 0 5.93541)
(7.80724 0 6.56565)
(7.64332 0 7.28988)
(7.48034 0 8.1407)
(7.33146 0 9.17205)
(7.28656 0 10.4774)
(7.74283 0 12.2015)
(7.9209 0 14.9192)
(9.99638 0 0.143403)
(9.98434 0 0.285088)
(9.96306 0 0.427246)
(9.93352 0 0.571874)
(9.89657 0 0.720665)
(9.85263 0 0.875177)
(9.80198 0 1.03692)
(9.74494 0 1.20736)
(9.68186 0 1.38797)
(9.61312 0 1.58019)
(9.5391 0 1.78552)
(9.46022 0 2.00547)
(9.37692 0 2.24166)
(9.28968 0 2.49581)
(9.19902 0 2.76982)
(9.10551 0 3.0658)
(9.0098 0 3.38617)
(8.91265 0 3.73378)
(8.81498 0 4.1121)
(8.71794 0 4.52537)
(8.62316 0 4.97903)
(8.53298 0 5.4801)
(8.45112 0 6.03791)
(8.38382 0 6.66505)
(8.34224 0 7.37875)
(8.34841 0 8.20245)
(8.4411 0 9.1663)
(8.67614 0 10.3037)
(9.32213 0 11.5594)
(9.81064 0 12.6503)
(9.99688 0 0.14784)
(9.98651 0 0.293899)
(9.96819 0 0.440395)
(9.94283 0 0.589343)
(9.91122 0 0.742436)
(9.87378 0 0.901229)
(9.83087 0 1.06722)
(9.78285 0 1.24186)
(9.73016 0 1.42659)
(9.67326 0 1.62283)
(9.61266 0 1.83203)
(9.54892 0 2.05567)
(9.48266 0 2.29531)
(9.41457 0 2.5526)
(9.34546 0 2.82936)
(9.27623 0 3.12757)
(9.208 0 3.44951)
(9.1421 0 3.79783)
(9.0802 0 4.17563)
(9.02454 0 4.58668)
(8.97811 0 5.03559)
(8.94521 0 5.52804)
(8.9321 0 6.07101)
(8.94831 0 6.67292)
(9.00832 0 7.34321)
(9.13425 0 8.09057)
(9.3571 0 8.91693)
(9.6864 0 9.81128)
(10.2521 0 10.7224)
(10.9398 0 11.4408)
(9.9974 0 0.151701)
(9.98874 0 0.30156)
(9.97347 0 0.451801)
(9.95239 0 0.60444)
(9.92624 0 0.761165)
(9.89545 0 0.923511)
(9.86043 0 1.09295)
(9.82159 0 1.27091)
(9.77944 0 1.45878)
(9.73454 0 1.65795)
(9.68751 0 1.86979)
(9.63902 0 2.09571)
(9.58988 0 2.33718)
(9.54097 0 2.59574)
(9.49335 0 2.87303)
(9.44824 0 3.17087)
(9.40715 0 3.49125)
(9.37188 0 3.83645)
(9.34474 0 4.20905)
(9.3287 0 4.61201)
(9.32768 0 5.04875)
(9.347 0 5.52312)
(9.39389 0 6.03924)
(9.47826 0 6.6011)
(9.61331 0 7.21149)
(9.8159 0 7.8701)
(10.1088 0 8.56987)
(10.5007 0 9.29621)
(11.0586 0 10.039)
(11.8524 0 10.6851)
(9.99792 0 0.15494)
(9.99101 0 0.307978)
(9.97884 0 0.461327)
(9.96212 0 0.616989)
(9.94151 0 0.776632)
(9.91746 0 0.941763)
(9.89041 0 1.11382)
(9.86083 0 1.29417)
(9.8293 0 1.48417)
(9.79643 0 1.68512)
(9.76295 0 1.89832)
(9.72967 0 2.12506)
(9.69751 0 2.3667)
(9.66754 0 2.62461)
(9.64102 0 2.90023)
(9.61943 0 3.1951)
(9.60455 0 3.51088)
(9.59856 0 3.84935)
(9.60416 0 4.21242)
(9.62472 0 4.60215)
(9.66458 0 5.02064)
(9.72925 0 5.46992)
(9.82582 0 5.95159)
(9.96325 0 6.46637)
(10.1526 0 7.01319)
(10.407 0 7.58819)
(10.7437 0 8.18327)
(11.1744 0 8.78373)
(11.7222 0 9.37801)
(12.4761 0 9.89119)
(9.99845 0 0.157513)
(9.9933 0 0.313068)
(9.98427 0 0.468847)
(9.97194 0 0.626824)
(9.9569 0 0.788635)
(9.93962 0 0.955745)
(9.92055 0 1.12954)
(9.90023 0 1.31134)
(9.87926 0 1.50241)
(9.85835 0 1.70398)
(9.83828 0 1.91723)
(9.81996 0 2.14335)
(9.80442 0 2.3835)
(9.79288 0 2.63889)
(9.78674 0 2.9107)
(9.78764 0 3.20016)
(9.79757 0 3.50852)
(9.81887 0 3.83703)
(9.85443 0 4.1869)
(9.90773 0 4.55927)
(9.98306 0 4.95504)
(10.0856 0 5.37468)
(10.2218 0 5.81794)
(10.3992 0 6.28336)
(10.6265 0 6.7677)
(10.9134 0 7.26519)
(11.2713 0 7.7666)
(11.7082 0 8.25639)
(12.2248 0 8.71783)
(12.9015 0 9.10939)
(9.99898 0 0.159382)
(9.9956 0 0.316753)
(9.98971 0 0.474248)
(9.98177 0 0.633798)
(9.97229 0 0.796993)
(9.96174 0 0.965246)
(9.9506 0 1.13988)
(9.93943 0 1.32215)
(9.92888 0 1.51323)
(9.9197 0 1.71424)
(9.91274 0 1.92625)
(9.90896 0 2.1503)
(9.90948 0 2.38738)
(9.9156 0 2.63846)
(9.9288 0 2.90446)
(9.95082 0 3.18629)
(9.98371 0 3.48476)
(10.0299 0 3.80058)
(10.0921 0 4.13433)
(10.1738 0 4.4863)
(10.279 0 4.8564)
(10.4121 0 5.24392)
(10.5785 0 5.6473)
(10.7842 0 6.06372)
(11.0356 0 6.4887)
(11.3392 0 6.91555)
(11.7009 0 7.33491)
(12.1251 0 7.73336)
(12.6056 0 8.0963)
(13.2118 0 8.40318)
(9.99951 0 0.160513)
(9.99789 0 0.318966)
(9.9951 0 0.477432)
(9.99151 0 0.637785)
(9.98753 0 0.801555)
(9.98362 0 0.970095)
(9.98028 0 1.14466)
(9.97807 0 1.32641)
(9.97769 0 1.51642)
(9.9799 0 1.71572)
(9.98559 0 1.92523)
(9.99576 0 2.14582)
(10.0116 0 2.37831)
(10.0344 0 2.62342)
(10.0656 0 2.88183)
(10.1071 0 3.15407)
(10.1608 0 3.44057)
(10.229 0 3.74156)
(10.3145 0 4.05703)
(10.4201 0 4.3866)
(10.5494 0 4.72941)
(10.7062 0 5.08394)
(10.8946 0 5.4478)
(11.119 0 5.81747)
(11.3837 0 6.18805)
(11.6923 0 6.55297)
(12.0479 0 6.90394)
(12.4519 0 7.23064)
(12.8967 0 7.5219)
(13.4404 0 7.76637)
(10 0 0.160877)
(10.0001 0 0.319652)
(10.0004 0 0.478321)
(10.0011 0 0.638683)
(10.0025 0 0.802204)
(10.0051 0 0.970162)
(10.0093 0 1.14373)
(10.0158 0 1.32398)
(10.0252 0 1.51188)
(10.0384 0 1.70834)
(10.0561 0 1.91412)
(10.0795 0 2.12996)
(10.1097 0 2.35646)
(10.1479 0 2.59412)
(10.1957 0 2.84335)
(10.2548 0 3.10439)
(10.3269 0 3.37728)
(10.4144 0 3.66186)
(10.5194 0 3.95763)
(10.6446 0 4.26371)
(10.7929 0 4.57871)
(10.9672 0 4.90063)
(11.1706 0 5.22666)
(11.4059 0 5.55309)
(11.6758 0 5.87517)
(11.9822 0 6.18704)
(12.3259 0 6.48182)
(12.7067 0 6.75166)
(13.1168 0 6.9882)
(13.6052 0 7.18457)
(10.0005 0 0.160454)
(10.0023 0 0.318771)
(10.0056 0 0.476853)
(10.0104 0 0.636419)
(10.0171 0 0.798856)
(10.0259 0 0.965363)
(10.0375 0 1.13702)
(10.0523 0 1.3148)
(10.0711 0 1.49958)
(10.0946 0 1.69211)
(10.1237 0 1.89304)
(10.1594 0 2.10291)
(10.2028 0 2.32217)
(10.2552 0 2.55109)
(10.3179 0 2.78984)
(10.3925 0 3.03837)
(10.4807 0 3.29645)
(10.5844 0 3.56355)
(10.7056 0 3.83885)
(10.8463 0 4.12112)
(11.0088 0 4.40867)
(11.1954 0 4.69923)
(11.4079 0 4.98993)
(11.6483 0 5.27719)
(11.9179 0 5.5567)
(12.2172 0 5.82349)
(12.5459 0 6.07201)
(12.9025 0 6.29635)
(13.2801 0 6.49046)
(13.7205 0 6.65016)
(10.001 0 0.159228)
(10.0044 0 0.316292)
(10.0106 0 0.47299)
(10.0194 0 0.630948)
(10.0311 0 0.791466)
(10.0459 0 0.955658)
(10.0645 0 1.12451)
(10.0872 0 1.2989)
(10.1148 0 1.47957)
(10.148 0 1.66716)
(10.1877 0 1.86218)
(10.2347 0 2.06502)
(10.2902 0 2.27594)
(10.3553 0 2.49503)
(10.4312 0 2.72225)
(10.5193 0 2.95732)
(10.6212 0 3.19977)
(10.7383 0 3.44883)
(10.8723 0 3.70344)
(11.0248 0 3.96218)
(11.1975 0 4.22322)
(11.3918 0 4.48426)
(11.6091 0 4.74253)
(11.8502 0 4.99477)
(12.1155 0 5.23726)
(12.4047 0 5.4659)
(12.7168 0 5.67634)
(13.0499 0 5.86424)
(13.3977 0 6.02532)
(13.7969 0 6.15709)
(10.0015 0 0.157191)
(10.0065 0 0.312201)
(10.0154 0 0.466714)
(10.028 0 0.622252)
(10.0445 0 0.780026)
(10.065 0 0.941057)
(10.0901 0 1.10624)
(10.1203 0 1.27633)
(10.1561 0 1.45198)
(10.1983 0 1.6337)
(10.2476 0 1.82187)
(10.3049 0 2.01673)
(10.3712 0 2.21839)
(10.4475 0 2.42678)
(10.5348 0 2.64168)
(10.6344 0 2.86264)
(10.7475 0 3.089)
(10.8754 0 3.31985)
(11.0193 0 3.554)
(11.1804 0 3.78994)
(11.3597 0 4.02583)
(11.5583 0 4.25948)
(11.7768 0 4.48834)
(12.0153 0 4.70957)
(12.2738 0 4.92006)
(12.5513 0 5.1165)
(12.8465 0 5.29559)
(13.1573 0 5.45415)
(13.4784 0 5.58926)
(13.8421 0 5.69941)
(10.0019 0 0.154343)
(10.0084 0 0.306497)
(10.0199 0 0.458027)
(10.0362 0 0.610344)
(10.0571 0 0.764565)
(10.083 0 0.921616)
(10.1142 0 1.08229)
(10.1513 0 1.24725)
(10.1947 0 1.41704)
(10.245 0 1.59204)
(10.3031 0 1.77252)
(10.3696 0 1.9586)
(10.4454 0 2.15025)
(10.5313 0 2.34727)
(10.6284 0 2.5493)
(10.7375 0 2.75577)
(10.8597 0 2.96591)
(10.9959 0 3.17872)
(11.147 0 3.39296)
(11.3138 0 3.60713)
(11.497 0 3.81948)
(11.697 0 4.02798)
(11.914 0 4.23042)
(12.1478 0 4.42436)
(12.3977 0 4.60725)
(12.6628 0 4.77652)
(12.9414 0 4.92967)
(13.2316 0 5.06444)
(13.5287 0 5.17882)
(13.862 0 5.27197)
(10.0024 0 0.150689)
(10.0102 0 0.299195)
(10.0241 0 0.446954)
(10.0438 0 0.595265)
(10.0689 0 0.745147)
(10.0997 0 0.897431)
(10.1366 0 1.05281)
(10.18 0 1.21186)
(10.2302 0 1.37501)
(10.288 0 1.54254)
(10.3538 0 1.71462)
(10.4283 0 1.89126)
(10.5123 0 2.07231)
(10.6065 0 2.25749)
(10.7116 0 2.44632)
(10.8284 0 2.63817)
(10.9577 0 2.8322)
(11.1 0 3.02739)
(11.256 0 3.22251)
(11.4262 0 3.41613)
(11.6109 0 3.60665)
(11.8102 0 3.79228)
(12.0238 0 3.97109)
(12.2513 0 4.14107)
(12.4919 0 4.30019)
(12.7444 0 4.44646)
(13.0071 0 4.57803)
(13.2783 0 4.6933)
(13.5541 0 4.79093)
(13.8609 0 4.87049)
(10.0027 0 0.146242)
(10.0119 0 0.290319)
(10.0281 0 0.433537)
(10.0508 0 0.577081)
(10.0798 0 0.721869)
(10.1152 0 0.868641)
(10.1572 0 1.018)
(10.2062 0 1.17042)
(10.2627 0 1.32624)
(10.3269 0 1.48565)
(10.3996 0 1.64873)
(10.4811 0 1.8154)
(10.572 0 1.98543)
(10.673 0 2.15845)
(10.7847 0 2.33395)
(10.9075 0 2.51124)
(11.0419 0 2.68947)
(11.1885 0 2.86764)
(11.3475 0 3.04458)
(11.5192 0 3.21899)
(11.7035 0 3.38942)
(11.9003 0 3.55432)
(12.1092 0 3.71208)
(12.3295 0 3.86107)
(12.5603 0 3.99968)
(12.8003 0 4.1264)
(13.0481 0 4.23988)
(13.302 0 4.339)
(13.5588 0 4.42289)
(13.8426 0 4.4914)
(10.0031 0 0.141021)
(10.0134 0 0.279908)
(10.0317 0 0.417839)
(10.0573 0 0.555882)
(10.0898 0 0.694859)
(10.1293 0 0.835418)
(10.1759 0 0.978075)
(10.23 0 1.12322)
(10.2919 0 1.27109)
(10.3619 0 1.42184)
(10.4403 0 1.57543)
(10.5277 0 1.73172)
(10.6245 0 1.89044)
(10.731 0 2.05117)
(10.8477 0 2.21336)
(10.975 0 2.37631)
(11.1131 0 2.5392)
(11.2623 0 2.70108)
(11.4227 0 2.86088)
(11.5942 0 3.01742)
(11.7768 0 3.16944)
(11.97 0 3.31563)
(12.1732 0 3.45466)
(12.3858 0 3.58523)
(12.6067 0 3.70609)
(12.8348 0 3.8161)
(13.0686 0 3.91429)
(13.3068 0 3.99991)
(13.5466 0 4.07239)
(13.8103 0 4.13175)
(10.0034 0 0.135049)
(10.0148 0 0.268011)
(10.035 0 0.399936)
(10.0632 0 0.531779)
(10.0988 0 0.664267)