/*--------------------------------*- C++ -*----------------------------------*\
  =========                 |
  \\      /  F ield         | OpenFOAM: The Open Source CFD Toolbox
   \\    /   O peration     | Website:  https://openfoam.org
    \\  /    A nd           | Version:  dev
     \\/     M anipulation  |
\*---------------------------------------------------------------------------*/
FoamFile
{
    version     2.0;
    format      ascii;
    class       volScalarField;
    location    "4.8";
    object      p;
}
// * * * * * * * * * * * * * * * * * * * * * * * * * * * * * * * * * * * * * //

dimensions      [0 2 -2 0 0 0 0];

internalField   nonuniform List<scalar> 
2790
(
147.062
146.969
147.236
147.807
148.587
149.545
150.677
151.984
153.46
155.101
156.901
158.852
160.945
163.17
165.511
167.946
170.451
172.99
175.521
177.996
180.354
182.532
184.462
186.083
187.342
188.216
188.653
188.708
188.759
188.972
146.859
146.877
147.169
147.737
148.513
149.467
150.595
151.896
153.365
154.998
156.788
158.728
160.811
163.025
165.355
167.78
170.276
172.809
175.34
177.818
180.186
182.381
184.336
185.984
187.269
188.143
188.54
188.595
188.727
189.012
146.66
146.748
147.059
147.617
148.38
149.322
150.435
151.717
153.165
154.773
156.535
158.444
160.492
162.668
164.956
167.338
169.79
172.281
174.773
177.22
179.57
181.763
183.735
185.425
186.776
187.751
188.345
188.7
189.015
189.314
146.435
146.554
146.878
147.427
148.175
149.1
150.194
151.452
152.871
154.445
156.169
158.034
160.033
162.154
164.382
166.7
169.084
171.507
173.934
176.325
178.632
180.804
182.786
184.525
185.98
187.132
188
188.671
189.224
189.743
146.175
146.307
146.639
147.181
147.913
148.817
149.885
151.112
152.493
154.025
155.699
157.508
159.444
161.494
163.646
165.882
168.18
170.515
172.857
175.17
177.415
179.55
181.532
183.323
184.893
186.236
187.366
188.329
189.14
189.886
145.874
146.012
146.346
146.878
147.59
148.468
149.504
150.693
152.031
153.51
155.125
156.868
158.729
160.697
162.758
164.896
167.091
169.32
171.557
173.772
175.935
178.012
179.974
181.795
183.458
184.96
186.306
187.512
188.532
189.45
145.531
145.67
146.002
146.52
147.21
148.058
149.057
150.202
151.488
152.908
154.455
156.121
157.895
159.768
161.725
163.751
165.827
167.933
170.046
172.142
174.197
176.188
178.096
179.906
181.612
183.212
184.706
186.085
187.25
188.297
145.146
145.284
145.608
146.11
146.774
147.587
148.545
149.64
150.868
152.221
153.691
155.271
156.949
158.715
160.556
162.455
164.396
166.36
168.328
170.279
172.197
174.064
175.871
177.614
179.292
180.911
182.466
183.938
185.188
186.339
144.72
144.854
145.167
145.65
146.285
147.061
147.972
149.012
150.176
151.455
152.841
154.325
155.898
157.546
159.257
161.015
162.805
164.608
166.407
168.186
169.929
171.627
173.275
174.876
176.437
177.972
179.481
180.951
182.223
183.461
144.254
144.382
144.682
145.143
145.745
146.48
147.341
148.322
149.416
150.614
151.909
153.29
154.747
156.267
157.837
159.441
161.062
162.685
164.291
165.864
167.392
168.867
170.285
171.653
172.985
174.304
175.625
176.962
178.163
179.467
143.748
143.87
144.155
144.591
145.159
145.849
146.656
147.573
148.592
149.705
150.902
152.173
153.507
154.889
156.307
157.743
159.18
160.601
161.988
163.323
164.59
165.78
166.887
167.915
168.879
169.808
170.739
171.737
172.7
174.018
143.206
143.321
143.589
143.997
144.528
145.172
145.922
146.771
147.711
148.733
149.827
150.982
152.185
153.422
154.677
155.934
157.172
158.373
159.515
160.577
161.539
162.381
163.089
163.655
164.081
164.391
164.634
164.942
165.324
166.498
142.629
142.736
142.986
143.365
143.857
144.451
145.141
145.92
146.777
147.705
148.691
149.725
150.791
151.876
152.961
154.027
155.054
156.018
156.893
157.652
158.265
158.7
158.922
158.897
158.593
157.996
157.121
156.129
155.182
155.687
142.02
142.119
142.349
142.698
143.149
143.692
144.32
145.025
145.797
146.627
147.502
148.41
149.336
150.263
151.171
152.04
152.845
153.559
154.151
154.583
154.813
154.79
154.451
153.719
152.496
150.667
148.104
144.803
140.856
138.822
141.381
141.471
141.681
141.998
142.407
142.897
143.461
144.091
144.776
145.506
146.268
147.048
147.829
148.595
149.323
149.989
150.567
151.023
151.319
151.41
151.236
150.726
149.781
148.266
145.987
142.655
137.812
130.798
120.338
108.12
1.24693
1.22889
1.16483
1.07576
0.98239
0.894547
0.815172
0.744371
0.681332
0.624927
0.573918
0.527088
0.483342
0.441746
0.401552
0.362221
0.323453
0.285223
0.247792
0.211664
0.177456
0.145708
0.116707
0.0904885
0.0673995
0.0474717
0.0309542
0.0179844
0.00846299
0.000973825
1.20144
1.18047
1.11999
1.03794
0.952116
0.870901
0.796921
0.730394
0.670686
0.616849
0.567805
0.522473
0.479853
0.439079
0.399445
0.360441
0.321789
0.2835
0.245898
0.209576
0.175244
0.143501
0.114688
0.0889311
0.065986
0.0460869
0.0296915
0.0169758
0.00806629
0.00248785
1.15197
1.12649
1.06811
0.992689
0.914976
0.84125
0.773569
0.71214
0.656478
0.60581
0.559226
0.51579
0.474616
0.434918
0.396045
0.357518
0.319088
0.280807
0.243071
0.206589
0.172199
0.140575
0.112008
0.086416
0.0635441
0.0434938
0.0268077
0.0145948
0.00693347
0.00303844
1.10539
1.07545
1.0185
0.948778
0.878543
0.811808
0.750098
0.693552
0.641806
0.594245
0.550106
0.50858
0.468887
0.430321
0.392285
0.354337
0.31625
0.278102
0.240342
0.203772
0.169341
0.137808
0.109459
0.0840977
0.0614069
0.0414339
0.0248419
0.0126531
0.00514145
0.00147206
1.07485
1.0406
0.985152
0.919646
0.854887
0.792967
0.735214
0.681832
0.6326
0.587022
0.544431
0.504107
0.465341
0.427485
0.389988
0.352438
0.314628
0.276649
0.238974
0.202439
0.168037
0.136571
0.108361
0.0832394
0.0608672
0.0411962
0.0248111
0.0129273
0.00580735
0.00140696
1.07167
1.03215
0.977617
0.913462
0.850603
0.790045
0.733107
0.680197
0.631294
0.585946
0.543511
0.503292
0.464597
0.426798
0.389368
0.351916
0.314252
0.276472
0.239033
0.202722
0.168471
0.137045
0.108793
0.0836217
0.0612972
0.0418231
0.02584
0.013828
0.00592485
0.00132673
1.10528
1.0583
1.00086
0.933069
0.866391
0.802606
0.742887
0.687657
0.636854
0.589962
0.54628
0.505063
0.465596
0.427233
0.389443
0.351851
0.314287
0.276838
0.239886
0.204082
0.170202
0.138907
0.110582
0.0852687
0.0628988
0.0433998
0.0268996
0.0141844
0.00554771
0.0010697
1.18073
1.12204
1.05296
0.973941
0.897294
0.825535
0.759628
0.699599
0.645125
0.595476
0.549722
0.506959
0.466361
0.427203
0.388907
0.351115
0.313713
0.276795
0.240632
0.205673
0.172463
0.141479
0.113111
0.0875138
0.0646948
0.0448714
0.0281454
0.0145324
0.0048406
0.000795371
1.29613
1.21371
1.1227
1.02421
0.932212
0.849784
0.776573
0.711004
0.652096
0.599194
0.551113
0.506734
0.465076
0.425263
0.386597
0.348729
0.311683
0.275639
0.240748
0.207148
0.174983
0.144346
0.115521
0.0892447
0.0661165
0.0462075
0.0291539
0.0145987
0.00400622
0.000511575
1.42762
1.31005
1.19196
1.07346
0.963486
0.866579
0.783466
0.712745
0.651622
0.597451
0.548485
0.503473
0.461432
0.421408
0.382583
0.344628
0.307841
0.272794
0.239679
0.208023
0.177154
0.146903
0.117798
0.0908611
0.0671893
0.0470719
0.0297083
0.0143377
0.00308996
0.000239338
1.52607
1.38432
1.23618
1.09474
0.971675
0.867362
0.779618
0.706012
0.643701
0.589418
0.540597
0.495792
0.454148
0.414634
0.376144
0.338322
0.301953
0.268209
0.237373
0.208338
0.17943
0.149778
0.119996
0.0918921
0.0673979
0.0471003
0.0296875
0.0138622
0.00226007
5.95718e-06
1.60353
1.41236
1.23611
1.07632
0.944256
0.838133
0.752109
0.68154
0.622886
0.572069
0.525659
0.482401
0.442221
0.404222
0.366698
0.329071
0.292992
0.260896
0.233379
0.208221
0.182103
0.153131
0.122106
0.0920331
0.0662433
0.0458781
0.0289398
0.0132313
0.00159842
-0.000161592
1.57818
1.32128
1.13075
0.978706
0.860447
0.769561
0.696728
0.636735
0.587773
0.545191
0.503874
0.463224
0.425412
0.390186
0.354471
0.316821
0.280302
0.249872
0.227047
0.207755
0.185749
0.157515
0.124274
0.0909561
0.0631366
0.04295
0.0273728
0.0125676
0.00118337
-0.00024222
1.28401
0.979669
0.856332
0.775808
0.704952
0.654699
0.611957
0.570971
0.538024
0.509624
0.47625
0.438198
0.403177
0.372697
0.340436
0.30231
0.26361
0.234236
0.217922
0.207509
0.191558
0.163946
0.126854
0.0882609
0.0572628
0.0376993
0.0249358
0.0121153
0.00111828
-0.000219572
0.551692
0.202665
0.321105
0.459194
0.474982
0.502482
0.511217
0.489046
0.472757
0.467444
0.447022
0.409589
0.376066
0.352829
0.326618
0.286492
0.24148
0.211081
0.203982
0.207632
0.200911
0.173666
0.130217
0.0833123
0.0473994
0.0292034
0.021625
0.0123493
0.00155278
-8.59446e-05
140.702
140.782
140.971
141.255
141.62
142.056
142.553
143.105
143.7
144.327
144.972
145.62
146.254
146.854
147.396
147.855
148.199
148.39
148.384
148.124
147.538
146.529
144.964
142.651
139.288
134.382
127.011
115.261
93.1037
33.3234
139.974
140.046
140.212
140.462
140.78
141.159
141.588
142.059
142.56
143.08
143.605
144.117
144.599
145.029
145.382
145.629
145.735
145.658
145.348
144.738
143.745
142.255
140.109
137.076
132.798
126.691
117.722
104.158
84.6331
56.1763
139.205
139.266
139.409
139.623
139.894
140.213
140.572
140.96
141.366
141.778
142.179
142.554
142.882
143.141
143.303
143.339
143.209
142.87
142.264
141.321
139.951
138.031
135.399
131.822
126.977
120.408
111.525
99.6894
85.4513
68.8242
138.394
138.446
138.564
138.741
138.964
139.223
139.51
139.814
140.123
140.425
140.703
140.94
141.115
141.204
141.179
141.007
140.65
140.059
139.177
137.931
136.23
133.957
130.959
127.04
121.953
115.406
107.101
96.7057
84.158
69.0188
137.545
137.585
137.68
137.819
137.993
138.191
138.405
138.625
138.837
139.029
139.185
139.285
139.309
139.232
139.026
138.656
138.083
137.26
136.129
134.619
132.644
130.099
126.854
122.753
117.616
111.242
103.432
93.9437
82.6082
69.6331
136.658
136.688
136.758
136.86
136.984
137.121
137.263
137.398
137.514
137.598
137.633
137.599
137.477
137.241
136.861
136.306
135.535
134.503
133.153
131.423
129.234
126.496
123.103
118.936
113.866
107.757
100.487
91.9565
82.1562
71.4989
135.737
135.757
135.802
135.866
135.941
136.017
136.087
136.139
136.161
136.138
136.056
135.894
135.632
135.244
134.704
133.978
133.029
131.813
130.281
128.374
126.028
123.166
119.708
115.566
110.653
104.89
98.2235
90.6413
82.1871
73.1969
134.785
134.794
134.815
134.841
134.867
134.884
134.883
134.854
134.784
134.659
134.464
134.179
133.785
133.258
132.569
131.69
130.584
129.214
127.533
125.494
123.041
120.116
116.658
112.609
107.914
102.534
96.4541
89.6959
82.3087
74.5646
133.805
133.804
133.801
133.791
133.769
133.728
133.658
133.55
133.391
133.169
132.867
132.467
131.95
131.294
130.473
129.459
128.22
126.722
124.927
122.794
120.279
117.34
113.933
110.021
105.573
100.577
95.0373
88.9886
82.4844
75.7524
132.802
132.791
132.764
132.719
132.65
132.553
132.417
132.233
131.991
131.676
131.273
130.767
130.139
129.367
128.428
127.298
125.949
124.35
122.471
120.279
117.741
114.826
111.505
107.757
103.568
98.9406
93.8917
88.4608
82.701
76.797
131.78
131.759
131.71
131.63
131.517
131.365
131.167
130.912
130.59
130.189
129.694
129.091
128.361
127.487
126.448
125.22
123.782
122.108
120.172
117.951
115.419
112.556
109.345
105.775
101.844
97.5636
92.9562
88.0612
82.9267
77.701
130.744
130.714
130.643
130.53
130.375
130.172
129.914
129.592
129.197
128.716
128.137
127.446
126.628
125.665
124.54
123.234
121.726
119.999
118.031
115.804
113.302
110.511
107.424
104.037
100.356
96.3956
92.1812
87.7491
83.1411
78.4764
129.699
129.661
129.569
129.425
129.23
128.979
128.666
128.282
127.819
127.266
126.611
125.843
124.947
123.909
122.713
121.345
119.787
118.025
116.045
113.832
111.377
108.672
105.715
102.51
99.0642
95.396
91.5295
87.4972
83.3349
79.1388
128.652
128.605
128.494
128.322
128.089
127.794
127.429
126.989
126.464
125.846
125.124
124.288
123.326
122.225
120.973
119.558
117.966
116.187
114.209
112.025
109.629
107.019
104.195
101.164
97.9374
94.5331
90.9735
87.2869
83.5037
79.7016
127.608
127.553
127.425
127.225
126.958
126.622
126.211
125.719
125.139
124.464
123.684
122.79
121.772
120.621
119.325
117.876
116.264
114.481
112.519
110.375
108.046
105.533
102.839
99.974
96.9494
93.782
90.4924
87.1051
83.6455
80.1769
126.573
126.512
126.367
126.143
125.844
125.471
125.018
124.48
123.852
123.126
122.296
121.353
120.29
119.099
117.772
116.301
114.68
112.904
110.968
108.871
106.613
104.197
101.63
98.9195
96.0787
93.123
90.0708
86.9428
83.7606
80.5758
125.555
125.487
125.328
125.081
124.754
124.348
123.858
123.28
122.609
121.84
120.967
119.985
118.886
117.664
116.315
114.832
113.212
111.451
109.548
107.503
105.318
102.998
100.55
97.9824
95.3081
92.5409
89.6969
86.7941
83.8504
80.9081
124.561
124.487
124.314
124.047
123.695
123.259
122.736
122.123
121.416
120.611
119.703
118.688
117.562
116.319
114.956
113.469
111.857
110.118
108.252
106.262
104.149
101.921
99.5844
97.1481
94.6236
92.0237
89.3624
86.6551
83.9168
81.1826
123.596
123.517
123.332
123.048
122.674
122.212
121.661
121.018
120.28
119.445
118.509
117.469
116.321
115.064
113.695
112.211
110.613
108.9
107.074
105.139
103.097
100.956
98.7218
96.4047
94.0144
91.5624
89.0611
86.5236
83.9626
81.4071
122.67
122.586
122.391
122.091
121.698
121.214
120.638
119.97
119.206
118.347
117.388
116.329
115.168
113.903
112.533
111.057
109.477
107.793
106.008
104.126
102.152
100.091
97.9521
95.7423
93.4716
91.1501
88.7886
86.3984
83.9905
81.5888
121.789
121.701
121.497
121.184
120.774
120.271
119.675
118.985
118.201
117.322
116.346
115.274
114.104
112.835
111.469
110.005
108.445
106.791
105.048
103.218
101.306
99.3206
97.267
95.1534
92.9886
90.7816
88.542
86.2795
84.0035
81.7341
120.961
120.87
120.657
120.333
119.909
119.39
118.777
118.07
117.27
116.375
115.387
114.306
113.131
111.863
110.503
109.054
107.516
105.893
104.189
102.407
100.555
98.6369
96.6601
94.632
92.5604
90.4535
88.3197
86.1674
84.0049
81.8489
120.194
120.1
119.881
119.547
119.11
118.578
117.952
117.231
116.417
115.512
114.515
113.428
112.252
110.987
109.637
108.202
106.687
105.094
103.427
101.691
99.8918
98.0347
96.1263
94.1734
92.1832
90.163
88.1204
86.0627
83.9973
81.9381
119.497
119.4
119.175
118.832
118.386
117.843
117.205
116.473
115.65
114.736
113.734
112.644
111.469
110.21
108.87
107.452
105.958
104.393
102.761
101.066
99.3142
97.5111
95.6626
93.7751
91.8552
89.9095
87.9449
85.9678
83.9849
82.0078
118.878
118.779
118.548
118.197
117.742
117.19
116.543
115.804
114.973
114.053
113.047
111.957
110.784
109.532
108.203
106.8
105.327
103.788
102.186
100.528
98.8184
97.0621
95.2652
93.4336
91.5735
89.6909
87.792
85.8827
83.9688
82.0601
118.346
118.244
118.008
117.65
117.188
116.628
115.975
115.229
114.393
113.47
112.462
111.372
110.204
108.958
107.64
106.251
104.797
103.28
101.706
100.08
98.4056
96.689
94.9356
93.151
91.3408
89.5106
87.6661
85.8129
83.9561
82.1041
117.911
117.806
117.562
117.196
116.727
116.162
115.503
114.752
113.912
112.987
111.979
110.891
109.726
108.487
107.178
105.803
104.364
102.867
101.316
99.7157
98.0709
96.3869
94.6687
92.9219
91.1517
89.3634
87.5622
85.7533
83.9414
82.1334
117.585
117.474
117.221
116.849
116.375
115.805
115.142
114.387
113.545
112.618
111.611
110.524
109.363
108.13
106.83
105.465
104.039
102.558
101.025
99.4455
97.8239
96.1653
94.4747
92.7574
91.0183
89.2625
87.4949
85.7205
83.9438
82.171
117.383
117.248
116.978
116.6
116.124
115.552
114.886
114.129
113.286
112.36
111.353
110.269
109.111
107.883
106.588
105.231
103.815
102.344
100.824
99.2587
97.6528
96.0113
94.3392
92.6414
90.9229
89.1884
87.4427
85.6904
83.9359
82.1843
117.365
117.166
116.868
116.483
116.004
115.429
114.76
114.002
113.158
112.231
111.225
110.142
108.987
107.763
106.473
105.121
103.712
102.249
100.737
99.1813
97.5858
95.9555
94.2952
92.6098
90.904
89.1828
87.4505
85.7118
83.971
82.2323
-50.5404
-30.3143
-11.0611
35.83
28.4409
16.5192
51.346
39.2843
28.109
52.757
42.3454
34.3163
57.09
48.8113
42.064
61.4734
54.5718
48.6873
64.7413
58.8652
53.8209
67.3322
62.3112
58.0054
69.516
65.1865
61.4801
71.3591
67.5824
64.357
72.9085
69.5797
66.7439
74.2137
71.2523
68.7346
75.3151
72.6581
70.4024
76.2452
73.8425
71.8049
77.0302
74.842
72.9876
77.692
75.6862
73.9868
78.249
76.3991
74.8316
78.7163
77.0002
75.5456
79.1068
77.506
76.1481
79.4315
77.9303
76.6556
79.7
78.2846
77.0813
79.9209
78.5795
77.4374
80.1009
78.8228
77.733
80.2481
79.0239
77.9782
80.3648
79.1859
78.1773
80.463
79.3214
78.3429
80.5338
79.4221
78.4683
80.606
79.517
78.5804
80.6396
79.5669
78.6443
80.7086
79.6499
78.7339
-2.51213
-2.38263
-0.919832
0.206677
0.247427
0.328127
0.390224
0.37004
0.376384
0.427393
0.431097
0.380538
0.338254
0.325092
0.312397
0.269528
0.212059
0.177355
0.184372
0.211359
0.218808
0.190454
0.136012
0.0756859
0.0317827
0.0159281
0.0174925
0.0142905
0.00283065
0.000154297
2.77367
-0.225165
1.24083
0.786481
-0.476819
-0.296457
0.287285
0.342754
0.344475
0.443012
0.431803
0.327279
0.266313
0.289062
0.318726
0.270276
0.182747
0.129799
0.152149
0.216816
0.246349
0.214422
0.14204
0.0610927
0.00508369
-0.00601066
0.0123091
0.019982
0.0057281
0.000456618
13.8643
5.47172
2.67303
0.307086
-0.0803331
1.12273
1.32505
0.181724
-0.234481
0.0917817
0.448438
0.339399
0.240075
0.299336
0.356156
0.266611
0.111104
0.0185571
0.0744888
0.228228
0.305779
0.261419
0.158459
0.0458264
-0.0298194
-0.0349989
0.00939851
0.0346439
0.0127386
0.000705846
23.5812
13.7165
7.86642
4.10452
2.31948
1.68737
0.579525
-0.105301
0.134212
1.30137
1.30499
0.240566
-0.17212
-0.0497727
0.292308
0.329793
0.0890288
-0.0594546
0.0695894
0.295739
0.403241
0.3165
0.162832
0.00355995
-0.102956
-0.0996926
-0.00864543
0.059167
0.0272544
0.000369915
32.7322
22.9778
15.6664
10.3726
6.72663
4.24702
2.40068
1.37359
1.05675
1.11345
0.643855
0.0809826
-0.0849855
0.509445
1.04369
0.615853
-0.0483308
-0.449023
-0.403368
0.199131
0.540641
0.413955
0.190261
-0.0242479
-0.167941
-0.147956
0.0283624
0.135745
0.0654074
-0.00119964
40.6948
31.7742
23.8914
17.4624
12.5372
8.88981
6.21562
4.33053
3.05953
2.18093
1.4239
0.822678
0.512065
0.618923
0.620482
0.370889
-0.151881
-0.501967
-0.124319
0.819101
0.970902
0.476034
0.146532
-0.131974
-0.342583
-0.363762
-0.0909404
0.194726
0.128054
-0.00715817
47.1912
39.3891
31.6169
24.7298
19.106
14.6458
11.1241
8.37366
6.28046
4.71153
3.48844
2.50691
1.80611
1.40014
1.08727
0.723196
0.228162
-0.0822241
0.114512
0.551712
0.699877
0.489684
0.188672
-0.124674
-0.367475
-0.324136
0.16979
0.46572
0.235086
-0.0199685
52.4823
45.7529
38.4976
31.6701
25.789
20.8448
16.7066
13.286
10.5155
8.2986
6.50269
5.03647
3.89077
3.04542
2.38556
1.77211
1.17679
0.773784
0.708267
0.842464
0.878128
0.660119
0.314162
-0.0198014
-0.242727
-0.213582
0.0767307
0.280346
0.285295
-0.0690862
56.7984
50.9825
44.3995
37.9274
32.111
27.0006
22.5324
18.6709
15.3861
12.6217
10.2992
8.35547
6.75812
5.47011
4.41097
3.49176
2.69489
2.09537
1.75552
1.59688
1.41858
1.09407
0.691573
0.327398
0.0868516
0.0457678
0.1819
0.296245
0.231481
-0.305674
60.3203
55.2529
49.3508
43.3667
37.8137
32.7694
28.205
24.1162
20.5039
17.3487
14.6121
12.2535
10.2396
8.53474
7.08591
5.8393
4.77401
3.91188
3.27065
2.79529
2.36204
1.88594
1.39142
0.951136
0.627373
0.46051
0.422518
0.37283
0.146146
-0.522355
63.2126
58.7529
53.4728
48.0047
42.8086
37.9676
33.4689
29.3239
25.5532
22.1617
19.1367
16.4569
14.0998
12.0397
10.2433
8.67611
7.31699
6.16405
5.2133
4.42504
3.72499
3.05506
2.4148
1.84273
1.37851
1.04063
0.797695
0.545448
0.150569
-0.600598
65.6078
61.6438
56.9053
51.9261
47.111
42.5388
38.2023
34.1185
30.317
26.8159
23.6186
20.7189
18.1064
15.7664
13.6793
11.8231
10.1804
8.7413
7.49391
6.40923
5.4407
4.54771
3.71976
2.97303
2.3279
1.78855
1.32426
0.858729
0.295111
-0.530243
67.6056
64.0497
59.774
55.2344
50.7873
46.5033
42.3761
38.4226
34.6746
31.1563
27.8803
24.8504
22.0656
19.5203
17.2047
15.1063
13.2127
11.5133
9.99548
8.6378
7.40985
6.28311
5.24432
4.2962
3.44521
2.68696
1.99418
1.31201
0.574136
-0.337349
69.2812
66.0648
62.1825
58.0291
53.9203
49.9181
46.0152
42.2261
38.5811
35.1063
31.8187
28.7281
25.8395
23.1542
20.6694
18.3794
16.2767
14.3532
12.5983
10.9966
9.52774
8.17153
6.91498
5.75366
4.68557
3.70197
2.77996
1.88063
0.960626
-0.0590574
70.6922
67.7609
64.2134
60.396
56.5905
52.8515
49.1698
45.5566
42.0395
38.6442
35.3889
32.2867
29.3463
26.5732
23.9696
21.5345
19.2648
17.1554
15.1989
13.3846
11.6988
10.1271
8.65788
7.2838
5.99851
4.79163
3.64437
2.52925
1.41847
0.263975
71.8837
69.1933
65.9318
62.4057
58.8688
55.3695
51.8966
48.4582
45.0785
41.7813
38.585
35.5036
32.548
29.7263
27.0437
24.5027
22.1034
19.8437
17.7192
15.723
13.846
12.0778
10.4087
8.83078
7.3359
5.91353
4.54829
3.2203
1.91113
0.595761
72.8915
70.4055
67.389
64.1154
60.8151
57.5308
54.2505
50.9787
47.7364
44.5452
41.4225
38.3824
35.4364
32.5941
29.8626
27.2468
24.749
22.3697
20.1069
17.9569
15.9136
13.9698
12.1176
10.3495
8.65716
7.03055
5.45675
3.92052
2.40815
0.91038
73.7441
71.4323
68.6261
65.5714
62.4785
59.3859
56.2802
53.1636
50.0536
46.9694
43.9271
40.9401
38.0199
35.1767
32.4187
29.7519
27.1807
24.7072
22.3316
20.0523
17.8657
15.7668
13.7495
11.807
9.93155
8.11375
6.34231
4.6044
2.88795
1.19324
74.4649
72.3016
69.6763
66.8114
63.8999
60.9769
58.0282
55.0536
52.0678
49.0876
46.1275
43.1997
40.3155
37.4848
34.7163
32.017
29.3921
26.8452
24.378
21.9906
19.6812
17.4464
15.2817
13.1812
11.1378
9.14275
7.18564
5.25466
3.33751
1.4393
75.0733
73.0367
70.567
67.8664
65.1132
62.3395
59.5307
56.6846
53.8134
50.9315
48.0519
45.1856
42.343
39.5337
36.7663
34.0482
31.3852
28.7818
26.2408
23.7634
21.3492
18.9963
16.7011
14.4586
12.2625
10.1044
7.97446
5.86096
3.75056
1.64994
75.5853
73.6568
71.3207
68.7622
66.1465
63.5036
60.8185
58.0874
55.3203
52.5297
49.7267
46.9213
44.1228
41.3403
38.582
35.8554
33.1664
30.5201
27.92
25.3682
22.8652
20.41
18.0001
15.6312
13.2973
10.9907
8.70146
6.41774
4.12494
1.82941
76.0146
74.1781
71.9566
69.5204
67.0238
64.4947
61.918
59.2889
56.6151
53.9076
51.176
48.4289
45.6747
42.9218
40.1779
37.45
34.7444
32.0661
29.4192
26.8062
24.2285
21.6855
19.1756
16.6949
14.238
11.7973
9.36298
6.92278
4.46105
1.98278
76.3725
74.6139
72.49
70.1585
67.7643
65.3334
62.8511
60.3112
57.7201
55.0871
52.4205
49.7277
47.0163
44.2937
41.567
38.843
36.1277
33.4261
30.7425
28.0797
25.4395
22.8219
20.2255
17.647
15.0814
12.5212
9.95644
7.37459
4.75923
2.11355
76.6699
74.9767
72.9354
70.6929
68.3857
66.0389
63.6376
61.175
58.6559
56.0885
53.4799
50.8365
48.165
45.4718
42.7636
40.0466
37.3266
34.6085
31.8964
29.1934
26.5015
23.821
21.1509
18.488
15.8276
13.1623
10.4822
7.77427
5.02177
2.22554
76.9129
75.274
73.3018
71.1337
68.8997
66.6236
64.2908
61.8938
59.4365
56.9257
54.3676
51.7679
49.1322
46.4664
43.7764
41.0681
38.3467
35.6171
32.8833
30.1483
27.4142
24.6815
21.9492
19.2147
16.4731
13.7171
10.9368
8.11897
5.24666
2.31839
77.1133
75.5185
73.603
71.4962
69.3224
67.1046
64.8284
62.4861
60.0803
57.6171
55.1019
52.5396
49.935
47.2935
44.6205
41.9212
39.2006
36.4633
33.7131
30.953
28.1851
25.4099
22.6266
19.8325
17.0229
14.1905
11.3253
8.41411
5.43959
2.39728
77.2679
75.708
73.8373
71.7791
69.6531
67.4817
65.2508
62.9521
60.5878
58.163
55.6826
53.1508
50.572
47.951
45.2925
42.6016
39.8828
37.1404
34.3781
31.5988
28.8044
25.9957
23.1717
20.3299
17.4654
14.571
11.6366
8.64884
5.59064
2.45519
77.399
75.8648
74.0281
72.0068
69.9169
67.7806
65.584
63.3185
60.9857
58.5904
56.1367
53.6284
51.0696
48.4646
45.8177
43.1336
40.4167
37.671
34.9
32.1065
29.2924
26.4583
23.6034
20.725
17.8183
14.876
11.8878
8.84034
5.71618
2.50472
77.4796
75.9616
74.1472
72.1509
70.0854
67.9726
65.7989
63.5557
61.2441
58.8684
56.4327
53.9404
51.3951
48.8009
46.1621
43.4828
40.7674
38.0197
35.2431
32.4403
29.613
26.762
23.8863
20.9832
18.0479
15.0729
12.0478
8.95881
5.78849
2.52459
77.5684
76.0515
74.2493
72.2681
70.2163
68.116
65.9545
63.723
61.4224
59.0568
56.6301
54.1456
51.6068
49.0175
46.382
43.7043
40.9887
38.2388
35.458
32.6491
29.8138
26.9527
24.0649
21.1477
18.1961
15.2028
12.1568
9.0435
5.84291
2.53111
)
;

boundaryField
{
    inlet
    {
        type            zeroGradient;
    }
    outlet
    {
        type            fixedValue;
        value           uniform 0;
    }
    flap
    {
        type            zeroGradient;
    }
    upperWall
    {
        type            zeroGradient;
    }
    lowerWall
    {
        type            zeroGradient;
    }
    frontAndBack
    {
        type            empty;
    }
}


// ************************************************************************* //
