/*--------------------------------*- C++ -*----------------------------------*\
  =========                 |
  \\      /  F ield         | OpenFOAM: The Open Source CFD Toolbox
   \\    /   O peration     | Website:  https://openfoam.org
    \\  /    A nd           | Version:  dev
     \\/     M anipulation  |
\*---------------------------------------------------------------------------*/
FoamFile
{
    version     2.0;
    format      ascii;
    class       surfaceScalarField;
    location    "4.8";
    object      phi;
}
// * * * * * * * * * * * * * * * * * * * * * * * * * * * * * * * * * * * * * //

dimensions      [0 3 -1 0 0 0 0];

internalField   nonuniform List<scalar> 
5457
(
0.198418
0.00158237
0.19648
0.00193735
0.194192
0.00228805
0.191509
0.00268354
0.188428
0.00308114
0.184951
0.0034767
0.181072
0.00387849
0.176778
0.00429392
0.17205
0.00472811
0.166865
0.0051851
0.161197
0.00566837
0.155016
0.00618088
0.148291
0.0067248
0.14099
0.00730116
0.133081
0.00790932
0.124534
0.00854626
0.115329
0.0092057
0.105452
0.009877
0.0949078
0.0105439
0.0837245
0.0111834
0.07196
0.0117645
0.0597117
0.0122482
0.047123
0.0125887
0.0343828
0.0127402
0.0216877
0.0126951
0.0090374
0.0126502
-0.00291637
0.0119538
-0.00847229
0.00555593
-0.0080431
-0.00042919
-0.0080431
0.199928
0.0016542
0.199176
0.00268977
0.197965
0.00349896
0.196332
0.00431668
0.194272
0.00514114
0.191782
0.0059667
0.188855
0.0068054
0.185478
0.00767069
0.181633
0.00857292
0.177298
0.00952039
0.172446
0.0105204
0.167048
0.0115791
0.161071
0.0127014
0.154482
0.0138899
0.147247
0.0151442
0.139335
0.0164592
0.130717
0.0178234
0.121377
0.019217
0.111312
0.0206086
0.100542
0.0219531
0.0891181
0.0231889
0.0771305
0.0242358
0.0647245
0.0249947
0.052117
0.0253478
0.0396565
0.0251556
0.0281063
0.0242005
0.0185956
0.0214644
0.00879771
0.0153538
0.00118375
0.00718477
-0.00685935
0.199781
0.00187363
0.199087
0.00338359
0.197946
0.00463986
0.196409
0.00585326
0.194483
0.00706723
0.192164
0.0082857
0.189447
0.00952276
0.186321
0.0107961
0.182774
0.0121207
0.178785
0.0135092
0.174333
0.0149724
0.169392
0.01652
0.163933
0.0181598
0.157926
0.019897
0.151338
0.0217323
0.144137
0.0236608
0.136291
0.0256687
0.127778
0.0277307
0.118581
0.0298053
0.108703
0.0318309
0.0981715
0.0337206
0.0870492
0.0353581
0.0754525
0.0365914
0.0635753
0.037225
0.0517333
0.0369976
0.0403979
0.0355359
0.0297395
0.0321228
0.0191664
0.0259269
0.00959786
0.0167533
0.00273851
0.199703
0.00217056
0.199008
0.00407889
0.197887
0.00576036
0.196376
0.00736413
0.194488
0.0089553
0.192222
0.0105516
0.189575
0.0121704
0.186539
0.013832
0.183104
0.0155551
0.179258
0.0173555
0.174983
0.0192473
0.170261
0.0212425
0.165069
0.0233514
0.159385
0.025581
0.153184
0.0279339
0.146438
0.0304058
0.139124
0.032983
0.131217
0.0356379
0.122698
0.0383244
0.113557
0.0409716
0.1038
0.0434775
0.0934579
0.0457006
0.0825966
0.0474526
0.0713338
0.0484878
0.0598418
0.0484896
0.0483176
0.0470601
0.0368115
0.0436289
0.0251882
0.0375502
0.0133357
0.0286058
0.0160742
0.199667
0.00250314
0.198964
0.00478213
0.197863
0.00686166
0.196381
0.00884578
0.194532
0.010804
0.192318
0.0127662
0.189734
0.0147541
0.186776
0.0167905
0.183434
0.0188967
0.179698
0.0210912
0.175556
0.0233901
0.170991
0.0258075
0.165987
0.0283551
0.160527
0.0310411
0.154591
0.0338693
0.148161
0.0368362
0.141215
0.0399286
0.133734
0.0431192
0.125697
0.0463611
0.117088
0.0495809
0.107895
0.0526709
0.0981156
0.0554796
0.0877656
0.0578026
0.0768795
0.0593739
0.0655094
0.0598597
0.0537086
0.058861
0.0414544
0.0558831
0.028588
0.0504166
0.0148525
0.0423413
0.0309267
0.199653
0.00285033
0.198949
0.00548618
0.197871
0.00793958
0.196427
0.0102899
0.194627
0.012604
0.192473
0.0149197
0.189964
0.0172637
0.187093
0.0196613
0.183854
0.0221359
0.180237
0.0247083
0.17623
0.0273965
0.171822
0.030216
0.166997
0.0331797
0.161741
0.0362969
0.156038
0.039572
0.149872
0.0430027
0.143224
0.0465767
0.136074
0.0502685
0.128402
0.0540333
0.120183
0.0578005
0.111388
0.0614652
0.10199
0.0648784
0.0919555
0.0678368
0.0812546
0.0700748
0.0698547
0.0712596
0.0577172
0.0709984
0.0447609
0.0688394
0.0308493
0.0643282
0.0158732
0.0573174
0.0467999
0.19965
0.00320027
0.198954
0.00618216
0.197904
0.00898919
0.196505
0.0116896
0.194763
0.0143462
0.192681
0.0170017
0.190257
0.0196873
0.187487
0.0224309
0.184365
0.0252579
0.180883
0.0281912
0.177029
0.0312504
0.172792
0.0344525
0.16816
0.0378117
0.163119
0.0413384
0.157653
0.0450382
0.151745
0.0489101
0.145378
0.0529442
0.138529
0.0571179
0.13117
0.0613914
0.12327
0.0657012
0.114783
0.0699519
0.105655
0.0740062
0.0958173
0.0776747
0.0851866
0.0807054
0.0736686
0.0827776
0.0611617
0.0835053
0.0475554
0.0824457
0.0327587
0.0791249
0.0167829
0.0732932
0.0635828
0.199655
0.00354562
0.198975
0.00686226
0.197959
0.0100049
0.19661
0.0130383
0.194934
0.0160222
0.192934
0.0190022
0.190608
0.0220133
0.187952
0.025086
0.184962
0.0282478
0.18163
0.0315232
0.177947
0.0349337
0.173902
0.0384978
0.169482
0.0422311
0.164675
0.0461457
0.159464
0.0502489
0.153832
0.0545423
0.147757
0.0590193
0.141212
0.0636625
0.134164
0.0684396
0.126568
0.0732979
0.118362
0.078157
0.10947
0.082899
0.0997869
0.0873574
0.0891876
0.0913046
0.0775254
0.0944399
0.0646475
0.0963832
0.0504175
0.0966758
0.0347682
0.0947743
0.0177898
0.0902715
0.0813726
0.199664
0.00388144
0.199006
0.00752006
0.19803
0.0109812
0.196739
0.0143297
0.195137
0.0176242
0.193227
0.020912
0.191009
0.0242311
0.188481
0.0276146
0.185637
0.0310917
0.182471
0.0346888
0.178976
0.038429
0.175141
0.0423326
0.170955
0.0464169
0.166405
0.050696
0.161474
0.0551798
0.156143
0.0598735
0.150387
0.0647754
0.144174
0.0698753
0.137462
0.075151
0.130196
0.0805643
0.122298
0.0860546
0.113667
0.0915301
0.104169
0.0968559
0.0936342
0.101839
0.0818649
0.106209
0.0686495
0.109599
0.053802
0.111523
0.0372365
0.11134
0.0190834
0.108425
0.100456
0.199677
0.00420422
0.199047
0.0081503
0.198116
0.0119125
0.196887
0.015558
0.195367
0.0191451
0.193556
0.0227226
0.191456
0.0263309
0.189065
0.0300053
0.18638
0.0337769
0.183395
0.0376736
0.180104
0.0417202
0.176498
0.0459387
0.172567
0.0503484
0.168297
0.054966
0.163672
0.0598045
0.158672
0.0648736
0.153269
0.0701779
0.147429
0.075716
0.141101
0.0814786
0.134221
0.0874449
0.126696
0.0935789
0.118405
0.099821
0.109184
0.106078
0.0988197
0.112203
0.0870527
0.117976
0.0735899
0.123061
0.0581485
0.126965
0.0405519
0.128936
0.0209013
0.128075
0.121357
0.199693
0.00451129
0.199095
0.00874868
0.198213
0.0127941
0.197053
0.0167177
0.19562
0.0205785
0.193916
0.0244264
0.191943
0.0283039
0.1897
0.0322482
0.187185
0.0362919
0.184394
0.0404645
0.181322
0.0447923
0.177962
0.0492991
0.174304
0.0540063
0.170337
0.0589331
0.166045
0.0640965
0.161408
0.0695108
0.156398
0.0751881
0.150977
0.0811369
0.145093
0.0873624
0.138674
0.093864
0.131619
0.100634
0.12379
0.10765
0.114996
0.114871
0.104983
0.122216
0.0934191
0.12954
0.0798981
0.136582
0.063968
0.142895
0.0452348
0.14767
0.0236116
0.149698
0.144969
0.199711
0.0048006
0.199148
0.00931169
0.19832
0.0136217
0.197234
0.0178039
0.195894
0.0219186
0.194303
0.0260167
0.192465
0.0301424
0.190379
0.0343343
0.188044
0.0386266
0.185459
0.04305
0.182619
0.0476322
0.179519
0.0523987
0.176152
0.0573729
0.172509
0.0625766
0.168575
0.0680303
0.164332
0.0737539
0.159754
0.0797664
0.154803
0.0860872
0.14943
0.092736
0.14356
0.0997337
0.137091
0.107102
0.129878
0.114863
0.121716
0.123034
0.112315
0.131618
0.101273
0.140581
0.0880455
0.14981
0.0719231
0.159017
0.0520863
0.167506
0.0278856
0.173899
0.172855
0.19973
0.00507053
0.199205
0.00983647
0.198435
0.0143917
0.197427
0.0188126
0.196185
0.0231606
0.194713
0.0274879
0.193016
0.0318398
0.191094
0.0362562
0.188948
0.0407724
0.186578
0.0454203
0.183981
0.0502287
0.181156
0.0552245
0.178096
0.0604328
0.174795
0.0658777
0.171242
0.0715832
0.167422
0.0775739
0.163313
0.0838755
0.158883
0.0905172
0.154086
0.0975327
0.148857
0.104963
0.143101
0.112858
0.13668
0.121284
0.129393
0.130321
0.120942
0.140068
0.110883
0.15064
0.0985434
0.16215
0.0829014
0.174659
0.0624358
0.187972
0.0351248
0.20121
0.207979
0.199751
0.00531983
0.199266
0.0103207
0.198557
0.0151011
0.197629
0.0197401
0.19649
0.0243005
0.195142
0.0288352
0.193591
0.0333906
0.19184
0.0380076
0.18989
0.0427224
0.187743
0.0475675
0.185399
0.0525727
0.182858
0.0577658
0.180117
0.0631732
0.177174
0.0688211
0.174021
0.0747359
0.170649
0.0809459
0.167042
0.0874825
0.163177
0.0943826
0.159018
0.101691
0.154516
0.109465
0.149594
0.11778
0.144142
0.126736
0.137993
0.136471
0.130886
0.147175
0.122407
0.159119
0.111861
0.172696
0.0980177
0.188502
0.0785372
0.207452
0.0486638
0.231084
0.256643
0.199772
0.00554753
0.19933
0.0107626
0.198684
0.0157476
0.19784
0.0205837
0.196806
0.0253349
0.195586
0.0300549
0.194186
0.0347907
0.19261
0.0395839
0.190861
0.0444712
0.188943
0.0494855
0.186859
0.0546572
0.18461
0.0600145
0.182198
0.0655847
0.179624
0.071395
0.176887
0.0774735
0.173982
0.0838508
0.170902
0.090562
0.167637
0.0976486
0.164165
0.105163
0.160459
0.113171
0.156474
0.121765
0.152145
0.131065
0.147371
0.141244
0.141995
0.152552
0.135751
0.165363
0.128171
0.180277
0.118312
0.198361
0.103923
0.221841
0.0776904
0.257316
0.334334
0.00369613
-0.00369613
0.00724843
-0.0035523
0.0101998
-0.00295133
0.0125476
-0.00234788
0.0143895
-0.00184183
0.0158284
-0.00143894
0.0169538
-0.0011254
0.0178393
-0.000885485
0.0185442
-0.000704952
0.0191161
-0.00057185
0.0195926
-0.000476498
0.0200036
-0.00041103
0.0203723
-0.000368693
0.0207155
-0.000343146
0.0210434
-0.000327916
0.0213595
-0.000316155
0.0216604
-0.000300864
0.0219362
-0.000275809
0.0221733
-0.000237085
0.022358
-0.000184663
0.0224807
-0.000122707
0.0225386
-5.79858e-05
0.0225381
5.54869e-07
0.0224759
6.21962e-05
0.0223507
0.00012516
0.0221536
0.000197096
0.0218837
0.000269942
0.0215549
0.000328812
0.0212149
0.000339971
0.000241183
0.00339372
-0.00708985
0.00667354
-0.00683212
0.00944597
-0.00572376
0.011717
-0.00461895
0.0135786
-0.00370341
0.0151208
-0.00298111
0.0164182
-0.00242278
0.0175292
-0.00199653
0.0184993
-0.001675
0.0193637
-0.00143623
0.02015
-0.00126281
0.0208798
-0.00114086
0.0215699
-0.0010588
0.022233
-0.00100626
0.0228782
-0.000973055
0.0235106
-0.000948634
0.0241318
-0.000922055
0.0247391
-0.000883068
0.0253265
-0.000824506
0.025887
-0.000745109
0.0264149
-0.000650627
0.0269077
-0.000550851
0.0273606
-0.000452274
0.0277732
-0.000350424
0.0281385
-0.000240136
0.0284444
-0.000108812
0.028675
3.93658e-05
0.0288339
0.000169902
0.0289596
0.000214285
0.000163375
0.00283802
-0.00992786
0.00547465
-0.00946876
0.00765129
-0.0079004
0.0094147
-0.00638236
0.0108579
-0.00514666
0.0120579
-0.00418108
0.0130756
-0.00344044
0.0139548
-0.00287579
0.0147284
-0.0024486
0.0154217
-0.0021295
0.0160545
-0.00189563
0.0166426
-0.0017289
0.0171982
-0.00161444
0.017731
-0.00153912
0.0182484
-0.00149046
0.0187554
-0.00145561
0.0192543
-0.00142097
0.0197444
-0.00137315
0.0202218
-0.00130188
0.0206809
-0.00120418
0.0211171
-0.00108689
0.0215301
-0.00096382
0.0219244
-0.000846543
0.0223087
-0.000734759
0.0226875
-0.000618938
0.0230635
-0.000484815
0.0234312
-0.000328342
0.0237689
-0.000167758
0.0240394
-5.62198e-05
-5.75634e-06
0.00222489
-0.0121527
0.00410702
-0.0113509
0.0055675
-0.00936088
0.00671214
-0.007527
0.00763183
-0.00606635
0.00838467
-0.00493391
0.00901683
-0.0040726
0.00955527
-0.00341424
0.0100194
-0.00291272
0.0104245
-0.00253456
0.0107826
-0.00225382
0.0111039
-0.00205013
0.0113962
-0.00190679
0.0116665
-0.00180935
0.0119205
-0.00174447
0.0121635
-0.00169864
0.0123996
-0.0016571
0.0126307
-0.00160422
0.0128553
-0.00152648
0.0130687
-0.00141757
0.0132648
-0.00128305
0.0134405
-0.00113953
0.0135987
-0.00100474
0.0137486
-0.000884613
0.0138996
-0.000769933
0.0140555
-0.000640669
0.0142085
-0.00048143
0.0143417
-0.000300962
0.0144099
-0.000124355
-4.07503e-05
0.00151261
-0.0136654
0.00256096
-0.0123992
0.00324242
-0.0100423
0.00370722
-0.0079918
0.00403954
-0.00639867
0.00427137
-0.00516574
0.0044378
-0.00423903
0.0045492
-0.00352564
0.0046149
-0.00297842
0.00464299
-0.00256265
0.00464006
-0.00225088
0.00461159
-0.00202167
0.00456239
-0.00185759
0.00449708
-0.00174403
0.00442065
-0.00166804
0.00433882
-0.00161681
0.00425759
-0.00157586
0.00418174
-0.00152837
0.00411278
-0.00145752
0.00404688
-0.00135167
0.00397399
-0.00121016
0.00388004
-0.00104557
0.00375356
-0.00087827
0.0035916
-0.000722648
0.00340072
-0.000579053
0.00319898
-0.000438928
0.00299584
-0.00027829
0.00277198
-7.71043e-05
0.00255568
9.19429e-05
8.75653e-05
0.000693041
-0.0143584
0.000839028
-0.0125452
0.000702596
-0.00990591
0.000460335
-0.00774954
0.000141246
-0.00607958
-0.000206389
-0.0048181
-0.000578533
-0.00386688
-0.000965773
-0.0031384
-0.00136153
-0.00258266
-0.00176014
-0.00216404
-0.00215765
-0.00185337
-0.00255098
-0.00162834
-0.00293732
-0.00147125
-0.0033139
-0.00136745
-0.00367742
-0.00130452
-0.00402367
-0.00127056
-0.00434792
-0.00125162
-0.00464641
-0.00122988
-0.00491801
-0.00118592
-0.005165
-0.00110468
-0.00539323
-0.000981928
-0.00561188
-0.000826922
-0.00583173
-0.000658421
-0.00606107
-0.000493316
-0.00630288
-0.000337241
-0.00656352
-0.000178284
-0.00684155
-2.63899e-07
-0.00708029
0.000161635
-0.00723103
0.00024269
0.000214114
-0.000266186
-0.0140922
-0.00104104
-0.0117704
-0.00199203
-0.00895492
-0.00299548
-0.0067461
-0.00399793
-0.00507713
-0.00496223
-0.00385381
-0.00587775
-0.00295136
-0.00673697
-0.00227919
-0.00753515
-0.00178449
-0.00827098
-0.00142821
-0.00894612
-0.00117823
-0.0095643
-0.00101016
-0.0101304
-0.000905101
-0.0106498
-0.000848067
-0.011127
-0.000827331
-0.0115648
-0.000832745
-0.0119645
-0.00085193
-0.0123276
-0.000866792
-0.0126576
-0.000855885
-0.012961
-0.000801324
-0.0132462
-0.000696692
-0.0135229
-0.000550253
-0.0137992
-0.000382124
-0.0140812
-0.000211365
-0.0143716
-4.68296e-05
-0.0146498
9.99789e-05
-0.0148804
0.000230263
-0.0150603
0.00034158
-0.0152081
0.00039053
0.000354375
-0.00128716
-0.0128051
-0.003062
-0.00999553
-0.00485701
-0.0071599
-0.00660749
-0.00499562
-0.00825336
-0.00343126
-0.00975686
-0.00235031
-0.0110986
-0.00160963
-0.0122834
-0.00109442
-0.0133248
-0.000742996
-0.0142414
-0.000511658
-0.0150516
-0.000368018
-0.0157721
-0.000289688
-0.0164172
-0.000260015
-0.0169994
-0.00026578
-0.0175293
-0.000297519
-0.0180133
-0.000348683
-0.0184545
-0.000410738
-0.0188554
-0.000465929
-0.0192209
-0.000490371
-0.0195596
-0.000462602
-0.019882
-0.000374281
-0.0201983
-0.000233954
-0.0205161
-6.43814e-05
-0.020825
9.75385e-05
-0.0210995
0.000227654
-0.0213336
0.000334166
-0.0215389
0.000435505
-0.0217169
0.000519573
-0.0218731
0.000546788
0.000515419
-0.00248002
-0.010325
-0.00536707
-0.00710848
-0.00806346
-0.00446352
-0.0105131
-0.00254599
-0.0126943
-0.0012501
-0.0146225
-0.000422022
-0.0162979
6.57387e-05
-0.0177096
0.000317219
-0.0188753
0.000422798
-0.0198461
0.000459116
-0.0206696
0.000455474
-0.0213823
0.000422989
-0.0220113
0.000369042
-0.022578
0.000300918
-0.0230988
0.000223217
-0.0235839
0.000136444
-0.0240371
4.24222e-05
-0.024455
-4.79508e-05
-0.0248357
-0.00010975
-0.0251882
-0.000110037
-0.0255278
-3.4678e-05
-0.0258591
9.7355e-05
-0.0261698
0.000246321
-0.026451
0.000378719
-0.0267063
0.000482949
-0.0269359
0.000563699
-0.0271355
0.000635124
-0.0273078
0.000691863
-0.0274668
0.000705845
0.000686048
-0.00404587
-0.00627916
-0.00842605
-0.00272831
-0.0123697
-0.000519832
-0.0156217
0.000705973
-0.0181831
0.00131133
-0.0201667
0.00156154
-0.0217188
0.00161784
-0.0229721
0.00157049
-0.024023
0.00147378
-0.0249201
0.00135614
-0.0256983
0.00123372
-0.0263831
0.0011078
-0.0269924
0.000978284
-0.0275414
0.00084996
-0.0280438
0.000725631
-0.0285071
0.000599756
-0.0289309
0.000466147
-0.0293139
0.000335134
-0.0296614
0.000237671
-0.0299811
0.000209693
-0.0302821
0.000266334
-0.030575
0.000390197
-0.0308673
0.000538671
-0.0311541
0.000665467
-0.0314185
0.00074743
-0.0316488
0.000793966
-0.0318431
0.000829432
-0.0320107
0.000859425
-0.0321707
0.000865864
0.000857693
-0.00632294
4.37844e-05
-0.0118005
0.00274921
-0.0160984
0.00377814
-0.0193885
0.00399602
-0.0219573
0.00388015
-0.0239939
0.0035981
-0.0256268
0.00325075
-0.0269497
0.00289338
-0.0280334
0.00255755
-0.0289422
0.00226495
-0.029726
0.00201747
-0.0304151
0.00179694
-0.0310263
0.00158943
-0.0315743
0.001398
-0.0320755
0.0012268
-0.032539
0.00106324
-0.0329606
0.000887751
-0.0333295
0.000704038
-0.0336447
0.000552921
-0.0339244
0.000489332
-0.034197
0.000538999
-0.0344839
0.000677047
-0.0347864
0.000841189
-0.0350875
0.000966572
-0.0353622
0.00102212
-0.0355931
0.00102492
-0.0357811
0.00101736
-0.0359426
0.00102099
-0.0361007
0.00102389
0.00102735
-0.00783215
0.00787593
-0.0141496
0.00906664
-0.0189501
0.00857862
-0.0226066
0.00765259
-0.0253743
0.00664781
-0.0274808
0.00570458
-0.0291199
0.00488984
-0.0304225
0.00419601
-0.0314715
0.00360661
-0.032341
0.00313439
-0.0330944
0.00277086
-0.0337647
0.00246732
-0.0343608
0.00218551
-0.0348932
0.00193039
-0.035383
0.00171656
-0.035844
0.00152422
-0.0362666
0.00131037
-0.0366279
0.00106541
-0.0369208
0.000845798
-0.0371706
0.000739098
-0.0374205
0.00078892
-0.0377019
0.000958453
-0.038016
0.00115532
-0.0383363
0.00128685
-0.0386249
0.00131067
-0.0388563
0.00125637
-0.0390345
0.00119555
-0.0391863
0.00117277
-0.0393389
0.00117652
0.00119214
-0.00939055
0.0172665
-0.0170791
0.0167552
-0.0224258
0.0139254
-0.0261636
0.0113904
-0.0288715
0.00935571
-0.0308509
0.00768396
-0.0323544
0.0063934
-0.0335438
0.00538538
-0.0344871
0.00454989
-0.0352586
0.00390594
-0.0359435
0.00345575
-0.0365773
0.0031011
-0.0371467
0.00275494
-0.0376491
0.00243278
-0.0381147
0.00218215
-0.0385692
0.00197867
-0.0389957
0.00173688
-0.0393492
0.00141897
-0.0396085
0.00110502
-0.0398098
0.000940449
-0.0400223
0.00100137
-0.0402937
0.00122994
-0.040624
0.00148555
-0.0409719
0.00163476
-0.0412804
0.00161921
-0.0415117
0.00148762
-0.0416737
0.00135756
-0.0418092
0.00130831
-0.0419531
0.00132042
0.00134978
-0.0124379
0.0297044
-0.0217173
0.0260346
-0.0270285
0.0192366
-0.0302506
0.0146125
-0.0325866
0.0116917
-0.0341927
0.00929005
-0.0353744
0.00757513
-0.0363545
0.00636541
-0.0371291
0.00532451
-0.0377381
0.0045149
-0.0383126
0.00403033
-0.0389011
0.00368954
-0.0394393
0.00329321
-0.0398932
0.00288664
-0.0403131
0.00260203
-0.040755
0.00242057
-0.0411941
0.00217601
-0.0415451
0.00176995
-0.0417575
0.00131744
-0.0418841
0.00106703
-0.0420388
0.00115603
-0.0422967
0.00148791
-0.0426524
0.00184119
-0.0430418
0.0020242
-0.04338
0.00195743
-0.0436097
0.00171729
-0.0437444
0.00149222
-0.0438533
0.00141723
-0.0439856
0.00145277
0.00149957
-0.0177284
0.0474328
-0.0289344
0.0372406
-0.0334632
0.0237654
-0.0349144
0.0160637
-0.0365558
0.0133331
-0.0374719
0.0102061
-0.0380746
0.00817784
-0.0388086
0.0070994
-0.0394244
0.00594034
-0.0397913
0.00488177
-0.040186
0.00442505
-0.0407325
0.00423599
-0.0412534
0.00381411
-0.0416407
0.003274
-0.0419834
0.00294474
-0.0424112
0.00284831
-0.0428892
0.00265403
-0.0432583
0.00213905
-0.043409
0.00146816
-0.0434177
0.00107576
-0.0434829
0.00122116
-0.043724
0.001729
-0.0441203
0.00223749
-0.044572
0.00247594
-0.0449542
0.00233963
-0.04518
0.00194307
-0.0452688
0.00158103
-0.045334
0.00148248
-0.0454538
0.00157255
0.00164475
0.207447
0.0057603
0.207034
0.0111752
0.206432
0.0163501
0.205647
0.0213682
0.204688
0.0262942
0.203561
0.0311824
0.202271
0.0360802
0.200825
0.0410296
0.199229
0.0460675
0.197488
0.0512268
0.195607
0.056538
0.193592
0.0620294
0.191448
0.0677282
0.189182
0.0736619
0.186796
0.079859
0.184296
0.0863509
0.181684
0.0931734
0.178963
0.10037
0.176133
0.107993
0.173191
0.116113
0.170134
0.124822
0.166957
0.134242
0.163655
0.144547
0.160229
0.155978
0.156703
0.168889
0.15317
0.183809
0.149995
0.201535
0.148857
0.22298
0.160548
0.245626
0.258788
0.236093
0.21249
0.00595273
0.212118
0.0115481
0.211574
0.0168937
0.210868
0.0220741
0.210008
0.0271547
0.209
0.0321899
0.207853
0.0372274
0.206574
0.0423089
0.20517
0.0474711
0.20365
0.0527469
0.202022
0.0581661
0.200295
0.0637563
0.198479
0.0695443
0.196584
0.0755565
0.194623
0.0818207
0.192607
0.0883667
0.190551
0.0952287
0.188474
0.102447
0.186396
0.110071
0.184345
0.118164
0.182363
0.126804
0.180509
0.136096
0.178884
0.146172
0.177658
0.157203
0.177153
0.169393
0.178024
0.182939
0.181686
0.197873
0.190743
0.213923
0.206201
0.230167
0.24568
0.21931
0.217658
0.00612267
0.217329
0.0118771
0.21685
0.0173724
0.21623
0.0226938
0.215478
0.0279071
0.214601
0.0330665
0.213609
0.0382196
0.21251
0.0434075
0.211315
0.0486665
0.210033
0.0540285
0.208677
0.0595223
0.207259
0.0651744
0.205793
0.07101
0.204296
0.0770536
0.202786
0.0833306
0.201285
0.0898676
0.19982
0.0966943
0.198422
0.103845
0.197134
0.111359
0.196012
0.119286
0.195134
0.127682
0.194613
0.136617
0.194619
0.146166
0.195416
0.156407
0.197414
0.167395
0.201224
0.179129
0.207615
0.191482
0.217249
0.204289
0.229845
0.21757
0.228747
0.246779
0.222951
0.00626814
0.22267
0.0121584
0.222262
0.0177806
0.221735
0.0232202
0.2211
0.0285427
0.220364
0.0338021
0.219538
0.0390453
0.218633
0.0443126
0.217661
0.0496393
0.216633
0.0550559
0.215566
0.0605898
0.214475
0.0662656
0.213378
0.0721061
0.212299
0.0781331
0.211262
0.084368
0.210296
0.0908327
0.20944
0.0975505
0.208739
0.104546
0.20825
0.111848
0.208052
0.119485
0.208246
0.127489
0.208972
0.13589
0.210424
0.144714
0.212866
0.153965
0.216643
0.163618
0.222176
0.173597
0.229913
0.183745
0.240425
0.193777
0.254631
0.203365
0.210255
0.273123
0.228374
0.00638727
0.228144
0.0123885
0.227812
0.0181132
0.227385
0.0236465
0.226874
0.0290535
0.226289
0.0343874
0.225641
0.0396939
0.224941
0.0450124
0.224203
0.0503767
0.223444
0.0558156
0.222679
0.0613545
0.221929
0.0670154
0.221217
0.0728182
0.220569
0.078781
0.220017
0.0849205
0.219597
0.0912526
0.219355
0.0977927
0.219346
0.104555
0.219639
0.111554
0.220324
0.1188
0.221512
0.126301
0.223348
0.134054
0.226018
0.142044
0.229752
0.150231
0.23483
0.15854
0.24158
0.166846
0.250382
0.174943
0.261681
0.182478
0.27595
0.189095
0.19371
0.292495
0.233929
0.00647837
0.233754
0.012564
0.233502
0.0183654
0.233181
0.0239669
0.232802
0.0294323
0.232376
0.034814
0.231913
0.0401563
0.231429
0.0454971
0.230937
0.0508683
0.230456
0.0562968
0.230005
0.0618054
0.229607
0.0674134
0.229288
0.0731371
0.229079
0.0789902
0.229015
0.0849843
0.229139
0.0911287
0.229501
0.0974303
0.230163
0.103893
0.231199
0.110518
0.232701
0.117299
0.234779
0.124222
0.237571
0.131262
0.24124
0.138375
0.245978
0.145493
0.252005
0.152513
0.259564
0.159287
0.268897
0.16561
0.280182
0.171193
0.293515
0.175763
0.178806
0.308419
0.23962
0.00653997
0.239502
0.0126821
0.239334
0.0185333
0.239125
0.024176
0.238884
0.0296731
0.238623
0.0350752
0.238354
0.040425
0.238092
0.0457587
0.237854
0.0511061
0.23766
0.0564918
0.237529
0.0619358
0.237489
0.0674541
0.237566
0.0730593
0.237796
0.0787607
0.238216
0.0845643
0.238872
0.0904728
0.239817
0.0964854
0.241114
0.102596
0.242837
0.108795
0.245074
0.115061
0.247928
0.121368
0.251519
0.127671
0.255982
0.133912
0.261466
0.140009
0.268128
0.145851
0.276117
0.151297
0.285554
0.156173
0.296484
0.160263
0.308895
0.163352
0.165172
0.32253
0.245448
0.00657079
0.24539
0.0127404
0.24531
0.0186132
0.245216
0.0242697
0.245119
0.0297707
0.245029
0.0351653
0.244959
0.0404943
0.244926
0.0457917
0.244947
0.0510849
0.245043
0.0563962
0.245236
0.0617424
0.245554
0.0671365
0.246026
0.0725871
0.246688
0.078099
0.247579
0.0836732
0.248746
0.0893062
0.250241
0.0949902
0.252126
0.100712
0.25447
0.10645
0.257354
0.112178
0.260866
0.117855
0.265106
0.123432
0.270176
0.128842
0.276185
0.134
0.283231
0.138805
0.291396
0.143132
0.300727
0.146842
0.311213
0.149778
0.322785
0.151779
0.152715
0.335242
0.251418
0.00656981
0.251422
0.0127369
0.251432
0.0186026
0.251457
0.0242445
0.251507
0.0297216
0.251591
0.0350807
0.251725
0.0403604
0.251924
0.0455926
0.252207
0.0508023
0.252594
0.0560088
0.25311
0.0612265
0.253782
0.0664646
0.254641
0.0717284
0.255721
0.0770184
0.257064
0.0823309
0.258712
0.0876575
0.260718
0.0929846
0.263137
0.0982927
0.266032
0.103555
0.269471
0.108739
0.273527
0.113799
0.278277
0.118682
0.283796
0.123323
0.290154
0.127643
0.297406
0.131553
0.305587
0.134951
0.314698
0.137731
0.324694
0.139782
0.335475
0.140997
0.141319
0.346871
0.257532
0.0065363
0.257599
0.0126703
0.257702
0.0184994
0.257848
0.0240982
0.258047
0.0295232
0.258309
0.0348189
0.258648
0.0400216
0.25908
0.0451606
0.259623
0.0502586
0.2603
0.0553322
0.261133
0.0603928
0.262151
0.0654468
0.263384
0.0704959
0.264865
0.0755372
0.266633
0.0805632
0.268729
0.0855614
0.271199
0.090514
0.274094
0.0953978
0.277467
0.100183
0.281373
0.104833
0.285869
0.109303
0.29101
0.113541
0.296846
0.117487
0.303417
0.121072
0.310746
0.124223
0.318837
0.126861
0.327662
0.128907
0.337156
0.130288
0.347215
0.130938
0.130837
0.357697
0.263794
0.00646977
0.263925
0.0125396
0.264122
0.0183025
0.26439
0.0238296
0.264739
0.0291746
0.265178
0.0343794
0.265722
0.039478
0.266385
0.0444972
0.267187
0.0494571
0.268147
0.0543718
0.26929
0.05925
0.270641
0.0640954
0.27223
0.0689069
0.274089
0.0736787
0.276252
0.0784002
0.278757
0.0830563
0.281644
0.0876267
0.284956
0.092086
0.288736
0.0964034
0.293026
0.100542
0.297868
0.104461
0.303298
0.108111
0.309345
0.11144
0.316027
0.114391
0.323343
0.116906
0.331276
0.118927
0.339783
0.1204
0.348794
0.121277
0.35821
0.121522
0.121136
0.367911
0.270207
0.00637005
0.270402
0.0123446
0.270693
0.0180117
0.271084
0.0234386
0.271582
0.0286761
0.272198
0.0337635
0.272944
0.0387321
0.273835
0.0436063
0.274888
0.0484037
0.276124
0.0531361
0.277564
0.0578099
0.279233
0.0624264
0.281158
0.0669821
0.283368
0.0714691
0.285893
0.075875
0.288766
0.0801829
0.292021
0.0843715
0.295692
0.0884151
0.299812
0.0922835
0.304412
0.0959425
0.309519
0.0993538
0.315154
0.102476
0.321328
0.105265
0.328043
0.107676
0.335285
0.109665
0.343022
0.11119
0.351204
0.112217
0.359763
0.112718
0.36861
0.112676
0.112102
0.377643
0.276774
0.00623725
0.277033
0.0120855
0.277417
0.0176274
0.277929
0.0229262
0.278576
0.0280295
0.279366
0.0329738
0.28031
0.0377879
0.281422
0.0424937
0.282719
0.0471067
0.284219
0.0516363
0.285942
0.056087
0.28791
0.0604582
0.290148
0.0647447
0.29268
0.0689373
0.295532
0.0730224
0.298732
0.0769826
0.302307
0.0807967
0.306282
0.08444
0.310681
0.0878845
0.315524
0.0910993
0.320827
0.0940512
0.326597
0.0967057
0.332835
0.0990275
0.339528
0.100982
0.346654
0.102539
0.354176
0.103669
0.362041
0.104352
0.370185
0.104574
0.378529
0.104331
0.103641
0.38699
0.283498
0.00607174
0.283821
0.0117631
0.284297
0.0171509
0.284929
0.0222945
0.28572
0.0272378
0.28668
0.0320147
0.287816
0.0366514
0.289142
0.0411675
0.290673
0.0455763
0.292423
0.0498856
0.294412
0.054098
0.296659
0.0582115
0.299184
0.0622199
0.302008
0.0661132
0.305153
0.0698776
0.308639
0.073496
0.312488
0.0769483
0.316716
0.0802117
0.321339
0.0832612
0.326369
0.08607
0.331809
0.0886105
0.33766
0.0908549
0.343911
0.0927761
0.350545
0.0943493
0.357531
0.0955529
0.36483
0.09637
0.372392
0.0967897
0.380158
0.0968082
0.38806
0.096429
0.0956724
0.396029
0.290384
0.00587416
0.290768
0.0113786
0.291335
0.0165844
0.292083
0.0215463
0.293016
0.0263051
0.294139
0.0308917
0.29546
0.0353299
0.296991
0.0396371
0.298742
0.0438248
0.300729
0.047899
0.302966
0.0518611
0.305469
0.0557083
0.308255
0.0594337
0.311341
0.0630271
0.314744
0.0664753
0.318478
0.069762
0.322557
0.072869
0.326992
0.0757761
0.331792
0.0784615
0.336959
0.0809032
0.342491
0.0830787
0.348379
0.0849665
0.354608
0.086547
0.361155
0.0878029
0.367987
0.0887208
0.375065
0.0892916
0.382343
0.0895119
0.389767
0.0893841
0.397279
0.0889164
0.0881301
0.404822
0.297435
0.00564538
0.297879
0.0109338
0.298533
0.0159305
0.299394
0.0206856
0.300462
0.0252366
0.301743
0.0296116
0.30324
0.0338321
0.304964
0.0379133
0.306924
0.0418652
0.30913
0.0456924
0.311596
0.0493955
0.314333
0.052971
0.317355
0.056412
0.320673
0.0597086
0.3243
0.0628484
0.328245
0.0658169
0.332517
0.0685978
0.337119
0.0711738
0.342054
0.0735269
0.347318
0.0756392
0.352903
0.0774933
0.358796
0.0790735
0.364977
0.080366
0.37142
0.08136
0.378092
0.082048
0.384957
0.082427
0.391971
0.0824984
0.399086
0.0822685
0.406255
0.0817482
0.0809584
0.413426
0.304654
0.00538645
0.305157
0.0104309
0.305895
0.0151924
0.306864
0.0197168
0.308062
0.0240382
0.309492
0.028182
0.311156
0.0321674
0.313062
0.0360078
0.315216
0.0397117
0.317625
0.0432827
0.3203
0.0467207
0.323249
0.050022
0.326481
0.0531801
0.330004
0.0561858
0.333824
0.0590278
0.337948
0.0616936
0.342376
0.0641691
0.34711
0.06644
0.352145
0.0684919
0.357473
0.0703108
0.363083
0.0718839
0.368956
0.0732002
0.375071
0.0742509
0.381402
0.0750298
0.387915
0.0755345
0.394576
0.0757656
0.401347
0.075728
0.408185
0.0754303
0.415049
0.0748846
0.0741104
0.421897
0.312046
0.0050986
0.312605
0.00987209
0.313424
0.0143738
0.314495
0.018645
0.315817
0.0227165
0.317388
0.0266112
0.319209
0.030346
0.321284
0.0339328
0.323617
0.0373786
0.326214
0.0406865
0.329078
0.0438558
0.332217
0.0468831
0.335635
0.0497621
0.339336
0.0524849
0.343323
0.0550415
0.347595
0.0574213
0.352151
0.0596128
0.356987
0.0616044
0.362094
0.0633848
0.367461
0.0649439
0.373072
0.0662725
0.378909
0.0673636
0.384947
0.0682122
0.391161
0.0688161
0.39752
0.0691757
0.403991
0.0692948
0.410539
0.0691799
0.417128
0.068841
0.423722
0.0682903
0.067546
0.430287
0.319615
0.00478314
0.320227
0.00926011
0.321122
0.0134785
0.322292
0.0174754
0.32373
0.0212784
0.325433
0.0249077
0.327401
0.0283784
0.329633
0.0317006
0.332131
0.0348804
0.334898
0.0379203
0.337934
0.0408194
0.341243
0.0435745
0.344825
0.0461803
0.34868
0.0486296
0.352807
0.0509143
0.357203
0.0530255
0.361862
0.0549541
0.366775
0.056691
0.371932
0.0582281
0.377318
0.0595579
0.382915
0.0606748
0.388704
0.0615746
0.394661
0.0622555
0.40076
0.0627177
0.406971
0.0629641
0.413266
0.063
0.419613
0.0628332
0.42598
0.0624739
0.432336
0.0619339
0.0612298
0.438652
0.327365
0.00444144
0.328027
0.00859761
0.328995
0.0125107
0.330257
0.0162137
0.331804
0.0197309
0.333632
0.0230803
0.335736
0.0262748
0.338113
0.0293233
0.340762
0.0322309
0.343683
0.0349996
0.346874
0.0376286
0.350333
0.0401151
0.354059
0.0424544
0.358048
0.0446407
0.362295
0.0466674
0.366793
0.0485273
0.371534
0.0502134
0.376506
0.051719