/*--------------------------------*- C++ -*----------------------------------*\
  =========                 |
  \\      /  F ield         | OpenFOAM: The Open Source CFD Toolbox
   \\    /   O peration     | Website:  https://openfoam.org
    \\  /    A nd           | Version:  dev
     \\/     M anipulation  |
\*---------------------------------------------------------------------------*/
FoamFile
{
    version     2.0;
    format      ascii;
    class       surfaceVectorField;
    location    "4.8";
    object      Uf;
}
// * * * * * * * * * * * * * * * * * * * * * * * * * * * * * * * * * * * * * //

dimensions      [0 1 -1 0 0 0 0];

internalField   nonuniform List<vector> 
5457
(
(9.92088 0 0.0251096)
(9.97125 0 0.0387459)
(9.82401 0 0.0328269)
(9.92859 0 0.0485853)
(9.70961 0 0.0393122)
(9.85548 0 0.0587684)
(9.57543 0 0.0460117)
(9.7568 0 0.0705936)
(9.42138 0 0.0529491)
(9.63753 0 0.0830137)
(9.24754 0 0.0601664)
(9.49861 0 0.0959369)
(9.05362 0 0.0678111)
(9.3393 0 0.109613)
(8.83892 0 0.0760347)
(9.15874 0 0.124289)
(8.60252 0 0.0849703)
(8.95609 0 0.140168)
(8.34326 0 0.0947449)
(8.73038 0 0.157434)
(8.05984 0 0.105487)
(8.4804 0 0.17627)
(7.7508 0 0.117328)
(8.20477 0 0.196857)
(7.41456 0 0.130396)
(7.90195 0 0.219362)
(7.0495 0 0.14481)
(7.57031 0 0.243923)
(6.65404 0 0.160673)
(7.20819 0 0.270633)
(6.22672 0 0.178045)
(6.814 0 0.299501)
(5.76644 0 0.196928)
(6.38634 0 0.330415)
(5.27259 0 0.217233)
(5.92418 0 0.363085)
(4.74539 0 0.238736)
(5.42712 0 0.396977)
(4.18622 0 0.261033)
(4.89568 0 0.431237)
(3.598 0 0.283488)
(4.33167 0 0.46462)
(2.98559 0 0.305202)
(3.73864 0 0.495425)
(2.35615 0 0.325069)
(3.12231 0 0.521513)
(1.71914 0 0.342548)
(2.49111 0 0.540558)
(1.08438 0 0.361881)
(1.85589 0 0.551675)
(0.45187 0 0.348693)
(1.24551 0 0.563021)
(-0.145818 0 0.102479)
(0.608959 0 0.544893)
(-0.423615 0 -0.207098)
(0.0946733 0 0.259384)
(-0.402155 0 -0.361268)
(-0.133647 0 -0.0205218)
(-0.119682 0 -0.393886)
(9.99641 0 0.0516726)
(9.99705 0 0.0405048)
(9.95879 0 0.0708618)
(9.97851 0 0.0674547)
(9.89824 0 0.0879872)
(9.93377 0 0.0898704)
(9.81658 0 0.105985)
(9.86453 0 0.113555)
(9.71358 0 0.124922)
(9.77438 0 0.138515)
(9.58908 0 0.144854)
(9.66435 0 0.164647)
(9.44274 0 0.166091)
(9.53397 0 0.192332)
(9.2739 0 0.188968)
(9.38249 0 0.222031)
(9.08166 0 0.213783)
(9.20919 0 0.254149)
(8.8649 0 0.240816)
(9.01316 0 0.289065)
(8.6223 0 0.270337)
(8.79331 0 0.327153)
(8.35239 0 0.302607)
(8.54835 0 0.368787)
(8.05356 0 0.337858)
(8.27683 0 0.414317)
(7.72412 0 0.376263)
(7.97717 0 0.464047)
(7.36237 0 0.417903)
(7.64772 0 0.51819)
(6.96673 0 0.462708)
(7.28683 0 0.576807)
(6.53584 0 0.510387)
(6.89296 0 0.639726)
(6.06884 0 0.560334)
(6.46482 0 0.706428)
(5.56561 0 0.611521)
(6.00161 0 0.77591)
(5.02712 0 0.662385)
(5.50328 0 0.846524)
(4.4559 0 0.710708)
(4.97091 0 0.915807)
(3.85652 0 0.75354)
(4.40721 0 0.980307)
(3.23623 0 0.787197)
(3.81707 0 1.03546)
(2.60585 0 0.807503)
(3.20849 0 1.07549)
(1.98283 0 0.810469)
(2.59342 0 1.09315)
(1.40531 0 0.776903)
(1.99624 0 1.07709)
(0.92978 0 0.646411)
(1.41953 0 0.97842)
(0.439886 0 0.384356)
(0.937594 0 0.716808)
(0.0591877 0 -0.118598)
(0.443821 0 0.343542)
(0.174925 0 -0.335916)
(9.98903 0 0.0594311)
(9.99481 0 0.0458777)
(9.95434 0 0.0894769)
(9.97368 0 0.0848546)
(9.89729 0 0.118032)
(9.92984 0 0.119174)
(9.82046 0 0.147899)
(9.86357 0 0.153977)
(9.72416 0 0.179423)
(9.77736 0 0.190409)
(9.60821 0 0.212776)
(9.67226 0 0.228638)
(9.47234 0 0.248393)
(9.5481 0 0.26913)
(9.31607 0 0.286775)
(9.40431 0 0.312497)
(9.13868 0 0.328397)
(9.24034 0 0.359326)
(8.93924 0 0.373722)
(9.05549 0 0.410174)
(8.71664 0 0.423206)
(8.84889 0 0.465598)
(8.4696 0 0.477295)
(8.61951 0 0.526152)
(8.19667 0 0.536397)
(8.36615 0 0.592371)
(7.89632 0 0.600839)
(8.08751 0 0.664735)
(7.56692 0 0.670806)
(7.78219 0 0.743614)
(7.20684 0 0.746252)
(7.44873 0 0.829185)
(6.81457 0 0.826777)
(7.08569 0 0.921313)
(6.38889 0 0.911477)
(6.69171 0 1.0194)
(5.92905 0 0.998753)
(6.26573 0 1.12217)
(5.43516 0 1.08609)
(5.80714 0 1.22742)
(4.90857 0 1.16982)
(5.3161 0 1.33174)
(4.35246 0 1.24489)
(4.794 0 1.43019)
(3.77262 0 1.30455)
(4.24401 0 1.51588)
(3.17876 0 1.33984)
(3.67185 0 1.57943)
(2.58667 0 1.33813)
(3.08636 0 1.60775)
(2.01989 0 1.27298)
(2.50296 0 1.58159)
(1.48698 0 1.09543)
(1.92877 0 1.46426)
(0.95832 0 0.769189)
(1.38528 0 1.21042)
(0.479893 0 0.202479)
(0.829561 0 0.801064)
(0.43374 0 0.13411)
(9.98515 0 0.0716142)
(9.99367 0 0.0531482)
(9.95039 0 0.113631)
(9.97087 0 0.102291)
(9.89436 0 0.154134)
(9.9269 0 0.147954)
(9.81882 0 0.195574)
(9.86185 0 0.193722)
(9.72442 0 0.238812)
(9.77746 0 0.241279)
(9.61112 0 0.284325)
(9.67466 0 0.291165)
(9.47874 0 0.332721)
(9.55343 0 0.343957)
(9.32694 0 0.384675)
(9.41335 0 0.400373)
(9.15522 0 0.440847)
(9.254 0 0.46114)
(8.9629 0 0.501883)
(9.07483 0 0.526961)
(8.74916 0 0.568427)
(8.87519 0 0.598535)
(8.51303 0 0.64111)
(8.65429 0 0.676561)
(8.25346 0 0.720527)
(8.41122 0 0.761718)
(7.96925 0 0.807186)
(8.14499 0 0.854632)
(7.65918 0 0.901432)
(7.85454 0 0.955813)
(7.32192 0 1.00334)
(7.53875 0 1.06556)
(6.95621 0 1.11256)
(7.19646 0 1.18384)
(6.56085 0 1.22813)
(6.82654 0 1.31007)
(6.1349 0 1.34816)
(6.4279 0 1.44291)
(5.67786 0 1.46959)
(5.99968 0 1.57989)
(5.19002 0 1.58776)
(5.54136 0 1.71707)
(4.67289 0 1.69602)
(5.05308 0 1.84853)
(4.12983 0 1.78514)
(4.53599 0 1.96583)
(3.56669 0 1.84253)
(3.99277 0 2.0573)
(2.99209 0 1.85073)
(3.42764 0 2.10714)
(2.41588 0 1.7825)
(2.84767 0 2.09449)
(1.84057 0 1.60047)
(2.25626 0 1.98875)
(1.25941 0 1.27845)
(1.66034 0 1.75307)
(0.666786 0 0.789568)
(1.02398 0 1.36779)
(0.523043 0 0.787186)
(9.98337 0 0.0844078)
(9.99316 0 0.0612917)
(9.94821 0 0.136838)
(9.96958 0 0.119928)
(9.89314 0 0.188033)
(9.92575 0 0.176241)
(9.81906 0 0.24017)
(9.86199 0 0.232699)
(9.72662 0 0.294468)
(9.77963 0 0.291088)
(9.61589 0 0.35166)
(9.67939 0 0.352275)
(9.48671 0 0.412471)
(9.56127 0 0.416978)
(9.33878 0 0.477676)
(9.42496 0 0.486008)
(9.1717 0 0.54805)
(9.27009 0 0.560204)
(8.98492 0 0.624352)
(9.09619 0 0.640385)
(8.77778 0 0.70734)
(8.90274 0 0.727365)
(8.54953 0 0.79776)
(8.68906 0 0.821952)
(8.29935 0 0.89632)
(8.45444 0 0.924936)
(8.02634 0 1.00364)
(8.19807 0 1.03705)
(7.72957 0 1.1202)
(7.91911 0 1.15891)
(7.40805 0 1.24615)
(7.61669 0 1.29091)
(7.06077 0 1.38126)
(7.28985 0 1.43314)
(6.6867 0 1.52457)
(6.93763 0 1.58509)
(6.28486 0 1.67418)
(6.55899 0 1.74549)
(5.8544 0 1.82678)
(6.15288 0 1.91187)
(5.39473 0 1.97724)
(5.71824 0 2.08015)
(4.90578 0 2.11804)
(5.2541 0 2.24408)
(4.38828 0 2.2386)
(4.75976 0 2.39459)
(3.84398 0 2.32454)
(4.23498 0 2.51919)
(3.27547 0 2.35696)
(3.67992 0 2.60124)
(2.68543 0 2.3106)
(3.09576 0 2.61971)
(2.07272 0 2.15503)
(2.48172 0 2.54734)
(1.4294 0 1.86743)
(1.83995 0 2.35375)
(0.742624 0 1.4196)
(1.13138 0 2.02456)
(0.543315 0 1.51454)
(9.98264 0 0.0974981)
(9.99299 0 0.0697931)
(9.94744 0 0.159775)
(9.96925 0 0.137584)
(9.89354 0 0.221348)
(9.92597 0 0.203927)
(9.82133 0 0.284093)
(9.86381 0 0.270689)
(9.73134 0 0.349348)
(9.78385 0 0.339583)
(9.62366 0 0.418019)
(9.68664 0 0.411698)
(9.49818 0 0.490938)
(9.57218 0 0.487903)
(9.35465 0 0.568973)
(9.44021 0 0.569104)
(9.19268 0 0.653003)
(9.29042 0 0.656233)
(9.01183 0 0.743895)
(9.12242 0 0.750212)
(8.8115 0 0.842513)
(8.93571 0 0.851954)
(8.59108 0 0.949704)
(8.72972 0 0.962362)
(8.34984 0 1.06628)
(8.50381 0 1.08232)
(8.08705 0 1.19295)
(8.25727 0 1.21264)
(7.80192 0 1.3303)
(7.98937 0 1.35404)
(7.49359 0 1.47859)
(7.69929 0 1.50702)
(7.16119 0 1.63767)
(7.38617 0 1.67175)
(6.80372 0 1.80674)
(7.04903 0 1.8479)
(6.42012 0 1.98396)
(6.68675 0 2.03434)
(6.00914 0 2.16612)
(6.29802 0 2.22882)
(5.56942 0 2.34809)
(5.88121 0 2.42747)
(5.09948 0 2.5222)
(5.43436 0 2.62424)
(4.59777 0 2.67756)
(4.95514 0 2.81028)
(4.06273 0 2.79949)
(4.44088 0 2.97322)
(3.49273 0 2.86911)
(3.88855 0 3.09663)
(2.88586 0 2.86293)
(3.29527 0 3.15991)
(2.23805 0 2.75395)
(2.65693 0 3.13793)
(1.54246 0 2.52107)
(1.97487 0 3.00323)
(0.79366 0 2.13138)
(1.20726 0 2.74065)
(0.556746 0 2.29188)
(9.9825 0 0.110627)
(9.99302 0 0.0783618)
(9.9477 0 0.182325)
(9.96954 0 0.155038)
(9.89522 0 0.253818)
(9.92722 0 0.230886)
(9.82524 0 0.326767)
(9.86697 0 0.30751)
(9.73813 0 0.402555)
(9.78977 0 0.386523)
(9.63403 0 0.482234)
(9.69605 0 0.469149)
(9.51285 0 0.566757)
(9.58579 0 0.556397)
(9.37437 0 0.657091)
(9.45879 0 0.64927)
(9.21827 0 0.754211)
(9.3148 0 0.748786)
(9.04413 0 0.859082)
(9.15346 0 0.85596)
(8.85144 0 0.972658)
(8.97433 0 0.971797)
(8.63962 0 1.09588)
(8.7769 0 1.09729)
(8.40802 0 1.22964)
(8.56057 0 1.23341)
(8.15594 0 1.37474)
(8.32469 0 1.38107)
(7.88264 0 1.53186)
(8.06852 0 1.54107)
(7.58727 0 1.70137)
(7.79125 0 1.71404)
(7.2689 0 1.88329)
(7.49195 0 1.90029)
(6.92643 0 2.07696)
(7.16954 0 2.09969)
(6.55852 0 2.28084)
(6.82266 0 2.31138)
(6.16348 0 2.49204)
(6.4496 0 2.53348)
(5.73915 0 2.70582)
(6.04811 0 2.76263)
(5.28276 0 2.91498)
(5.61526 0 2.99345)
(4.79086 0 3.10915)
(5.14727 0 3.21784)
(4.25933 0 3.2742)
(4.63942 0 3.42427)
(3.68343 0 3.39187)
(4.0861 0 3.59715)
(3.05809 0 3.4397)
(3.48136 0 3.71655)
(2.37777 0 3.39183)
(2.81841 0 3.75815)
(1.63794 0 3.22622)
(2.09919 0 3.69402)
(0.839145 0 2.9009)
(1.27894 0 3.50453)
(0.573371 0 3.11377)
(9.98273 0 0.123582)
(9.99316 0 0.0868178)
(9.94873 0 0.20431)
(9.97027 0 0.172094)
(9.89794 0 0.285253)
(9.92926 0 0.256976)
(9.83051 0 0.367966)
(9.87123 0 0.342989)
(9.7467 0 0.453852)
(9.79715 0 0.431679)
(9.64668 0 0.544077)
(9.70734 0 0.524351)
(9.53038 0 0.639707)
(9.6018 0 0.622135)
(9.39762 0 0.741799)
(9.48038 0 0.726125)
(9.24812 0 0.851412)
(9.34285 0 0.837423)
(9.08152 0 0.969603)
(9.18893 0 0.95713)
(8.89736 0 1.09742)
(9.01823 0 1.08634)
(8.69509 0 1.23588)
(8.83029 0 1.22613)
(8.47412 0 1.38597)
(8.62454 0 1.37757)
(8.23376 0 1.54862)
(8.40036 0 1.54167)
(7.97322 0 1.72459)
(8.15701 0 1.71937)
(7.69161 0 1.91443)
(7.89363 0 1.91142)
(7.38785 0 2.11834)
(7.6092 0 2.11834)
(7.06062 0 2.33595)
(7.30242 0 2.34027)
(6.70821 0 2.5661)
(6.97165 0 2.57674)
(6.32838 0 2.80647)
(6.61473 0 2.82641)
(5.91812 0 3.05303)
(6.22873 0 3.08668)
(5.47348 0 3.29951)
(5.80977 0 3.35315)
(4.98934 0 3.53665)
(5.35269 0 3.61897)
(4.45938 0 3.75141)
(4.85092 0 3.87398)
(3.87627 0 3.92647)
(4.29647 0 4.10394)
(3.23238 0 4.03988)
(3.68061 0 4.2897)
(2.52088 0 4.06502)
(2.99357 0 4.4068)
(1.73841 0 3.97619)
(2.23742 0 4.42463)
(0.889491 0 3.71882)
(1.36339 0 4.31636)
(0.598767 0 3.98497)
(9.98321 0 0.136204)
(9.99339 0 0.0950408)
(9.95032 0 0.225573)
(9.97131 0 0.18859)
(9.90151 0 0.315497)
(9.93193 0 0.28205)
(9.83694 0 0.407504)
(9.87643 0 0.376961)
(9.75684 0 0.503013)
(9.80579 0 0.474841)
(9.66135 0 0.603277)
(9.7203 0 0.57705)
(9.55046 0 0.709458)
(9.61995 0 0.684815)
(9.42403 0 0.8227)
(9.50464 0 0.799315)
(9.28183 0 0.944143)
(9.37422 0 0.921732)
(9.12355 0 1.07493)
(9.22843 0 1.05325)
(8.94879 0 1.21618)
(9.06695 0 1.19503)
(8.75704 0 1.36904)
(8.88937 0 1.34827)
(8.54776 0 1.53457)
(8.69519 0 1.51411)
(8.32024 0 1.71383)
(8.48381 0 1.69369)
(8.07369 0 1.90773)
(8.2545 0 1.88809)
(7.80713 0 2.11701)
(8.00635 0 2.09825)
(7.51933 0 2.34214)
(7.73825 0 2.32495)
(7.20869 0 2.58313)
(7.44873 0 2.56866)
(6.87312 0 2.83937)
(7.13586 0 2.82942)
(6.50979 0 3.10924)
(6.79703 0 3.10661)
(6.11491 0 3.38978)
(6.4287 0 3.39859)
(5.68336 0 3.676)
(6.02608 0 3.70227)
(5.20843 0 3.96019)
(5.58273 0 4.01246)
(4.68171 0 4.23098)
(5.09027 0 4.32095)
(4.09324 0 4.47232)
(4.53823 0 4.61538)
(3.43248 0 4.66256)
(3.91466 0 4.87787)
(2.6901 0 4.77318)
(3.20565 0 5.0836)
(1.86183 0 4.77244)
(2.41125 0 5.198)
(0.954169 0 4.58978)
(1.47626 0 5.18436)
(0.639184 0 4.91952)
(9.98386 0 0.14837)
(9.99368 0 0.102944)
(9.95235 0 0.245972)
(9.9726 0 0.204395)
(9.90578 0 0.344401)
(9.9351 0 0.305971)
(9.84437 0 0.4452)
(9.88241 0 0.409272)
(9.76833 0 0.549812)
(9.81552 0 0.515818)
(9.6778 0 0.65956)
(9.73471 0 0.627012)
(9.57281 0 0.775688)
(9.63998 0 0.744158)
(9.45327 0 0.899417)
(9.53129 0 0.868516)
(9.31901 0 1.03196)
(9.40853 0 1.00134)
(9.16977 0 1.17455)
(9.27151 0 1.14387)
(9.00522 0 1.32839)
(9.11998 0 1.29738)
(8.82491 0 1.4947)
(8.9536 0 1.46312)
(8.62834 0 1.67469)
(8.77193 0 1.64236)
(8.41484 0 1.86953)
(8.57442 0 1.83635)
(8.1836 0 2.08031)
(8.36037 0 2.04633)
(7.9336 0 2.30803)
(8.12889 0 2.27348)
(7.66347 0 2.55348)
(7.8788 0 2.51885)
(7.37144 0 2.81715)
(7.60854 0 2.78337)
(7.05506 0 3.09909)
(7.31598 0 3.06766)
(6.71103 0 3.39862)
(6.99821 0 3.37193)
(6.33482 0 3.71405)
(6.6512 0 3.69574)
(5.92027 0 4.04207)
(6.26942 0 4.03763)
(5.45919 0 4.37704)
(5.84532 0 4.39449)
(4.94098 0 4.70987)
(5.36881 0 4.7607)
(4.35263 0 5.02653)
(4.82671 0 5.12672)
(3.6795 0 5.30618)
(4.20309 0 5.47705)
(2.90743 0 5.51819)
(3.47781 0 5.78747)
(2.02759 0 5.62303)
(2.64495 0 6.01952)
(1.04507 0 5.52949)
(1.63766 0 6.12396)
(0.704443 0 5.9431)
(9.98465 0 0.159982)
(9.99402 0 0.110463)
(9.95473 0 0.265383)
(9.97409 0 0.219402)
(9.91065 0 0.371823)
(9.93868 0 0.328614)
(9.85266 0 0.480886)
(9.88905 0 0.439779)
(9.781 0 0.594047)
(9.82618 0 0.554436)
(9.69581 0 0.712683)
(9.75038 0 0.674027)
(9.59716 0 0.838109)
(9.66166 0 0.799919)
(9.48501 0 0.971616)
(9.56002 0 0.933436)
(9.35927 0 1.11449)
(9.44542 0 1.07589)
(9.21972 0 1.26802)
(9.31775 0 1.22861)
(9.06612 0 1.43351)
(9.17683 0 1.39291)
(8.8981 0 1.61227)
(9.02239 0 1.57014)
(8.7152 0 1.80562)
(8.85409 0 1.76168)
(8.51684 0 2.01488)
(8.67144 0 1.96889)
(8.30225 0 2.24134)
(8.47383 0 2.19319)
(8.07039 0 2.48628)
(8.26043 0 2.43599)
(7.81988 0 2.75087)
(8.03011 0 2.69868)
(7.54883 0 3.03615)
(7.78129 0 2.98265)
(7.25464 0 3.34294)
(7.51182 0 3.28918)
(6.93369 0 3.67167)
(7.21868 0 3.61945)
(6.58095 0 4.02214)
(6.89764 0 3.97436)
(6.18949 0 4.39311)
(6.54275 0 4.35431)
(5.7498 0 4.7816)
(6.14573 0 4.75879)
(5.24914 0 5.18173)
(5.6951 0 5.18555)
(4.67096 0 5.58282)
(5.17509 0 5.62923)
(3.99491 0 5.96657)
(4.56509 0 6.07883)
(3.1984 0 6.30174)
(3.83631 0 6.51362)
(2.26174 0 6.54071)
(2.97079 0 6.89409)
(1.18058 0 6.56513)
(1.87909 0 7.15787)
(0.812776 0 7.09941)
(9.98553 0 0.170964)
(9.9944 0 0.117547)
(9.95738 0 0.283701)
(9.97572 0 0.233521)
(9.916 0 0.397637)
(9.94258 0 0.349871)
(9.86169 0 0.514414)
(9.89623 0 0.468354)
(9.79468 0 0.635537)
(9.83764 0 0.590543)
(9.71517 0 0.762431)
(9.76713 0 0.717912)
(9.62324 0 0.896469)
(9.68475 0 0.851877)
(9.51894 0 1.039)
(9.59055 0 0.99382)
(9.4022 0 1.19137)
(9.48455 0 1.14511)
(9.27293 0 1.35494)
(9.36673 0 1.30711)
(9.13093 0 1.53108)
(9.23698 0 1.48123)
(8.97595 0 1.72118)
(9.09513 0 1.66887)
(8.80762 0 1.92669)
(8.94095 0 1.87149)
(8.62545 0 2.14906)
(8.77407 0 2.09061)
(8.42875 0 2.38981)
(8.59399 0 2.32779)
(8.2166 0 2.65049)
(8.40001 0 2.58468)
(7.98768 0 2.93268)
(8.19112 0 2.86301)
(7.74017 0 3.23801)
(7.96593 0 3.16462)
(7.47148 0 3.56813)
(7.72242 0 3.4915)
(7.178 0 3.92465)
(7.45775 0 3.84579)
(6.85457 0 4.30909)
(7.16784 0 4.22983)
(6.49392 0 4.7226)
(6.84689 0 4.64606)
(6.08579 0 5.16549)
(6.48654 0 5.09694)
(5.61574 0 5.63628)
(6.07477 0 5.58443)
(5.06366 0 6.1298)
(5.59411 0 6.10904)
(4.40227 0 6.63377)
(5.01967 0 6.66756)
(3.59616 0 7.12121)
(4.3126 0 7.24853)
(2.60432 0 7.54063)
(3.43568 0 7.8202)
(1.39428 0 7.74043)
(2.25643 0 8.31504)
(1.00258 0 8.46502)
(9.9865 0 0.181254)
(9.9948 0 0.124157)
(9.96026 0 0.300834)
(9.97747 0 0.246682)
(9.92176 0 0.421736)
(9.94676 0 0.369649)
(9.87133 0 0.545653)
(9.90387 0 0.494888)
(9.80923 0 0.674125)
(9.84977 0 0.624007)
(9.73567 0 0.808616)
(9.78478 0 0.758509)
(9.6508 0 0.950545)
(9.70902 0 0.899848)
(9.55471 0 1.10131)
(9.62258 0 1.04945)
(9.44742 0 1.26231)
(9.52555 0 1.20872)
(9.3289 0 1.43495)
(9.41798 0 1.37908)
(9.19907 0 1.62066)
(9.29987 0 1.56197)
(9.05778 0 1.82093)
(9.17117 0 1.75887)
(8.90479 0 2.03728)
(9.03175 0 1.9713)
(8.73973 0 2.27133)
(8.8814 0 2.2009)
(8.56209 0 2.52476)
(8.71979 0 2.44936)
(8.37109 0 2.79941)
(8.5464 0 2.71855)
(8.16564 0 3.09726)
(8.36049 0 3.0105)
(7.94414 0 3.42049)
(8.16092 0 3.32747)
(7.7043 0 3.77158)
(7.94608 0 3.67209)
(7.44285 0 4.15335)
(7.7136 0 4.04743)
(7.15504 0 4.56905)
(7.46002 0 4.45716)
(6.83399 0 5.02242)
(7.18033 0 4.90579)
(6.46963 0 5.51759)
(6.86714 0 5.39882)
(6.04711 0 6.05868)
(6.5094 0 5.94298)
(5.54416 0 6.64872)
(6.09015 0 6.54615)
(4.92717 0 7.28699)
(5.58323 0 7.21676)
(4.14507 0 7.96143)
(4.9426 0 7.96155)
(3.12179 0 8.63357)
(4.10935 0 8.77565)
(1.75624 0 9.12782)
(2.87844 0 9.62092)
(1.3647 0 10.1851)
(9.98754 0 0.1908)
(9.99523 0 0.130261)
(9.96332 0 0.316709)
(9.97932 0 0.258826)
(9.92785 0 0.444024)
(9.95115 0 0.38787)
(9.88147 0 0.574492)
(9.91187 0 0.519288)
(9.82448 0 0.709682)
(9.86243 0 0.654717)
(9.75712 0 0.851088)
(9.80317 0 0.795686)
(9.67957 0 1.00017)
(9.73425 0 0.943678)
(9.592 0 1.15835)
(9.65582 0 1.10015)
(9.4945 0 1.32707)
(9.56804 0 1.26653)
(9.38714 0 1.50778)
(9.47106 0 1.44428)
(9.26994 0 1.70195)
(9.36498 0 1.63486)
(9.14288 0 1.91113)
(9.24985 0 1.8398)
(9.00585 0 2.13693)
(9.1257 0 2.0607)
(8.85869 0 2.38107)
(8.99249 0 2.29923)
(8.70106 0 2.6454)
(8.85009 0 2.55724)
(8.53245 0 2.93199)
(8.69825 0 2.83672)
(8.3521 0 3.24315)
(8.53655 0 3.13996)
(8.15883 0 3.58156)
(8.36429 0 3.46957)
(7.95091 0 3.9504)
(8.18042 0 3.82866)
(7.72578 0 4.35357)
(7.98333 0 4.22105)
(7.4797 0 4.79593)
(7.77068 0 4.65153)
(7.20711 0 5.28365)
(7.53896 0 5.12631)
(6.89963 0 5.82472)
(7.28295 0 5.65359)
(6.54428 0 6.4295)
(6.99466 0 6.24452)
(6.12033 0 7.11141)
(6.66135 0 6.91462)
(5.59303 0 7.88759)
(6.26247 0 7.68613)
(4.90088 0 8.77788)
(5.75756 0 8.59256)
(3.92686 0 9.80153)
(5.08733 0 9.68512)
(2.43319 0 10.8567)
(3.97948 0 11.0493)
(2.1462 0 12.5683)
(9.98861 0 0.199564)
(9.99567 0 0.135837)
(9.96652 0 0.331264)
(9.98124 0 0.269908)
(9.9342 0 0.464422)
(9.9557 0 0.404475)
(9.89202 0 0.600825)
(9.92016 0 0.541479)
(9.8403 0 0.74207)
(9.87552 0 0.682587)
(9.77931 0 0.889673)
(9.82215 0 0.829342)
(9.70931 0 1.04511)
(9.76027 0 0.983247)
(9.6305 0 1.20985)
(9.69009 0 1.14577)
(9.54306 0 1.38534)
(9.61184 0 1.31837)
(9.44716 0 1.57305)
(9.52575 0 1.50251)
(9.34293 0 1.7745)
(9.43204 0 1.69968)
(9.2305 0 1.99127)
(9.3309 0 1.91143)
(9.10992 0 2.22501)
(9.2225 0 2.13936)
(8.98122 0 2.47752)
(9.10701 0 2.38523)
(8.84434 0 2.75078)
(8.98453 0 2.65091)
(8.69909 0 3.04701)
(8.85512 0 2.93853)
(8.54512 0 3.36877)
(8.71875 0 3.25049)
(8.38183 0 3.71908)
(8.57525 0 3.58962)
(8.20825 0 4.10166)
(8.4243 0 3.95936)
(8.02294 0 4.52117)
(8.26531 0 4.36396)
(7.82371 0 4.98365)
(8.09738 0 4.8089)
(7.60726 0 5.49714)
(7.91916 0 5.30141)
(7.36857 0 6.0727)
(7.72865 0 5.85135)
(7.09973 0 6.72598)
(7.523 0 6.47266)
(6.78756 0 7.48019)
(7.29795 0 7.18592)
(6.40853 0 8.37205)
(7.04805 0 8.02352)
(5.9156 0 9.46602)
(6.76308 0 9.04194)
(5.19616 0 10.9084)
(6.46208 0 10.3569)
(3.88452 0 13.1789)
(6.19001 0 12.3037)
(5.25929 0 16.373)
(0.184806 0 -0.111502)
(0.107717 0 -0.181006)
(0.362421 0 -0.0957632)
(0.26329 0 -0.169854)
(0.509988 0 -0.0743751)
(0.419125 0 -0.137786)
(0.627382 0 -0.0555437)
(0.551627 0 -0.107024)
(0.719473 0 -0.0405729)
(0.657287 0 -0.0819738)
(0.79142 0 -0.0290857)
(0.740822 0 -0.0625298)
(0.84769 0 -0.0204374)
(0.80771 0 -0.0477499)
(0.891965 0 -0.0140337)
(0.862237 0 -0.0366831)
(0.927212 0 -0.0093789)
(0.907519 0 -0.0285144)
(0.955805 0 -0.00607417)
(0.945896 0 -0.0225843)
(0.97963 0 -0.00380314)
(0.979202 0 -0.018374)
(1.00018 0 -0.00231148)
(1.00889 0 -0.0154752)
(1.01862 0 -0.00138547)
(1.0361 0 -0.0135534)
(1.03577 0 -0.000834498)
(1.06169 0 -0.0123163)
(1.05217 0 -0.000480215)
(1.08628 0 -0.0114917)
(1.06798 0 -0.000154516)
(1.11022 0 -0.0108179)
(1.08302 0 0.00029003)
(1.13358 0 -0.0100515)
(1.09681 0 0.000956322)
(1.1562 0 -0.00899685)
(1.10866 0 0.00187466)
(1.17765 0 -0.00755101)
(1.1179 0 0.00299181)
(1.1974 0 -0.0057425)
(1.12403 0 0.00419433)
(1.21495 0 -0.00372571)
(1.12693 0 0.00534457)
(1.23001 0 -0.00171902)
(1.1269 0 0.00627568)
(1.24253 0 1.60609e-05)
(1.12379 0 0.00703404)
(1.25257 0 0.00175777)
(1.11754 0 0.00780113)
(1.25999 0 0.0034537)
(1.10768 0 0.00853716)
(1.2645 0 0.00531028)
(1.09418 0 0.00903247)
(1.26548 0 0.00710115)
(1.07774 0 0.00893909)
(1.26262 0 0.00844549)
(1.06075 0 0.00753686)
(1.25726 0 0.00852588)
(1.25131 0 0.00590561)
(0.169686 0 -0.264093)
(0.0891423 0 -0.347203)
(0.333677 0 -0.233189)
(0.231467 0 -0.32668)
(0.472299 0 -0.187072)
(0.365583 0 -0.267219)
(0.585852 0 -0.145934)
(0.480235 0 -0.210547)
(0.678932 0 -0.113168)
(0.573045 0 -0.164827)
(0.75604 0 -0.0880095)
(0.648569 0 -0.129546)
(0.820909 0 -0.0690231)
(0.711302 0 -0.102797)
(0.876461 0 -0.0548697)
(0.764611 0 -0.0827103)
(0.924964 0 -0.0444483)
(0.81085 0 -0.0677515)
(0.968183 0 -0.0368882)
(0.851744 0 -0.0567217)
(1.0075 0 -0.0315099)
(0.888635 0 -0.0486949)
(1.04399 0 -0.0277763)
(0.922577 0 -0.0429531)
(1.0785 0 -0.0252446)
(0.954398 0 -0.0389223)
(1.11165 0 -0.0235259)
(0.984735 0 -0.0361171)
(1.14391 0 -0.0222599)
(1.01407 0 -0.0341004)
(1.17553 0 -0.0211052)
(1.04273 0 -0.0324594)
(1.20659 0 -0.0197563)
(1.0709 0 -0.0308048)
(1.23695 0 -0.0179888)
(1.0986 0 -0.0288055)
(1.26633 0 -0.0157195)
(1.12567 0 -0.02626)
(1.29435 0 -0.0130383)
(1.15183 0 -0.0231708)
(1.32074 0 -0.0101669)
(1.17673 0 -0.0197548)
(1.34539 0 -0.00734395)
(1.20016 0 -0.0163303)
(1.36803 0 -0.00469944)
(1.22209 0 -0.0130913)
(1.38866 0 -0.00209299)
(1.24255 0 -0.0099036)
(1.40692 0 0.000750924)
(1.26176 0 -0.00662638)
(1.42222 0 0.00384424)
(1.27964 0 -0.00293167)
(1.43375 0 0.00662788)
(1.29586 0 0.00103556)
(1.44169 0 0.0081702)
(1.30982 0 0.00436392)
(1.44798 0 0.00749706)
(1.32089 0 0.00537389)
(1.33073 0 0.00400039)
(0.141901 0 -0.416465)
(0.0688829 0 -0.486187)
(0.273733 0 -0.367857)
(0.185863 0 -0.452752)
(0.382565 0 -0.297374)
(0.284745 0 -0.368838)
(0.470735 0 -0.235142)
(0.368735 0 -0.290929)
(0.542897 0 -0.185834)
(0.435154 0 -0.229061)
(0.602896 0 -0.147998)
(0.489045 0 -0.181691)
(0.653779 0 -0.119358)
(0.53378 0 -0.145975)
(0.697742 0 -0.0978362)
(0.571829 0 -0.119136)
(0.736422 0 -0.0817777)
(0.604763 0 -0.0990425)
(0.771085 0 -0.0699049)
(0.633721 0 -0.0841012)
(0.802726 0 -0.0612303)
(0.659615 0 -0.0730965)
(0.832128 0 -0.0549802)
(0.683167 0 -0.0650928)
(0.859909 0 -0.0505248)
(0.704952 0 -0.0593477)
(0.886552 0 -0.0473224)
(0.725428 0 -0.0552428)
(0.912422 0 -0.0448794)
(0.744958 0 -0.0522326)
(0.937771 0 -0.0427303)
(0.763832 0 -0.0498066)
(0.962717 0 -0.0404499)
(0.782271 0 -0.0474731)
(0.987221 0 -0.037711)
(0.800399 0 -0.0447919)
(1.01109 0 -0.034371)
(0.818203 0 -0.041464)
(1.03404 0 -0.0305336)
(0.835506 0 -0.0374465)
(1.05586 0 -0.0265037)
(0.851991 0 -0.033001)
(1.07651 0 -0.0225933)
(0.86736 0 -0.028573)
(1.09622 0 -0.0188581)
(0.881559 0 -0.0245035)
(1.11544 0 -0.0150876)
(0.894949 0 -0.0207656)
(1.13438 0 -0.010963)
(0.908067 0 -0.0170791)
(1.15318 0 -0.00636107)
(0.921228 0 -0.0130622)
(1.17156 0 -0.00187498)
(0.93466 0 -0.00863743)
(1.18844 0 0.0012718)
(0.947824 0 -0.00430884)
(1.20197 0 0.00216895)
(0.958783 0 -0.0014099)
(0.965728 0 -0.00014095)
(0.111244 0 -0.5322)
(0.0484707 0 -0.595143)
(0.205351 0 -0.463835)
(0.134368 0 -0.542746)
(0.278375 0 -0.372352)
(0.192033 0 -0.437022)
(0.335607 0 -0.293959)
(0.241806 0 -0.343106)
(0.381592 0 -0.232862)
(0.277457 0 -0.269993)
(0.419234 0 -0.186387)
(0.305499 0 -0.214406)
(0.450841 0 -0.15135)
(0.327704 0 -0.172797)
(0.477764 0 -0.124975)
(0.345755 0 -0.141442)
(0.50097 0 -0.105194)
(0.360427 0 -0.117816)
(0.521223 0 -0.0904547)
(0.372351 0 -0.100098)
(0.539132 0 -0.0795737)
(0.382073 0 -0.0869085)
(0.555194 0 -0.0716275)
(0.390026 0 -0.0771872)
(0.569812 0 -0.0658697)
(0.396566 0 -0.0700949)
(0.583323 0 -0.0616678)
(0.401993 0 -0.0649419)
(0.596024 0 -0.0584548)
(0.406579 0 -0.0611343)
(0.608175 0 -0.0556945)
(0.410598 0 -0.0581223)
(0.619981 0 -0.0528809)
(0.414333 0 -0.0553617)
(0.631535 0 -0.0495949)
(0.41805 0 -0.0523293)
(0.642765 0 -0.0456139)
(0.421911 0 -0.0486175)
(0.653434 0 -0.0410148)
(0.425887 0 -0.0440822)
(0.663242 0 -0.0361668)
(0.429606 0 -0.038957)
(0.672027 0 -0.0315476)
(0.432532 0 -0.0337819)
(0.679937 0 -0.0274491)
(0.434043 0 -0.0290827)
(0.68743 0 -0.0238039)
(0.434128 0 -0.0250007)
(0.69498 0 -0.02022)
(0.433215 0 -0.0212457)
(0.702773 0 -0.0162697)
(0.43161 0 -0.0172612)
(0.710427 0 -0.0119271)
(0.430852 0 -0.0126646)
(0.717087 0 -0.00778986)
(0.430219 0 -0.00773017)
(0.720494 0 -0.00422977)
(0.427836 0 -0.0031186)
(0.421713 0 -0.000997811)
(0.0756306 0 -0.613429)
(0.0268467 0 -0.669219)
(0.128048 0 -0.523949)
(0.0764279 0 -0.592873)
(0.162121 0 -0.415414)
(0.0888206 0 -0.468836)
(0.185361 0 -0.325891)
(0.102631 0 -0.364293)
(0.201977 0 -0.257299)
(0.104642 0 -0.284784)
(0.213568 0 -0.205613)
(0.103579 0 -0.22448)
(0.22189 0 -0.166775)
(0.0996093 0 -0.179859)
(0.22746 0 -0.137374)
(0.0937804 0 -0.146057)
(0.230745 0 -0.115138)
(0.0862725 0 -0.120473)
(0.23215 0 -0.0984056)
(0.0774912 0 -0.101208)
(0.232003 0 -0.0859094)
(0.0677774 0 -0.0867953)
(0.23058 0 -0.0766625)
(0.0573738 0 -0.0761155)
(0.22812 0 -0.069873)
(0.0464924 0 -0.0682863)
(0.224854 0 -0.0648831)
(0.0353311 0 -0.0625974)
(0.221032 0 -0.0611138)
(0.0240859 0 -0.0584559)
(0.216941 0 -0.0580117)
(0.0129858 0 -0.0553225)
(0.212879 0 -0.0550208)
(0.00231357 0 -0.0526477)
(0.209087 0 -0.051621)
(-0.00762157 0 -0.0498552)
(0.205639 0 -0.0474464)
(-0.0165935 0 -0.046421)
(0.202344 0 -0.0424369)
(-0.0245595 0 -0.0420331)
(0.198699 0 -0.0368995)
(-0.0318388 0 -0.0367438)
(0.194002 0 -0.0313569)
(-0.0390257 0 -0.0309966)
(0.187678 0 -0.0262352)
(-0.0470133 0 -0.0254219)
(0.17958 0 -0.021613)
(-0.0562702 0 -0.0204233)
(0.170036 0 -0.0172057)
(-0.0668148 0 -0.0159786)
(0.159949 0 -0.0126165)
(-0.0785608 0 -0.0118258)
(0.149792 0 -0.00749232)
(-0.0898635 0 -0.00732077)
(0.138599 0 -0.00206978)
(-0.101456 0 -0.00198042)
(0.127784 0 0.000801608)
(-0.111456 0 0.00230577)
(-0.1223 0 0.00214412)
(0.0346521 0 -0.65528)
(0.00275475 0 -0.703159)
(0.0419514 0 -0.54407)
(0.0109052 0 -0.599854)
(0.0351298 0 -0.422418)
(-0.0233062 0 -0.462467)
(0.0230168 0 -0.325978)
(-0.0475285 0 -0.35325)
(0.0070623 0 -0.252908)
(-0.0806774 0 -0.270582)
(-0.0103194 0 -0.198521)
(-0.113313 0 -0.209373)
(-0.0289266 0 -0.158268)
(-0.145656 0 -0.164069)
(-0.0482887 0 -0.127925)
(-0.17708 0 -0.130015)
(-0.0680767 0 -0.105093)
(-0.207486 0 -0.104465)
(-0.0880072 0 -0.0880193)
(-0.236579 0 -0.0854652)
(-0.107883 0 -0.0753559)
(-0.264193 0 -0.0714672)
(-0.127549 0 -0.0660763)
(-0.290303 0 -0.0613069)
(-0.146866 0 -0.0593691)
(-0.314935 0 -0.054084)
(-0.165695 0 -0.0545739)
(-0.338138 0 -0.0490812)
(-0.183871 0 -0.0511287)
(-0.359966 0 -0.0457164)
(-0.201184 0 -0.0485002)
(-0.380421 0 -0.0434748)
(-0.217396 0 -0.0461254)
(-0.39942 0 -0.0418151)
(-0.232321 0 -0.043431)
(-0.416842 0 -0.0401183)
(-0.2459 0 -0.0399608)
(-0.432624 0 -0.0377709)
(-0.25825 0 -0.0355485)
(-0.446865 0 -0.0343523)
(-0.269662 0 -0.0304082)
(-0.459876 0 -0.029814)
(-0.280594 0 -0.0250312)
(-0.472173 0 -0.0245146)
(-0.291587 0 -0.0199054)
(-0.484369 0 -0.0190583)
(-0.303053 0 -0.0152274)
(-0.496941 0 -0.013942)
(-0.315144 0 -0.0107668)
(-0.510094 0 -0.00930592)
(-0.328176 0 -0.00606373)
(-0.52387 0 -0.00480343)
(-0.342077 0 -0.00117842)
(-0.536954 0 -6.94218e-06)
(-0.354014 0 0.00271029)
(-0.548706 0 0.00415158)
(-0.361552 0 0.00390899)
(-0.557431 0 0.00608624)
(-0.564349 0 0.0052428)
(-0.0133093 0 -0.651398)
(-0.0262204 0 -0.690123)
(-0.0520522 0 -0.519827)
(-0.063481 0 -0.562804)
(-0.0996017 0 -0.391109)
(-0.143403 0 -0.418069)
(-0.149774 0 -0.293426)
(-0.207373 0 -0.30751)
(-0.199897 0 -0.221674)
(-0.275168 0 -0.225967)
(-0.248111 0 -0.169298)
(-0.338866 0 -0.167469)
(-0.293887 0 -0.130528)
(-0.397726 0 -0.125224)
(-0.336848 0 -0.101785)
(-0.451243 0 -0.0944201)
(-0.376757 0 -0.0806871)
(-0.499573 0 -0.0721801)
(-0.413549 0 -0.0654057)
(-0.543091 0 -0.0564048)
(-0.447306 0 -0.054515)
(-0.582209 0 -0.0454333)
(-0.478215 0 -0.0469427)
(-0.617423 0 -0.0380323)
(-0.506522 0 -0.0418631)
(-0.649227 0 -0.0332721)
(-0.532492 0 -0.0386247)
(-0.678091 0 -0.0304392)
(-0.556351 0 -0.0366907)
(-0.704438 0 -0.0289936)
(-0.578242 0 -0.0355543)
(-0.728575 0 -0.028494)
(-0.598226 0 -0.0346485)
(-0.75065 0 -0.028462)
(-0.61638 0 -0.033348)
(-0.770722 0 -0.0282746)
(-0.632882 0 -0.031105)
(-0.788904 0 -0.0272594)
(-0.64805 0 -0.0276384)
(-0.805477 0 -0.0249189)
(-0.662312 0 -0.0230518)
(-0.820896 0 -0.0211534)
(-0.676145 0 -0.0177922)
(-0.835713 0 -0.0163126)
(-0.68996 0 -0.0124259)
(-0.850425 0 -0.0110607)
(-0.704058 0 -0.00734993)
(-0.865378 0 -0.00597355)
(-0.718578 0 -0.00270862)
(-0.880026 0 -0.00129223)
(-0.732491 0 0.00150635)
(-0.893651 0 0.00269368)
(-0.744018 0 0.00504603)
(-0.90567 0 0.00605733)
(-0.753015 0 0.00709795)
(-0.915353 0 0.00877345)
(-0.760407 0 0.00704931)
(-0.923766 0 0.00979381)
(-0.928701 0 0.00867722)
(-0.0643581 0 -0.598741)
(-0.0624138 0 -0.627088)
(-0.1531 0 -0.454804)
(-0.148238 0 -0.477939)
(-0.242851 0 -0.326565)
(-0.275962 0 -0.334267)
(-0.330374 0 -0.23179)
(-0.379824 0 -0.227717)
(-0.412668 0 -0.164427)
(-0.479048 0 -0.152714)
(-0.487843 0 -0.117606)
(-0.569297 0 -0.102134)
(-0.554929 0 -0.0847695)
(-0.649833 0 -0.0682955)
(-0.614168 0 -0.0615051)
(-0.720118 0 -0.0453385)
(-0.666242 0 -0.0452716)
(-0.779548 0 -0.0300532)
(-0.71207 0 -0.0343115)
(-0.830264 0 -0.0202071)
(-0.75258 0 -0.027223)
(-0.873931 0 -0.014191)
(-0.788604 0 -0.022955)
(-0.912002 0 -0.0109067)
(-0.820858 0 -0.0207092)
(-0.945641 0 -0.00955831)
(-0.849972 0 -0.0198796)
(-0.97579 0 -0.00953947)
(-0.876463 0 -0.0200137)
(-1.00321 0 -0.0104264)
(-0.900666 0 -0.0207139)
(-1.02844 0 -0.0119309)
(-0.922726 0 -0.021486)
(-1.05173 0 -0.0137223)
(-0.942769 0 -0.0216964)
(-1.07318 0 -0.0151985)
(-0.961045 0 -0.0207234)
(-1.09266 0 -0.015618)
(-0.977981 0 -0.0181975)
(-1.11046 0 -0.0143856)
(-0.994101 0 -0.0141818)
(-1.12718 0 -0.0113642)
(-1.00992 0 -0.00919901)
(-1.14353 0 -0.00693569)
(-1.0258 0 -0.00407414)
(-1.15959 0 -0.00186354)
(-1.04125 0 0.000482881)
(-1.17492 0 0.00275661)
(-1.05497 0 0.0042573)
(-1.18902 0 0.00628194)
(-1.06668 0 0.00742149)
(-1.20128 0 0.00900328)
(-1.07694 0 0.0100303)
(-1.21214 0 0.0114565)
(-1.08584 0 0.0114824)
(-1.22196 0 0.0133452)
(-1.09366 0 0.0112457)
(-1.23012 0 0.0137125)
(-1.23439 0 0.0126205)
(-0.124001 0 -0.49319)