/*--------------------------------*- C++ -*----------------------------------*\
  =========                 |
  \\      /  F ield         | OpenFOAM: The Open Source CFD Toolbox
   \\    /   O peration     | Website:  https://openfoam.org
    \\  /    A nd           | Version:  dev
     \\/     M anipulation  |
\*---------------------------------------------------------------------------*/
FoamFile
{
    version     2.0;
    format      ascii;
    class       volScalarField;
    location    "7.3";
    object      p;
}
// * * * * * * * * * * * * * * * * * * * * * * * * * * * * * * * * * * * * * //

dimensions      [0 2 -2 0 0 0 0];

internalField   nonuniform List<scalar> 
2790
(
146.775
146.682
146.95
147.521
148.301
149.258
150.391
151.697
153.174
154.815
156.614
158.565
160.659
162.884
165.224
167.66
170.164
172.703
175.235
177.709
180.068
182.245
184.176
185.796
187.056
187.93
188.366
188.421
188.472
188.685
146.572
146.59
146.882
147.45
148.227
149.181
150.309
151.609
153.079
154.711
156.501
158.442
160.525
162.739
165.068
167.494
169.99
172.523
175.053
177.531
179.9
182.095
184.049
185.698
186.982
187.857
188.253
188.308
188.44
188.725
146.374
146.461
146.773
147.33
148.094
149.035
150.148
151.43
152.878
154.486
156.248
158.158
160.206
162.381
164.669
167.052
169.504
171.994
174.486
176.934
179.284
181.476
183.449
185.138
186.489
187.465
188.058
188.413
188.729
189.027
146.149
146.267
146.591
147.14
147.889
148.814
149.907
151.165
152.584
154.159
155.882
157.748
159.746
161.867
164.095
166.413
168.798
171.221
173.648
176.039
178.346
180.518
182.499
184.239
185.693
186.845
187.713
188.384
188.937
189.456
145.888
146.02
146.353
146.894
147.626
148.53
149.598
150.825
152.207
153.738
155.412
157.222
159.157
161.208
163.36
165.595
167.894
170.229
172.57
174.883
177.129
179.264
181.246
183.037
184.607
185.949
187.08
188.042
188.853
189.6
145.587
145.725
146.06
146.592
147.304
148.182
149.218
150.407
151.744
153.224
154.839
156.581
158.442
160.41
162.471
164.609
166.804
169.034
171.271
173.486
175.649
177.726
179.688
181.509
183.172
184.674
186.02
187.226
188.246
189.164
145.245
145.384
145.715
146.234
146.923
147.771
148.77
149.915
151.201
152.621
154.168
155.834
157.609
159.482
161.439
163.464
165.541
167.646
169.759
171.855
173.911
175.902
177.809
179.62
181.326
182.926
184.42
185.799
186.964
188.01
144.86
144.997
145.321
145.824
146.487
147.301
148.258
149.354
150.581
151.934
153.405
154.984
156.663
158.429
160.269
162.168
164.109
166.073
168.041
169.993
171.911
173.778
175.585
177.327
179.006
180.625
182.18
183.652
184.902
186.053
144.434
144.567
144.881
145.364
145.998
146.774
147.685
148.726
149.889
151.168
152.554
154.039
155.611
157.259
158.97
160.728
162.518
164.321
166.121
167.899
169.643
171.341
172.989
174.59
176.152
177.687
179.195
180.666
181.937
183.175
143.967
144.095
144.396
144.856
145.459
146.193
147.054
148.035
149.129
150.327
151.622
153.004
154.46
155.981
157.55
159.154
160.776
162.398
164.004
165.578
167.106
168.58
169.999
171.367
172.7
174.019
175.339
176.677
177.878
179.182
143.462
143.584
143.869
144.304
144.872
145.563
146.37
147.286
148.305
149.418
150.615
151.886
153.22
154.603
156.02
157.456
158.894
160.315
161.701
163.036
164.304
165.494
166.601
167.63
168.594
169.523
170.454
171.453
172.416
173.734
142.92
143.034
143.302
143.711
144.242
144.885
145.635
146.484
147.424
148.446
149.54
150.695
151.898
153.135
154.39
155.647
156.885
158.086
159.228
160.29
161.252
162.095
162.803
163.369
163.796
164.106
164.35
164.659
165.041
166.215
142.343
142.45
142.699
143.079
143.571
144.165
144.855
145.633
146.491
147.418
148.405
149.438
150.504
151.589
152.674
153.74
154.767
155.731
156.606
157.365
157.978
158.413
158.635
158.611
158.308
157.711
156.838
155.847
154.901
155.407
141.734
141.832
142.062
142.411
142.862
143.405
144.033
144.738
145.51
146.34
147.216
148.123
149.049
149.975
150.884
151.753
152.558
153.272
153.863
154.295
154.525
154.502
154.164
153.432
152.21
150.382
147.821
144.523
140.58
138.549
141.094
141.184
141.394
141.712
142.12
142.611
143.174
143.804
144.489
145.219
145.981
146.761
147.542
148.307
149.035
149.702
150.279
150.735
151.032
151.122
150.949
150.438
149.493
147.979
145.701
142.37
137.53
130.519
120.069
107.865
0.728426
0.708385
0.639745
0.545455
0.448681
0.361281
0.287526
0.228048
0.18175
0.146574
0.120744
0.102017
0.088217
0.0777291
0.0693928
0.0624205
0.0563064
0.0507279
0.0454599
0.0403831
0.0353403
0.0302074
0.0249434
0.0195581
0.0142798
0.00946578
0.00547498
0.00257184
0.000728791
-0.000423693
0.680829
0.658382
0.593957
0.507161
0.418146
0.337388
0.268933
0.213612
0.170693
0.138787
0.115591
0.0986273
0.0860523
0.0764304
0.0686701
0.0620566
0.0561485
0.0506794
0.0454396
0.0403875
0.0353643
0.0302432
0.0249733
0.0195043
0.0141022
0.00919059
0.00518029
0.00234538
0.000658279
-1.00499e-05
0.627831
0.601146
0.53936
0.459584
0.378933
0.305912
0.244063
0.194256
0.155865
0.12741
0.106826
0.0923708
0.0818697
0.0738876
0.0673116
0.0615373
0.0561975
0.0511321
0.0461333
0.0412447
0.0362125
0.0309539
0.0253683
0.0195758
0.0138145
0.00850738
0.00429415
0.00160524
0.00032306
0.000173727
0.576275
0.545184
0.485123
0.411291
0.338416
0.272841
0.217531
0.173273
0.139517
0.114971
0.0977953
0.0857057
0.0770206
0.0705841
0.0651677
0.0602246
0.0554213
0.0507904
0.0458108
0.0409274
0.0360493
0.0309069
0.025346
0.0194113
0.0134155
0.00786647
0.00353222
0.000770533
-0.000467186
-0.00052088
0.539567
0.504207
0.445602
0.375948
0.308704
0.248417
0.19773
0.157357
0.126861
0.10517
0.0905885
0.08076
0.073692
0.0678891
0.0629198
0.0584166
0.0538983
0.0491017
0.0446234
0.0400325
0.0353353
0.0303327
0.0248669
0.0188786
0.0128436
0.00724531
0.00318029
0.000840505
-0.000323614
-0.000726394
0.52998
0.489359
0.431582
0.3632
0.297986
0.239397
0.190042
0.150645
0.120969
0.100201
0.0864776
0.0765927
0.0699005
0.0653006
0.0609178
0.0566418
0.0523113
0.0478503
0.043642
0.0395307
0.0352433
0.0304413
0.0249681
0.0189134
0.0123276
0.00629477
0.00204126
-0.000147594
-0.00108152
-0.000972157
0.558358
0.510021
0.450482
0.378823
0.310241
0.248567
0.196481
0.154732
0.123204
0.101537
0.0884123
0.0795006
0.0712408
0.0644534
0.0594351
0.0549253
0.0503923
0.0458535
0.041612
0.0376496
0.0336395
0.0291501
0.0239471
0.0180927
0.0118505
0.00620957
0.00211398
-0.0003436
-0.0016554
-0.00117756
0.62958
0.571844
0.502872
0.421848
0.344029
0.274757
0.216724
0.170402
0.135244
0.109701
0.0913585
0.0790854
0.0708614
0.0642576
0.0587164
0.0537236
0.0489278
0.044341
0.0401216
0.0361756
0.0321293
0.0275667
0.0223144
0.0165209
0.0106023
0.00537394
0.00148268
-0.00118775
-0.00268755
-0.00145121
0.742926
0.666389
0.578826
0.481651
0.389683
0.309199
0.24279
0.190002
0.148933
0.118364
0.0969704
0.082287
0.0719739
0.0642081
0.0578502
0.0521931
0.0469594
0.0422064
0.0379945
0.0340648
0.0298923
0.0250347
0.0194662
0.0136126
0.00813095
0.00364985
0.00030704
-0.00229153
-0.00371127
-0.00171863
0.87964
0.771696
0.655491
0.53789
0.43143
0.339325
0.263264
0.20336
0.158012
0.12452
0.100482
0.0837226
0.0720141
0.0633953
0.0563614
0.0500506
0.0443228
0.0394179
0.0353552
0.0315873
0.0272504
0.0217834
0.0154164
0.00911793
0.0039944
0.000536557
-0.00177243
-0.00377022
-0.00470553
-0.00196743
1.00597
0.859422
0.714943
0.572915
0.450195
0.350182
0.270441
0.208148
0.160946
0.125965
0.100472
0.0824565
0.0700812
0.0612369
0.0538885
0.0469335
0.0405515
0.0354869
0.0318613
0.0286455
0.0242888
0.0179102
0.0101117
0.00278875
-0.00212626
-0.00418999
-0.00481386
-0.00557673
-0.00563891
-0.00219308
1.10838
0.908415
0.729505
0.570866
0.440251
0.337531
0.258162
0.197726
0.152821
0.119583
0.0947517
0.0768965
0.0651304
0.0572782
0.0503577
0.0427764
0.0353764
0.0300433
0.0273058
0.0253403
0.0213081
0.0136497
0.00348661
-0.00577623
-0.0107367
-0.0108225
-0.00880451
-0.007592
-0.00647916
-0.00239046
1.12654
0.858368
0.654425
0.495209
0.375151
0.286467
0.219087
0.167846
0.131017
0.104038
0.0823951
0.0659311
0.0561979
0.0512092
0.0459686
0.0376899
0.028452
0.0224963
0.0213744
0.0219125
0.0189028
0.00949876
-0.00443589
-0.017096
-0.0225483
-0.0197419
-0.0136339
-0.00957806
-0.00718552
-0.00255581
0.894789
0.555973
0.409342
0.314187
0.238015
0.189391
0.151285
0.117538
0.0949793
0.0798289
0.063778
0.0487541
0.0422738
0.0431698
0.0418666
0.032589
0.0196674
0.0120708
0.0136291
0.0188312
0.0181105
0.0063216
-0.0135268
-0.0318929
-0.0386275
-0.0315058
-0.0190325
-0.0110555
-0.00767605
-0.00268657
0.214554
-0.189571
-0.107275
0.00871881
0.0190424
0.0535424
0.067326
0.0491664
0.0414039
0.0469268
0.040806
0.0255741
0.0226594
0.0339318
0.0403182
0.0288345
0.00817691
-0.00342123
0.00257532
0.0164084
0.0203758
0.0053944
-0.0235367
-0.0511812
-0.060595
-0.0469961
-0.0244791
-0.0110952
-0.00776631
-0.0027813
140.415
140.496
140.684
140.969
141.334
141.769
142.267
142.818
143.414
144.04
144.685
145.333
145.967
146.566
147.109
147.568
147.911
148.103
148.096
147.836
147.249
146.24
144.676
142.362
139
134.095
126.727
114.983
92.8422
33.1322
139.688
139.759
139.925
140.175
140.494
140.872
141.301
141.772
142.274
142.794
143.318
143.83
144.312
144.741
145.094
145.341
145.447
145.37
145.059
144.449
143.456
141.965
139.819
136.786
132.508
126.401
117.433
103.87
84.3465
55.8797
138.919
138.98
139.123
139.336
139.608
139.927
140.285
140.673
141.079
141.491
141.892
142.267
142.595
142.853
143.016
143.051
142.921
142.581
141.975
141.032
139.661
137.741
135.108
131.531
126.684
120.113
111.227
99.385
85.1332
68.4731
138.108
138.159
138.278
138.455
138.678
138.937
139.223
139.527
139.837
140.138
140.416
140.653
140.827
140.916
140.891
140.719
140.362
139.77
138.888
137.642
135.94
133.666
130.667
126.746
121.657
115.106
106.796
96.3914
83.8288
68.6664
137.258
137.299
137.393
137.533
137.707
137.905
138.119
138.338
138.551
138.743
138.898
138.998
139.022
138.944
138.738
138.368
137.795
136.971
135.839
134.328
132.353
129.807
126.56
122.457
117.317
110.939
103.123
93.6257
82.2777
69.2855
136.372
136.402
136.472
136.573
136.697
136.835
136.976
137.111
137.227
137.311
137.345
137.312
137.19
136.953
136.573
136.018
135.246
134.213
132.863
131.132
128.942
126.203
122.808
118.639
113.566
107.452
100.176
91.6375
81.8262
71.1545
135.451
135.47
135.515
135.58
135.654
135.731
135.8
135.852
135.874
135.852
135.769
135.607
135.344
134.956
134.416
133.689
132.74
131.524
129.991
128.083
125.735
122.872
119.412
115.268
110.352
104.585
97.9122
90.3226
81.8591
72.8573
134.498
134.508
134.528
134.555
134.581
134.598
134.597
134.567
134.497
134.372
134.177
133.892
133.498
132.97
132.281
131.401
130.295
128.924
127.243
125.202
122.748
119.822
116.362
112.31
107.612
102.228
96.1434
89.3789
81.984
74.2312
133.519
133.518
133.514
133.505
133.483
133.441
133.371
133.263
133.105
132.882
132.58
132.18
131.663
131.006
130.185
129.17
127.931
126.432
124.636
122.502
119.987
117.046
113.637
109.722
105.272
100.272
94.7281
88.6742
82.164
75.4252
132.516
132.505
132.478
132.433
132.364
132.266
132.13
131.947
131.704
131.389
130.987
130.48
129.851
129.079
128.14
127.01
125.66
124.061
122.181
119.988
117.449
114.532
111.209
107.459
103.268
98.6371
93.5846
88.1495
82.385
76.476
131.494
131.473
131.424
131.344
131.231
131.079
130.88
130.625
130.303
129.902
129.407
128.804
128.074
127.2
126.16
124.932
123.493
121.818
119.882
117.66
115.127
112.262
109.049
105.477
101.545
97.2619
92.6515
87.7533
82.6152
77.3858
130.458
130.428
130.357
130.244
130.089
129.886
129.628
129.306
128.91
128.429
127.85
127.159
126.34
125.377
124.252
122.945
121.438
119.709
117.741
115.513
113.01
110.218
107.129
103.741
100.058
96.0959
91.8793
87.4447
82.8341
78.1668
129.414
129.375
129.283
129.14
128.944
128.693
128.38
127.996
127.533
126.979
126.325
125.556
124.66
123.621
122.425
121.057
119.499
117.736
115.755
113.542
111.086
108.38
105.422
102.215
98.7683
95.0985
91.2304
87.1963
83.0322
78.8343
128.366
128.32
128.209
128.036
127.803
127.508
127.143
126.703
126.178
125.56
124.838
124.002
123.039
121.938
120.686
119.27
117.678
115.898
113.92
111.736
109.339
106.728
103.903
100.871
97.6435
94.238
90.6772
86.9894
83.205
79.4018
127.322
127.268
127.139
126.94
126.672
126.336
125.925
125.433
124.853
124.178
123.397
122.503
121.485
120.334
119.038
117.589
115.977
114.193
112.231
110.086
107.757
105.243
102.549
99.6828
96.6575
93.4893
90.199
86.811
83.3507
79.8816
126.288
126.226
126.081
125.857
125.559
125.185
124.732
124.195
123.566
122.84
122.01
121.067
120.004
118.813
117.485
116.014
114.393
112.616
110.68
108.583
106.325
103.909
101.341
98.63
95.7888
92.8327
89.7801
86.6519
83.4694
80.2845
125.27
125.202
125.042
124.796
124.469
124.062
123.572
122.994
122.323
121.554
120.682
119.699
118.6
117.378
116.029
114.546
112.926
111.164
109.261
107.216
105.031
102.711
100.262
97.6947
95.0202
92.2529
89.4089
86.5061
83.5625
80.6206
124.275
124.202
124.028
123.762
123.41
122.974
122.451
121.838
121.131
120.325
119.418
118.403
117.276
116.033
114.67
113.184
111.572
109.832
107.967
105.976
103.863
101.635
99.2983
96.8621
94.3377
91.7379
89.0769
86.3699
83.6321
80.8984
123.311
123.232
123.047
122.763
122.389
121.927
121.376
120.733
119.995
119.16
118.223
117.184
116.036
114.779
113.41
111.926
110.328
108.615
106.79
104.854
102.812
100.671
98.4373
96.1204
93.7304
91.2788
88.7779
86.2409
83.6807
81.126
122.385
122.301
122.106
121.806
121.413
120.929
120.353
119.685
118.922
118.062
117.103
116.045
114.883
113.618
112.248
110.773
109.192
107.509
105.724
103.842
101.868
99.808
97.669
95.4597
93.1894
90.8684
88.5076
86.1182
83.7112
81.3105
121.504
121.416
121.212
120.899
120.489
119.986
119.39
118.701
117.917
117.037
116.062
114.99
113.82
112.551
111.185
109.721
108.161
106.508
104.764
102.935
101.024
99.0385
96.9853
94.8723
92.7081
90.5018
88.263
86.0014
83.7265
81.4582
120.676
120.585
120.373
120.048
119.624
119.105
118.493
117.786
116.985
116.091
115.103
114.022
112.847
111.579
110.22
108.77
107.233
105.61
103.906
102.126
100.273
98.3559
96.3798
94.3523
92.2815
90.1754
88.0425
85.8913
83.73
81.5753
119.909
119.816
119.597
119.262
118.826
118.294
117.667
116.947
116.133
115.228
114.231
113.144
111.968
110.704
109.354
107.92
106.405
104.812
103.145
101.41
99.6113
97.7549
95.8472
93.8951
91.9057
89.8865
87.8449
85.7885
83.7243
81.6665
119.212
119.116
118.891
118.548
118.102
117.559
116.921
116.189
115.366
114.453
113.45
112.361
111.186
109.927
108.587
107.169
105.676
104.112
102.48
100.786
99.0347
97.2322
95.3845
93.4979
91.5789
89.6344
87.6709
85.6951
83.7136
81.738
118.593
118.495
118.264
117.913
117.458
116.906
116.26
115.52
114.689
113.77
112.764
111.674
110.502
109.25
107.921
106.518
105.046
103.507
101.906
100.249
98.5396
96.7841
94.9881
93.1575
91.2984
89.417
87.5193
85.6113
83.6988
81.7917
118.062
117.96
117.724
117.366
116.904
116.344
115.691
114.945
114.109
113.186
112.179
111.09
109.921
108.676
107.358
105.97
104.516
103
101.427
99.8009
98.1275
96.4118
94.6594
92.8757
91.0666
89.2377
87.3945
85.5426
83.6873
81.837
117.627
117.522
117.278
116.912
116.443
115.878
115.219
114.468
113.629
112.704
111.696
110.608
109.444
108.205
106.897
105.522
104.084
102.587
101.037
99.4374
97.7935
96.1103
94.3931
92.6474
90.8783
89.0913
87.2915
85.4839
83.6736
81.8673
117.301
117.19
116.937
116.565
116.091
115.522
114.858
114.104
113.262
112.336
111.328
110.242
109.081
107.849
106.549
105.184
103.759
102.279
100.746
99.1676
97.5468
95.8892
94.1997
92.4834
90.7455
88.991
87.2248
85.4518
83.6767
81.9056
117.099
116.964
116.694
116.316
115.84
115.268
114.602
113.846
113.003
112.077
111.07
109.986
108.829
107.601
106.307
104.95
103.535
102.065
100.546
98.9811
97.3761
95.7356
94.0645
92.3678
90.6505
88.9173
87.173
85.4222
83.6694
81.9194
117.081
116.882
116.584
116.199
115.72
115.145
114.476
113.718
112.875
111.948
110.942
109.86
108.705
107.481
106.192
104.841
103.432
101.97
100.459
98.9039
97.3092
95.6799
94.0206
92.3363
90.6318
88.9119
87.1811
85.4439
83.7046
81.9676
-50.5521
-30.2966
-11.167
35.4997
28.0359
15.9629
50.9479
38.8453
27.6149
52.3793
41.9485
33.8957
56.7221
48.4273
41.663
61.112
54.1977
48.3014
64.3891
58.5038
53.4514
66.9894
61.9616
57.6501
69.1819
64.8474
61.1368
71.0329
67.2525
64.0242
72.5896
69.2581
66.4203
73.9014
70.9382
68.4192
75.0089
72.3506
70.0942
75.9444
73.541
71.503
76.7344
74.5459
72.6914
77.4008
75.3949
73.6957
77.9618
76.1121
74.5449
78.4327
76.7171
75.2629
78.8265
77.2263
75.8691
79.1542
77.6537
76.3797
79.4254
78.0108
76.8083
79.6486
78.3081
77.1668
79.8307
78.5535
77.4646
79.9796
78.7564
77.7116
80.0979
78.92
77.9124
80.1973
79.0568
78.0793
80.2692
79.1586
78.2058
80.3422
79.2543
78.3187
80.3763
79.3047
78.3832
80.4454
79.388
78.4729
-2.9267
-2.83129
-1.3691
-0.228589
-0.19317
-0.0958592
-0.0339083
-0.0586564
-0.0418489
0.0196211
0.0317448
0.00171515
-0.00714048
0.0195627
0.0430212
0.0284725
-0.0065658
-0.0262256
-0.0126293
0.016949
0.0296816
0.00971249
-0.0337089
-0.0766207
-0.0914279
-0.0680775
-0.0291652
-0.00788854
-0.00695737
-0.00284247
2.18736
-0.717754
0.872991
0.348208
-0.999488
-0.75493
-0.115326
-0.0780259
-0.059061
0.0421882
0.0248226
-0.0650604
-0.0864991
-0.00638171
0.0710611
0.0485545
-0.0193564
-0.0608592
-0.0390845
0.018294
0.0476642
0.0198843
-0.045906
-0.112656
-0.13688
-0.0982904
-0.0314584
0.00237406
-0.00378683
-0.00288972
13.3432
4.97792
2.17112
-0.277516
-0.595588
0.872864
1.04834
-0.291117
-0.660548
-0.301306
0.0448146
-0.0546247
-0.0950347
0.0539467
0.148488
0.0716903
-0.0648673
-0.145864
-0.100028
0.0252307
0.0943164
0.0514381
-0.0496235
-0.154069
-0.197195
-0.13982
-0.0282436
0.0266474
0.00524532
-0.00300835
23.1281
13.24
7.35827
3.58817
1.86733
1.33281
0.118737
-0.555713
-0.172876
0.997047
0.880347
-0.204449
-0.583648
-0.365349
0.127646
0.172092
-0.061676
-0.204044
-0.121289
0.0959042
0.17893
0.089983
-0.0685547
-0.231683
-0.308565
-0.225024
-0.0189475
0.07545
0.0264139
-0.0034735
32.3074
22.5321
15.2079
9.91879
6.28984
3.8224
1.95577
0.962949
0.701357
0.689511
0.174738
-0.418481
-0.481305
0.473495
1.00008
0.387731
-0.202997
-0.531236
-0.478997
-0.0314298
0.266558
0.168165
-0.0608658
-0.291431
-0.403092
-0.249028
0.0202621
0.164091
0.0673536
-0.00503661
40.2934
31.3589
23.4667
17.034
12.1108
8.47171
5.80543
3.92884
2.66
1.75062
0.982576
0.392677
0.182792
0.470798
0.475261
0.217479
-0.244939
-0.544846
-0.287347
0.51758
0.701416
0.236358
-0.108142
-0.430462
-0.661309
-0.590411
-0.013997
0.292136
0.131854
-0.0101339
46.8114
38.9986
31.2168
24.3235
18.6996
14.2451
10.7274
7.97713
5.88425
4.31236
3.09369
2.1395
1.50917
1.19674
0.932285
0.590965
0.120701
-0.183107
-0.0710302
0.292161
0.425488
0.24425
-0.0801838
-0.456585
-0.710293
-0.426285
0.361283
0.560746
0.209239
-0.0231762
52.1199
45.3827
38.1196
31.2866
25.4039
20.4613
16.3244
12.9055
10.1391
7.92741
6.1423
4.7033
3.60901
2.8305
2.22038
1.62613
1.03895
0.629191
0.516889
0.597584
0.612149
0.405251
0.041526
-0.328532
-0.523833
-0.310653
0.162487
0.399617
0.305648
-0.0639756
56.4503
50.6291
44.0404
37.564
31.7456
26.6355
22.1688
18.3105
15.0311
12.2747
9.96573
8.04671
6.48858
5.24854
4.22721
3.32591
2.53518
1.92905
1.56027
1.3639
1.16659
0.841815
0.431048
0.0594775
-0.136031
-0.0432585
0.237544
0.393625
0.26245
-0.302784
59.9843
54.9134
49.0075
43.0203
37.4659
32.4221
27.8599
23.775
20.1689
17.0229
14.3003
11.9631
9.9789
8.30782
6.88742
5.65773
4.59887
3.73219
3.07276
2.57335
2.12547
1.64676
1.15268
0.722201
0.445475
0.378379
0.447482
0.434737
0.174136
-0.517679
62.8869
58.4251
53.1426
47.6727
42.4761
37.6362
33.1402
28.9996
25.2355
21.8534
18.8415
16.1796
13.845
11.8096
10.0352
8.48293
7.13057
5.97597
5.01523
4.21337
3.50435
2.83394
2.20025
1.6462
1.22527
0.961345
0.795255
0.578036
0.172597
-0.592832
65.2911
61.3259
56.5863
51.6063
46.7916
42.221
37.8875
33.8084
30.0135
26.5214
23.3357
20.4509
17.856
15.5349
13.4651
11.6218
9.98647
8.5488
7.29771
6.20708
5.2352
4.34509
3.52748
2.8016
2.19418
1.71013
1.30232
0.869325
0.308637
-0.522214
67.2967
63.7404
59.4643
54.9248
50.4788
46.1969
42.073
38.1243
34.3827
30.8726
27.6069
24.5894
21.8188
19.2885
16.987
14.9001
13.0144
11.3191
9.80213
8.44407
7.21751
6.09677
5.07044
4.14329
3.32444
2.60857
1.95878
1.3058
0.578198
-0.33136
68.9791
65.7629
61.8809
57.7282
53.6209
49.6213
45.7219
41.9374
38.2984
34.8312
31.5526
28.4726
25.5959
22.923
20.4502
18.1706
16.0763
14.1588
12.408
10.8099
9.34607
7.9983
6.75528
5.61394
4.57326
3.62323
2.73515
1.86183
0.956013
-0.0561878
70.3961
67.4654
63.9187
60.1025
56.2989
52.5626
48.8845
45.2759
41.7645
38.376
35.1288
32.0358
29.1056
26.3432
23.7501
21.3248
19.0638
16.9617
15.0116
13.2037
11.5254
9.96378
8.50857
7.1532
5.89163
4.71231
3.59295
2.50123
1.40661
0.263357
71.593
68.9034
65.6431
62.1186
58.5839
55.0874
51.6181
48.1842
44.8097
41.5189
38.3299
35.2567
32.3101
29.4979
26.8248
24.2932
21.9027
19.6512
17.5346
15.5466
13.6787
11.9217
10.2668
8.70635
7.23242
5.83356
4.4922
3.18561
1.89349
0.591761
72.6055
70.1206
67.1055
63.8338
60.5358
57.2545
53.9777
50.7103
47.473
44.2877
41.1717
38.139
35.2012
32.3676
29.645
27.0382
24.5493
22.1787
19.9248
17.784
15.7509
13.8189
11.9808
10.2292
8.55578
6.94993
5.39733
3.88102
2.38605
0.903414
73.4623
71.1516
68.3471
65.2945
62.2041
59.1145
56.0124
52.8999
49.7948
46.7162
43.6801
40.7
37.7874
34.9522
32.2026
29.5446
26.9823
24.5178
22.1516
19.8822
17.7064
15.6196
13.6162
11.6894
9.83145
8.03254
6.28051
4.56147
2.86252
1.18388
74.1868
72.0248
69.4013
66.5386
63.6297
60.7098
57.7646
54.7941
51.813
48.8381
45.8838
42.9626
40.0854
37.2624
34.502
31.8111
29.1951
26.6574
24.1999
21.8227
19.5244
17.3019
15.1508
13.0654
11.0385
9.06105
7.12214
5.20929
3.30967
1.42812
74.7984
72.7633
70.2955
67.5972
64.8467
62.0761
59.2708
56.4287
53.562
50.6852
47.8113
44.9512
42.1153
39.3133
36.5538
33.8439
31.1897
28.5955
26.0643
23.5974
21.1944
18.8537
16.5719
14.3441
12.1637
10.0223
7.90978
5.81389
3.721
1.63748
75.3132
73.3863
71.0523
68.4961
65.8832
63.2434
60.5617
57.8346
55.0719
52.2862
49.4887
46.6893
43.8974
41.1219
38.3713
35.6527
32.9724
30.3353
27.745
25.2037
22.712
20.269
17.8722
15.5175
13.1988
10.9083
8.63596
6.36949
4.0942
1.8161
75.7451
73.9102
71.6908
69.257
66.7632
64.2372
61.664
59.0388
56.3694
53.6667
50.9403
48.1991
45.4513
42.7053
39.9688
37.2489
34.5518
31.8827
29.2455
26.643
24.0765
21.5456
19.0486
16.5818
14.1398
11.7148
9.29693
6.87375
4.42951
1.96892
76.1053
74.3483
72.2265
69.8975
67.5061
65.0784
62.5995
60.0635
57.4767
54.8484
52.1869
49.4999
46.7947
44.0789
41.3595
38.6433
35.9364
33.2439
30.57
27.9176
25.2885
22.6828
20.0992
17.5345
14.9834
12.4386
9.89003
7.32503
4.72717
2.09936
76.4045
74.713
72.674
70.4339
68.1296
65.7859
63.388
60.9292
58.4145
55.8517
53.2482
50.6105
47.945
45.2584
42.5574
39.8482
37.1365
34.4273
31.7249
29.0322
26.3514
23.6827
21.0252
18.3759
15.7298
13.0797
10.4155
7.72437
4.98937
2.21117
76.6492
75.012
73.042
70.8765
68.6453
66.3723
64.043
61.6498
59.1967
56.6905
54.1375
51.5433
48.9136
46.2543
43.5715
40.8708
38.1577
35.4369
32.7126
29.9879
27.2647
24.5437
21.824
19.1029
16.3754
13.6344
10.87
8.06885
5.21404
2.30393
76.8509
75.258
73.3446
71.2404
69.0694
66.8548
64.5821
62.2435
59.8419
57.3833
54.8731
52.3162
49.7176
47.0825
44.4165
41.7248
39.0124
36.2839
33.5431
30.7932
28.0361
25.2726
22.5017
19.7209
16.9253
14.1078
11.2584
8.36382
5.40681
2.38277
77.0066
75.4485
73.58
71.5244
69.4013
67.233
65.0056
62.7107
60.3505
57.9302
55.4548
52.9284
50.3555
47.7409
45.0894
42.4059
39.6952
36.9616
34.2087
31.4395
28.6559
25.8588
23.0471
20.2184
17.3679
14.4883
11.5696
8.59845
5.55778
2.44068
77.1386
75.6061
73.7717
71.753
69.666
67.5328
65.3396
63.0779
60.7492
58.3584
55.9096
53.4068
50.8538
48.2551
45.6151
42.9385
40.2297
37.4926
34.7309
31.9475
29.1441
26.3216
23.4789
20.6136
17.7208
14.7932
11.8207
8.78983
5.6832
2.49019
77.2197
75.7034
73.8913
71.8977
69.8351
67.7254
65.5551
63.3156
61.0081
58.6369
56.2061
53.7192
51.1797
48.5919
45.9599
43.2881
40.5807
37.8416
35.0743
32.2815
29.465
26.6254
23.7619
20.8719
17.9504
14.9901
11.9807
8.90826
5.75548
2.5101
77.3087
75.7936
73.9937
72.015
69.9661
67.869
65.7108
63.483
61.1866
58.8255
56.4037
53.9245
51.3915
48.8086
46.1799
43.5096
40.8019
38.0607
35.2892
32.4903
29.6656
26.816
23.9404
21.0362
18.0985
15.1198
12.0895
8.99273
5.8097
2.51652
)
;

boundaryField
{
    inlet
    {
        type            zeroGradient;
    }
    outlet
    {
        type            fixedValue;
        value           uniform 0;
    }
    flap
    {
        type            zeroGradient;
    }
    upperWall
    {
        type            zeroGradient;
    }
    lowerWall
    {
        type            zeroGradient;
    }
    frontAndBack
    {
        type            empty;
    }
}


// ************************************************************************* //
