/*--------------------------------*- C++ -*----------------------------------*\
  =========                 |
  \\      /  F ield         | OpenFOAM: The Open Source CFD Toolbox
   \\    /   O peration     | Website:  https://openfoam.org
    \\  /    A nd           | Version:  dev
     \\/     M anipulation  |
\*---------------------------------------------------------------------------*/
FoamFile
{
    version     2.0;
    format      ascii;
    class       surfaceScalarField;
    location    "7.3";
    object      phi;
}
// * * * * * * * * * * * * * * * * * * * * * * * * * * * * * * * * * * * * * //

dimensions      [0 3 -1 0 0 0 0];

internalField   nonuniform List<scalar> 
5457
(
0.198418
0.00158236
0.19648
0.00193734
0.194192
0.00228804
0.191509
0.00268352
0.188428
0.00308113
0.184951
0.00347669
0.181072
0.00387849
0.176778
0.00429393
0.17205
0.00472814
0.166865
0.00518514
0.161197
0.00566843
0.155016
0.00618097
0.148291
0.00672491
0.14099
0.00730129
0.13308
0.00790947
0.124534
0.00854643
0.115328
0.00920588
0.105451
0.00987718
0.0949065
0.0105441
0.083723
0.0111835
0.0719583
0.0117647
0.05971
0.0122484
0.0471213
0.0125887
0.034381
0.0127402
0.0216859
0.0126951
0.00903575
0.0126502
-0.00291739
0.0119531
-0.00847264
0.00555525
-0.00804321
-0.000429432
-0.00804321
0.199928
0.00165419
0.199176
0.00268975
0.197965
0.00349893
0.196332
0.00431665
0.194272
0.00514112
0.191782
0.00596669
0.188855
0.0068054
0.185478
0.00767072
0.181633
0.00857298
0.177298
0.00952048
0.172446
0.0105205
0.167048
0.0115793
0.161071
0.0127016
0.154482
0.0138902
0.147247
0.0151445
0.139334
0.0164595
0.130716
0.0178238
0.121376
0.0192174
0.111311
0.0206089
0.100541
0.0219534
0.0891164
0.0231892
0.0771287
0.024236
0.0647227
0.0249948
0.0521151
0.0253478
0.0396548
0.0251554
0.0281048
0.0242002
0.0185942
0.0214637
0.00879632
0.0153531
0.00118306
0.00718383
-0.00686015
0.199781
0.00187361
0.199087
0.00338356
0.197946
0.00463982
0.196409
0.00585321
0.194483
0.00706719
0.192164
0.00828567
0.189447
0.00952276
0.186321
0.0107961
0.182774
0.0121208
0.178785
0.0135093
0.174333
0.0149726
0.169392
0.0165202
0.163933
0.0181602
0.157926
0.0198974
0.151338
0.0217328
0.144136
0.0236613
0.136291
0.0256693
0.127777
0.0277313
0.11858
0.0298059
0.108702
0.0318314
0.0981698
0.0337211
0.0870475
0.0353584
0.0754507
0.0365916
0.0635735
0.037225
0.0517316
0.0369973
0.0403964
0.0355354
0.0297382
0.032122
0.0191654
0.0259259
0.00959726
0.016752
0.00273711
0.199703
0.00217053
0.199008
0.00407884
0.197887
0.00576031
0.196376
0.00736407
0.194488
0.00895525
0.192222
0.0105516
0.189575
0.0121704
0.186539
0.013832
0.183105
0.0155552
0.179258
0.0173557
0.174983
0.0192475
0.170261
0.0212428
0.165069
0.0233518
0.159385
0.0255815
0.153183
0.0279345
0.146438
0.0304065
0.139123
0.0329837
0.131216
0.0356386
0.122697
0.0383251
0.113556
0.0409724
0.103799
0.0434781
0.0934562
0.0457011
0.0825948
0.0474529
0.071332
0.0484878
0.05984
0.0484893
0.048316
0.0470594
0.0368102
0.0436278
0.0251873
0.0375487
0.0133353
0.028604
0.0160724
0.199667
0.00250311
0.198964
0.00478208
0.197863
0.00686158
0.196381
0.0088457
0.194533
0.010804
0.192318
0.0127662
0.189734
0.0147541
0.186776
0.0167906
0.183434
0.0188968
0.179698
0.0210914
0.175556
0.0233904
0.170991
0.0258079
0.165987
0.0283556
0.160527
0.0310417
0.154591
0.03387
0.14816
0.036837
0.141215
0.0399296
0.133733
0.0431202
0.125696
0.0463621
0.117087
0.0495819
0.107893
0.0526717
0.0981138
0.0554802
0.0877638
0.057803
0.0768776
0.0593739
0.0655076
0.0598593
0.0537069
0.0588601
0.041453
0.0558817
0.028587
0.0504148
0.0148519
0.0423391
0.0309243
0.199653
0.00285029
0.198949
0.00548611
0.197871
0.00793949
0.196427
0.0102898
0.194627
0.0126039
0.192473
0.0149196
0.189964
0.0172637
0.187093
0.0196613
0.183854
0.022136
0.180237
0.0247086
0.17623
0.0273968
0.171822
0.0302165
0.166997
0.0331803
0.161741
0.0362976
0.156038
0.0395729
0.149871
0.0430037
0.143223
0.0465779
0.136074
0.0502697
0.128401
0.0540345
0.120181
0.0578017
0.111387
0.0614663
0.101988
0.0648792
0.0919535
0.0678374
0.0812525
0.0700749
0.0698526
0.0712592
0.0577153
0.0709974
0.0447593
0.0688377
0.0308481
0.064326
0.0158726
0.0573146
0.0467969
0.19965
0.00320023
0.198954
0.00618207
0.197905
0.00898908
0.196505
0.0116895
0.194763
0.0143461
0.192681
0.0170016
0.190257
0.0196872
0.187488
0.0224309
0.184366
0.025258
0.180883
0.0281914
0.177029
0.0312507
0.172792
0.034453
0.16816
0.0378124
0.163119
0.0413392
0.157652
0.0450392
0.151745
0.0489112
0.145377
0.0529455
0.138528
0.0571193
0.131169
0.0613929
0.123268
0.0657027
0.114781
0.0699532
0.105653
0.0740073
0.0958151
0.0776754
0.0851843
0.0807056
0.0736662
0.0827773
0.0611595
0.0835042
0.0475534
0.0824438
0.0327573
0.0791221
0.0167821
0.0732897
0.063579
0.199655
0.00354556
0.198975
0.00686215
0.197959
0.0100048
0.19661
0.0130382
0.194934
0.0160221
0.192934
0.0190021
0.190608
0.0220132
0.187953
0.025086
0.184963
0.0282479
0.181631
0.0315234
0.177947
0.034934
0.173902
0.0384983
0.169483
0.0422319
0.164675
0.0461466
0.159464
0.0502501
0.153832
0.0545436
0.147757
0.0590208
0.141212
0.0636642
0.134163
0.0684414
0.126566
0.0732997
0.118361
0.0781587
0.109468
0.0829005
0.0997845
0.0873585
0.0891849
0.0913052
0.0775226
0.0944397
0.0646448
0.096382
0.0504151
0.0966735
0.0347663
0.0947709
0.0177888
0.0902672
0.0813678
0.199664
0.00388137
0.199006
0.00751993
0.19803
0.010981
0.196739
0.0143295
0.195137
0.017624
0.193227
0.0209118
0.191009
0.024231
0.188481
0.0276145
0.185637
0.0310918
0.182471
0.034689
0.178976
0.0384294
0.175141
0.0423332
0.170955
0.0464177
0.166405
0.050697
0.161474
0.0551811
0.156142
0.059875
0.150386
0.0647772
0.144173
0.0698772
0.137461
0.0751531
0.130194
0.0805665
0.122296
0.0860568
0.113665
0.0915321
0.104166
0.0968575
0.093631
0.10184
0.0818614
0.106209
0.068646
0.109597
0.0537988
0.111521
0.037234
0.111336
0.019082
0.108419
0.10045
0.199677
0.00420413
0.199047
0.00815014
0.198116
0.0119123
0.196888
0.0155578
0.195367
0.0191449
0.193556
0.0227223
0.191456
0.0263308
0.189066
0.0300052
0.186381
0.0337769
0.183396
0.0376738
0.180105
0.0417205
0.176499
0.0459392
0.172567
0.0503493
0.168297
0.0549671
0.163672
0.0598059
0.158672
0.0648753
0.153269
0.0701799
0.147428
0.0757183
0.1411
0.0814811
0.134219
0.0874476
0.126694
0.0935816
0.118403
0.0998236
0.109181
0.10608
0.0988159
0.112205
0.0870484
0.117977
0.0735854
0.12306
0.0581442
0.126962
0.0405484
0.128931
0.0208993
0.128068
0.121349
0.199693
0.00451119
0.199095
0.0087485
0.198213
0.0127938
0.197053
0.0167174
0.19562
0.0205782
0.193916
0.0244261
0.191943
0.0283037
0.189701
0.032248
0.187186
0.0362919
0.184395
0.0404646
0.181323
0.0447926
0.177962
0.0492997
0.174305
0.0540072
0.170337
0.0589343
0.166045
0.064098
0.161408
0.0695127
0.156397
0.0751903
0.150976
0.0811395
0.145092
0.0873653
0.138672
0.0938672
0.131617
0.100637
0.123787
0.107654
0.114992
0.114874
0.104978
0.122219
0.0934138
0.129541
0.0798922
0.136582
0.0639621
0.142892
0.0452298
0.147664
0.0236086
0.14969
0.144958
0.199711
0.00480049
0.199148
0.00931148
0.19832
0.0136214
0.197234
0.0178036
0.195894
0.0219182
0.194304
0.0260164
0.192465
0.0301421
0.190379
0.0343341
0.188045
0.0386265
0.185459
0.04305
0.182619
0.0476325
0.17952
0.0523993
0.176153
0.0573737
0.17251
0.0625778
0.168576
0.0680319
0.164332
0.0737559
0.159754
0.0797689
0.154803
0.0860901
0.149429
0.0927394
0.143559
0.0997375
0.137089
0.107106
0.129876
0.114867
0.121712
0.123038
0.112309
0.131621
0.101267
0.140584
0.0880378
0.149811
0.0719149
0.159015
0.0520787
0.1675
0.0278807
0.173888
0.172838
0.19973
0.0050704
0.199205
0.00983622
0.198435
0.0143913
0.197427
0.0188122
0.196185
0.0231602
0.194714
0.0274875
0.193016
0.0318394
0.191095
0.0362559
0.188949
0.0407722
0.186579
0.0454203
0.183982
0.050229
0.181156
0.055225
0.178097
0.0604336
0.174795
0.0658789
0.171243
0.0715849
0.167422
0.077576
0.163313
0.0838782
0.158883
0.0905204
0.154086
0.0975365
0.148856
0.104967
0.143099
0.112863
0.136677
0.12129
0.129388
0.130327
0.120936
0.140074
0.110875
0.150645
0.0985334
0.162153
0.0828897
0.174659
0.062424
0.187966
0.0351162
0.201195
0.207955
0.199751
0.00531968
0.199267
0.0103204
0.198557
0.0151007
0.19763
0.0197397
0.19649
0.0243
0.195143
0.0288347
0.193592
0.0333901
0.191841
0.0380072
0.189891
0.0427221
0.187744
0.0475674
0.1854
0.0525728
0.182859
0.0577662
0.180118
0.063174
0.177175
0.0688222
0.174022
0.0747375
0.17065
0.0809481
0.167043
0.0874854
0.163177
0.0943861
0.159018
0.101695
0.154515
0.10947
0.149593
0.117786
0.14414
0.126743
0.137988
0.136478
0.130879
0.147183
0.122397
0.159127
0.111848
0.172702
0.0980012
0.188505
0.0785182
0.207449
0.0486473
0.231066
0.256602
0.199772
0.00554736
0.19933
0.0107623
0.198684
0.0157471
0.197841
0.0205832
0.196806
0.0253343
0.195587
0.0300543
0.194187
0.0347901
0.192611
0.0395834
0.190862
0.0444707
0.188944
0.0494853
0.18686
0.0546572
0.184611
0.0600148
0.1822
0.0655854
0.179626
0.0713961
0.176888
0.0774751
0.173983
0.0838531
0.170904
0.0905649
0.167638
0.0976523
0.164166
0.105167
0.160459
0.113177
0.156473
0.121771
0.152143
0.131073
0.147367
0.141254
0.141988
0.152562
0.135741
0.165374
0.128155
0.180288
0.118289
0.198371
0.103892
0.221846
0.0776544
0.257304
0.334256
0.00381785
-0.00381785
0.00744279
-0.00362494
0.0104078
-0.00296499
0.0126861
-0.00227828
0.0143527
-0.0016666
0.0154977
-0.00114502
0.0162078
-0.000710141
0.0165644
-0.000356607
0.0166476
-8.31303e-05
0.0165183
0.000129291
0.0162464
0.000271897
0.0158867
0.00035969
0.0154818
0.000404922
0.0150653
0.000416451
0.0146623
0.000403032
0.0142897
0.000372565
0.013958
0.000331669
0.0136721
0.000285957
0.0134323
0.000239835
0.0132355
0.000196762
0.013077
0.000158544
0.0129507
0.000126207
0.012848
0.00010275
0.0127572
9.08369e-05
0.0126651
9.20505e-05
0.0125597
0.000105386
0.0124319
0.000127816
0.012281
0.000150927
0.0121187
0.000162291
0.000132965
0.00352927
-0.00734712
0.00691531
-0.00701098
0.00975553
-0.00580521
0.0120316
-0.00455434
0.0138149
-0.00344994
0.0151859
-0.00251598
0.0162191
-0.00174332
0.0169803
-0.00111779
0.0175204
-0.000623313
0.01789
-0.000240294
0.0181259
3.59806e-05
0.0182529
0.000232736
0.0183172
0.000340649
0.0183506
0.000382966
0.0183773
0.000376399
0.0184131
0.000336759
0.0184675
0.000277255
0.0185443
0.00020914
0.0186434
0.000140797
0.0187612
7.88784e-05
0.0188931
2.67152e-05
0.0190359
-1.66458e-05
0.0191855
-4.68507e-05
0.0193351
-5.87005e-05
0.0194746
-4.75358e-05
0.0195937
-1.3637e-05
0.0196836
3.78467e-05
0.0197452
8.93723e-05
0.0197893
0.000118204
0.000115446
0.00298586
-0.010333
0.00576488
-0.00979
0.0080651
-0.00810543
0.00990677
-0.00639601
0.01136
-0.00490313
0.0124908
-0.00364684
0.0133596
-0.00261209
0.0140192
-0.00177743
0.0145165
-0.00112053
0.0148979
-0.000621706
0.0152005
-0.000266615
0.0154589
-2.57294e-05
0.0156713
0.000128329
0.0158521
0.000202165
0.0160141
0.000214359
0.0161653
0.000185596
0.0163084
0.000134118
0.0164432
7.43292e-05
0.0165697
1.42709e-05
0.0166907
-4.2053e-05
0.0168158
-9.83859e-05
0.0169482
-0.000149078
0.0170884
-0.000187042
0.0172345
-0.000204784
0.0173833
-0.000196346
0.0175295
-0.000159829
0.0176714
-0.000104098
0.0178081
-4.72818e-05
0.0179328
-6.5028e-06
3.95524e-05
0.00238679
-0.0127198
0.00444554
-0.0118487
0.00608221
-0.00974211
0.00738037
-0.00769417
0.00840632
-0.00592908
0.0092087
-0.00444922
0.00983042
-0.0032338
0.010307
-0.00225405
0.0106685
-0.00148197
0.0109437
-0.000896898
0.0111628
-0.000485787
0.0113554
-0.000218244
0.0115324
-4.87636e-05
0.0116882
4.64059e-05
0.0118205
8.20965e-05
0.0119306
7.5421e-05
0.0120191
4.56411e-05
0.0120873
6.127e-06
0.012137
-3.53603e-05
0.0121754
-8.04863e-05
0.0122027
-0.000125651
0.0122213
-0.000167712
0.0122347
-0.000200455
0.0122457
-0.000215819
0.0122549
-0.000205485
0.0122572
-0.000162135
0.012253
-9.99258e-05
0.0122415
-3.57778e-05
0.012218
1.70247e-05
6.61384e-05
0.00168901
-0.0144088
0.00294049
-0.0131002
0.00383776
-0.0106394
0.00452717
-0.00838358
0.00506501
-0.00646692
0.00548494
-0.00486916
0.00581329
-0.00356216
0.00606716
-0.00250791
0.00625705
-0.00167186
0.00639354
-0.00103339
0.00649925
-0.000591494
0.00658999
-0.000308978
0.00667027
-0.000129049
0.0067312
-1.45253e-05
0.00675652
5.678e-05
0.00674736
8.45839e-05
0.00670457
8.84239e-05
0.00662556
8.51406e-05
0.00651131
7.88867e-05
0.00636365
6.71754e-05
0.00618851
4.94845e-05
0.00599196
2.88447e-05
0.00578051
1.09944e-05
0.00556227
2.42101e-06
0.00533488
2.19009e-05
0.00507274
0.000100008
0.00476143
0.000211379
0.00442692
0.00029874
0.0041177
0.000326237
0.000288027
0.000887358
-0.0152961
0.0012414
-0.0134543
0.00134298
-0.010741
0.00137232
-0.00841291
0.00135705
-0.00645165
0.00132609
-0.0048382
0.00129582
-0.00353188
0.00126753
-0.00247962
0.0012314
-0.00163573
0.00118105
-0.000983046
0.00113912
-0.000549565
0.00107174
-0.000241596
0.000932031
1.06621e-05
0.000736325
0.000181181
0.000486813
0.000306292
0.00019203
0.000379367
-0.00015005
0.000430504
-0.00054315
0.000478241
-0.00098985
0.000525586
-0.00148351
0.000560833
-0.00200528
0.000571259
-0.00252935
0.000552914
-0.003031
0.000512642
-0.00349115
0.000462575
-0.00388738
0.000418132
-0.00419612
0.00040874
-0.00443723
0.000452492
-0.00464974
0.000511249
-0.00484392
0.000520415
0.000456489
-9.04418e-05
-0.0152057
-0.000654112
-0.0128906
-0.00137885
-0.0100162
-0.00208869
-0.00770307
-0.00274963
-0.00579071
-0.00333596
-0.00425187
-0.00384044
-0.00302741
-0.00427201
-0.00204805
-0.00466073
-0.00124701
-0.00508328
-0.000560492
-0.00564609
1.32472e-05
-0.00627591
0.000388225
-0.0068344
0.00056915
-0.00732507
0.000671855
-0.00776997
0.000751191
-0.00819971
0.000809105
-0.00861894
0.000849736
-0.00902522
0.000884521
-0.00941994
0.000920304
-0.00981094
0.000951826
-0.0102055
0.000965847
-0.0106027
0.00095008
-0.0109902
0.000900185
-0.0113502
0.000822518
-0.0116678
0.000735796
-0.0119323
0.000673151
-0.0121387
0.000658926
-0.0122989
0.000671505
-0.0124354
0.00065688
0.000606344
-0.00109656
-0.0141091
-0.00270497
-0.0112822
-0.00433304
-0.00838815
-0.00588453
-0.00615158
-0.0072971
-0.00437815
-0.00856353
-0.00298544
-0.00969579
-0.00189515
-0.0107175
-0.00102632
-0.011645
-0.000319543
-0.0124304
0.000224879
-0.0130181
0.000600964
-0.0134749
0.000845033
-0.0139096
0.00100386
-0.0143409
0.00110321
-0.014761
0.00117125
-0.0151686
0.00121673
-0.0155631
0.00124422
-0.0159406
0.001262
-0.0162991
0.00127887
-0.0166436
0.00129625
-0.0169825
0.00130479
-0.0173206
0.00128813
-0.0176523
0.00123195
-0.0179638
0.00113404
-0.0182403
0.00101226
-0.0184701
0.000902928
-0.0186471
0.000835897
-0.0187794
0.000803813
-0.0188935
0.000771038
0.000735451
-0.00225246
-0.0118567
-0.00494023
-0.00859443
-0.0075707
-0.00575767
-0.00997986
-0.00374242
-0.0120979
-0.00226013
-0.0139143
-0.00116898
-0.0154459
-0.000363563
-0.0166892
0.000216962
-0.0176379
0.000629161
-0.0183441
0.000931095
-0.0189094
0.00116622
-0.0194026
0.00133829
-0.0198498
0.00145103
-0.0202699
0.00152327
-0.0206716
0.00157301
-0.0210597
0.00160484
-0.0214335
0.00161793
-0.0217881
0.0016166
-0.0221209
0.00161177
-0.0224367
0.00161203
-0.022745
0.00161302
-0.0230521
0.00159526
-0.0233541
0.00153398
-0.0236367
0.00141663
-0.023883
0.00125853
-0.0240815
0.00110148
-0.0242309
0.000985312
-0.0243428
0.000915721
-0.0244427
0.00087089
0.000848505
-0.00361354
-0.00824313
-0.00747786
-0.00473011
-0.0111296
-0.00210594
-0.0143194
-0.00055262
-0.0169388
0.00035929
-0.0189848
0.000876975
-0.0205321
0.00118373
-0.0217037
0.00138859
-0.022621
0.00154651
-0.0233684
0.00167843
-0.0239872
0.00178504
-0.0245097
0.0018608
-0.0249648
0.00190614
-0.0253764
0.00193486
-0.0257624
0.00195901
-0.0261329
0.00197534
-0.0264877
0.00197275
-0.0268205
0.0019494
-0.0271283
0.00191958
-0.0274178
0.00190154
-0.027702
0.00189714
-0.0279894
0.00188268
-0.0282754
0.00182001
-0.0285418
0.00168303
-0.0287669
0.00148363
-0.0289388
0.00127334
-0.0290619
0.00110845
-0.0291542
0.00100802
-0.0292398
0.00095643
0.000944371
-0.005568
-0.00267512
-0.0110814
0.000783331
-0.0154739
0.00228651
-0.0188329
0.00280643
-0.0213635
0.00288985
-0.0233077
0.0028212
-0.0248371
0.00271307
-0.0260496
0.00260112
-0.0270129
0.00250981
-0.0277872
0.00245274
-0.028423
0.00242079
-0.0289536
0.00239143
-0.0294037
0.00235629
-0.0297988
0.0023299
-0.0301645
0.00232469
-0.0305168
0.00232768
-0.0308549
0.00231086
-0.0311677
0.00226221
-0.0314499
0.00220172
-0.0317115
0.00216322
-0.0319725
0.00215808
-0.0322459
0.0021561
-0.0325257
0.00209979
-0.0327863
0.00194369
-0.0329976
0.00169485
-0.033145
0.00142079
-0.0332406
0.00120403
-0.0333115
0.00107891
-0.0333813
0.00102625
0.00102252
-0.00787353
0.0051984
-0.0142996
0.00720944
-0.0190081
0.00699492
-0.0225489
0.00634723
-0.0252283
0.00556929
-0.0272526
0.0048455
-0.0288027
0.00426311
-0.0300078
0.00380629
-0.0309489
0.00345086
-0.0316968
0.00320063
-0.0323118
0.00303588
-0.0328261
0.00290566
-0.0332537
0.00278387
-0.0336176
0.00269382
-0.0339532
0.00266031
-0.0342851
0.00265958
-0.0346096
0.00263539
-0.0349052
0.00255777
-0.03516
0.00245649
-0.0353892
0.00239243
-0.0356245
0.0023934
-0.0358874
0.00241898
-0.03617
0.00238239
-0.0364355
0.00220921
-0.0366394
0.00189877
-0.0367618
0.00154324
-0.0368247
0.00126692
-0.0368701
0.00112423
-0.036923
0.00107917
0.00108327
-0.0097797
0.0149781
-0.0174954
0.0149252
-0.0228485
0.012348
-0.0265473
0.010046
-0.029194
0.00821601
-0.0311008
0.00675224
-0.0325273
0.00568963
-0.0336326
0.00491164
-0.0344802
0.00429844
-0.0351429
0.00386329
-0.0356992
0.00359218
-0.0361776
0.00338413
-0.0365674
0.00317362
-0.0368816
0.00300801
-0.0371722
0.00295094
-0.0374803
0.00296772
-0.0377971
0.00295213
-0.0380803
0.00284097
-0.0383041
0.00268035
-0.0384913
0.00257953
-0.0386941
0.00259621
-0.0389484
0.00267327
-0.0392439
0.00267792
-0.039527
0.00249228
-0.0397308
0.00210256
-0.0398247
0.00163715
-0.0398445
0.0012868
-0.0398573
0.00113698
-0.0398936
0.00111551
0.00112881
-0.0129953
0.0279734
-0.0224588
0.0243886
-0.0278166
0.0177058
-0.031058
0.0132873
-0.0333707
0.0105288
-0.0349097
0.00829127
-0.0360208
0.00680072
-0.0369312
0.00582203
-0.0376228
0.00499002
-0.0381378
0.00437828
-0.0385975
0.00405188
-0.0390329
0.00381949
-0.0393763
0.00351704
-0.0396152
0.00324691
-0.0398357
0.00317151
-0.0401151
0.0032471
-0.040436
0.00327298
-0.0407171
0.00312214
-0.0409047
0.00286792
-0.0410323
0.0027071
-0.0411892
0.00275312
-0.0414356
0.00291968
-0.041757
0.00299927
-0.0420744
0.00280972
-0.0422874
0.00231552
-0.0423456
0.00169542
-0.0423043
0.00124551
-0.042273
0.00110564
-0.0422963
0.00113886
0.00116649
-0.0185109
0.0464843
-0.0299795
0.0358573
-0.0346265
0.0223528
-0.036162
0.0148228
-0.0378171
0.0121838
-0.038627
0.00910121
-0.0391499
0.00732366
-0.0398479
0.00652002
-0.040397
0.00553907
-0.0406847
0.00466597
-0.0409861
0.00435334
-0.0413818
0.00421521
-0.0416828
0.00381798
-0.041813
0.00337712
-0.0419219
0.0032804
-0.0421687
0.00349395
-0.0425198
0.00362401
-0.0428208
0.00342313
-0.0429634
0.00301054
-0.0429989
0.00274262
-0.0430843
0.00283851
-0.0433214
0.00315676
-0.0436853
0.00336325
-0.0440599
0.0031843
-0.0442949
0.00255051
-0.0443059
0.00170635
-0.0441726
0.00111229
-0.0440775
0.00101051
-0.0440974
0.00115878
0.00121584
0.207447
0.00576011
0.207034
0.0111749
0.206432
0.0163496
0.205647
0.0213676
0.204688
0.0262935
0.203561
0.0311816
0.202272
0.0360795
0.200826
0.0410289
0.19923
0.0460669
0.197489
0.0512264
0.195608
0.0565379
0.193593
0.0620295
0.19145
0.0677287
0.189183
0.0736628
0.186798
0.0798605
0.184298
0.0863531
0.181686
0.0931764
0.178965
0.100373
0.176134
0.107998
0.173192
0.11612
0.170134
0.124829
0.166955
0.134251
0.163651
0.144558
0.160223
0.155991
0.156692
0.168905
0.153152
0.183828
0.149966
0.201557
0.148806
0.223006
0.160447
0.245663
0.25887
0.235833
0.21249
0.00595251
0.212118
0.0115477
0.211574
0.0168931
0.210868
0.0220734
0.210008
0.0271538
0.209001
0.032189
0.207854
0.0372265
0.206575
0.042308
0.205171
0.0474704
0.203651
0.0527463
0.202023
0.0581657
0.200297
0.0637562
0.198481
0.0695445
0.196586
0.0755573
0.194625
0.081822
0.192609
0.0883687
0.190554
0.0952316
0.188476
0.102451
0.186398
0.110076
0.184347
0.11817
0.182364
0.126812
0.18051
0.136106
0.178882
0.146185
0.177654
0.157219
0.177145
0.169414
0.178008
0.182965
0.181658
0.197907
0.190692
0.213971
0.206117
0.230238
0.24579
0.219198
0.217658
0.00612242
0.217329
0.0118766
0.21685
0.0173717
0.21623
0.022693
0.215478
0.0279061
0.214602
0.0330655
0.21361
0.0382185
0.212511
0.0434065
0.211316
0.0486656
0.210035
0.0540277
0.208679
0.0595217
0.207261
0.0651741
0.205795
0.07101
0.204298
0.0770541
0.202789
0.0833316
0.201288
0.0898693
0.199823
0.0966969
0.198426
0.103848
0.197138
0.111364
0.196016
0.119292
0.195137
0.127691
0.194616
0.136628
0.194621
0.14618
0.195416
0.156424
0.197412
0.167418
0.201217
0.179159
0.207603
0.191521
0.217231
0.204343
0.229827
0.217642
0.228843
0.246774
0.222951
0.00626786
0.22267
0.0121579
0.222262
0.0177799
0.221736
0.0232193
0.2211
0.0285416
0.220365
0.033801
0.219539
0.039044
0.218634
0.0443113
0.217662
0.049638
0.216635
0.0550548
0.215568
0.0605889
0.214477
0.0662649
0.213381
0.0721058
0.212302
0.0781332
0.211265
0.0843686
0.2103
0.0908341
0.209444
0.0975527
0.208743
0.10455
0.208255
0.111852
0.208057
0.119491
0.208251
0.127497
0.208978
0.135901
0.21043
0.144727
0.212872
0.153983
0.216649
0.163641
0.222181
0.173626
0.229919
0.183783
0.240436
0.193827
0.25465
0.203428
0.210337
0.273155
0.228374
0.00638696
0.228144
0.0123879
0.227812
0.0181124
0.227386
0.0236455
0.226875
0.0290522
0.22629
0.034386
0.225641
0.0396924
0.224942
0.0450109
0.224205
0.0503752
0.223445
0.0558142
0.222681
0.0613532
0.221932
0.0670143
0.22122
0.0728174
0.220573
0.0787806
0.220021
0.0849206
0.219601
0.0912534
0.21936
0.0977942
0.219352
0.104558
0.219646
0.111558
0.220331
0.118806
0.22152
0.126308
0.223357
0.134064
0.226028
0.142056
0.229764
0.150247
0.234843
0.158561
0.241597
0.166873
0.250404
0.174977
0.26171
0.18252
0.275991
0.189148
0.193774
0.292554
0.233929
0.00647803
0.233754
0.0125633
0.233502
0.0183645
0.233182
0.0239657
0.232803
0.0294309
0.232376
0.0348124
0.231914
0.0401546
0.23143
0.0454953
0.230939
0.0508665
0.230458
0.056295
0.230007
0.0618037
0.22961
0.0674119
0.229291
0.0731358
0.229083
0.0789892
0.229019
0.0849838
0.229144
0.0911287
0.229507
0.097431
0.23017
0.103895
0.231207
0.110521
0.23271
0.117303
0.23479
0.124228
0.237584
0.13127
0.241254
0.138386
0.245995
0.145507
0.252026
0.15253
0.259591
0.159308
0.26893
0.165637
0.280225
0.171225
0.293572
0.175801
0.17885
0.308495
0.23962
0.00653959
0.239502
0.0126814
0.239334
0.0185322
0.239125
0.0241747
0.238884
0.0296715
0.238623
0.0350734
0.238355
0.0404231
0.238094
0.0457567
0.237856
0.051104
0.237662
0.0564896
0.237532
0.0619336
0.237492
0.067452
0.23757
0.0730574
0.2378
0.078759
0.238221
0.0845629
0.238878
0.0904719
0.239824
0.0964851
0.241122
0.102597
0.242846
0.108796
0.245085
0.115064
0.247942
0.121372
0.251535
0.127677
0.256001
0.13392
0.261488
0.140019
0.268155
0.145864
0.276151
0.151313
0.285596
0.156192
0.296537
0.160285
0.308962
0.163376
0.165198
0.322615
0.245448
0.00657037
0.24539
0.0127396
0.24531
0.0186121
0.245217
0.0242682
0.245119
0.029769
0.245029
0.0351633
0.24496
0.0404921
0.244928
0.0457893
0.244949
0.0510824
0.245045
0.0563935
0.245239
0.0617397
0.245557
0.0671338
0.24603
0.0725845
0.246693
0.0780966
0.247585
0.0836709
0.248752
0.0893043
0.250249
0.0949886
0.252135
0.100711
0.254481
0.10645
0.257367
0.112178
0.260882
0.117857
0.265124
0.123435
0.270198
0.128846
0.276211
0.134006
0.283263
0.138812
0.291435
0.143141
0.300775
0.146852
0.311271
0.149789
0.322856
0.15179
0.152725
0.335329
0.251418
0.00656936
0.251422
0.0127361
0.251432
0.0186013
0.251458
0.0242429
0.251507
0.0297196
0.251592
0.0350784
0.251726
0.0403579
0.251926
0.0455899
0.252209
0.0507994
0.252596
0.0560057
0.253113
0.0612232
0.253786
0.0664613
0.254645
0.071725
0.255726
0.0770151
0.25707
0.0823277
0.25872
0.0876544
0.260726
0.0929817
0.263147
0.0982901
0.266044
0.103553
0.269485
0.108737
0.273544
0.113797
0.278298
0.118681
0.283821
0.123323
0.290183
0.127643
0.297441
0.131554
0.305629
0.134953
0.314748
0.137733
0.324754
0.139783
0.335547
0.140997
0.141316
0.346955
0.257532
0.0065358
0.257599
0.0126694
0.257702
0.018498
0.257849
0.0240964
0.258047
0.029521
0.258309
0.0348164
0.258649
0.0400188
0.259081
0.0451575
0.259625
0.0502552
0.260302
0.0553286
0.261136
0.060389
0.262155
0.0654428
0.263388
0.0704918
0.26487
0.075533
0.266639
0.0805589
0.268736
0.085557
0.271208
0.0905097
0.274105
0.0953935
0.27748
0.100179
0.281388
0.104828
0.285887
0.109299
0.291031
0.113537
0.296871
0.117483
0.303447
0.121068
0.310782
0.124218
0.31888
0.126856
0.327712
0.128901
0.337215
0.13028
0.347284
0.130928
0.130824
0.357777
0.263794
0.00646924
0.263925
0.0125386
0.264122
0.018301
0.264391
0.0238277
0.264739
0.0291722
0.265179
0.0343767
0.265723
0.0394749
0.266387
0.0444938
0.267189
0.0494533
0.26815
0.0543677
0.269293
0.0592456
0.270645
0.0640908
0.272235
0.068902
0.274094
0.0736735
0.276259
0.0783948
0.278765
0.0830506
0.281654
0.0876208
0.284967
0.0920798
0.288749
0.096397
0.293042
0.100536
0.297887
0.104454
0.30332
0.108103
0.309371
0.111432
0.316057
0.114382
0.323379
0.116897
0.331318
0.118916
0.339832
0.120387
0.34885
0.121262
0.358274
0.121504
0.121114
0.367984
0.270207
0.00636948
0.270402
0.0123435
0.270693
0.01801
0.271084
0.0234365
0.271583
0.0286735
0.272199
0.0337605
0.272945
0.0387287
0.273836
0.0436025
0.27489
0.0483995
0.276126
0.0531315
0.277567
0.0578049
0.279237
0.062421
0.281163
0.0669763
0.283373
0.0714629
0.285899
0.0758684
0.288774
0.0801759
0.292031
0.084364
0.295704
0.0884071
0.299825
0.092275
0.304428
0.0959334
0.309537
0.099344
0.315175
0.102465
0.321354
0.105253
0.328073
0.107663
0.335319
0.10965
0.343061
0.111174
0.35125
0.112198
0.359815
0.112697
0.368668
0.112651
0.112073
0.377709
0.276774
0.00623665
0.277033
0.0120843
0.277417
0.0176257
0.27793
0.022924
0.278577
0.0280268
0.279366
0.0329706
0.280311
0.0377842
0.281424
0.0424896
0.282721
0.0471021
0.284222
0.0516312
0.285945
0.0560814
0.287914
0.0604521
0.290152
0.0647382
0.292685
0.0689302
0.295538
0.0730147
0.29874
0.0769743
0.302316
0.0807878
0.306293
0.0844304
0.310694
0.087874
0.31554
0.0910879
0.320845
0.0940388
0.326618
0.096692
0.332859
0.0990124
0.339556
0.100966
0.346686
0.10252
0.354212
0.103648
0.362082
0.104328
0.370231
0.104548
0.378581
0.104301
0.103607
0.387047
0.283498
0.0060711
0.283821
0.0117618
0.284297
0.0171491
0.284929
0.0222921
0.285721
0.0272349
0.28668
0.0320112
0.287817
0.0366475
0.289144
0.0411631
0.290674
0.0455714
0.292425
0.0498801
0.294415
0.0540919
0.296662
0.0582048
0.299188
0.0622126
0.302013
0.0661052
0.305159
0.0698689
0.308646
0.0734865
0.312496
0.076938
0.316726
0.0802004
0.321351
0.0832489
0.326383
0.0860566
0.331826
0.0885958
0.337679
0.0908386
0.343933
0.0927582
0.35057
0.0943294
0.357559
0.0955309
0.364862
0.0963455
0.372428
0.0967623
0.380198
0.0967777
0.388104
0.096395
0.0956346
0.396076
0.290384
0.00587349
0.290768
0.0113773
0.291335
0.0165825
0.292083
0.0215439
0.293016
0.026302
0.294139
0.0308881
0.295461
0.0353257
0.296992
0.0396324
0.298744
0.0438194
0.300731
0.047893
0.302968
0.0518545
0.305472
0.055701
0.308259
0.0594257
0.311346
0.0630183
0.314749
0.0664656
0.318484
0.0697515
0.322564
0.0728575
0.327001
0.0757634
0.331803
0.0784477
0.336971
0.0808879
0.342505
0.0830619
0.348396
0.0849481
0.354627
0.0865267
0.361176
0.0877805
0.368011
0.088696
0.375092
0.0892643
0.382373
0.0894817
0.3898
0.0893508
0.397315
0.0888797
0.0880897
0.40486
0.297435
0.00564469
0.297879
0.0109325
0.298533
0.0159286
0.299394
0.0206831
0.300463
0.0252334
0.301743
0.0296078
0.303241
0.0338277
0.304965
0.0379084
0.306925
0.0418596
0.309132
0.0456861
0.311598
0.0493885
0.314336
0.0529632
0.317358
0.0564034
0.320677
0.0596991
0.324305
0.062838
0.328251
0.0658054
0.332523
0.0685852
0.337127
0.07116
0.342063
0.0735117
0.347328
0.0756225
0.352915
0.077475
0.35881
0.0790534
0.364992
0.0803439
0.371437
0.0813356
0.378112
0.0820213
0.384979
0.0823977
0.391994
0.0824662
0.399112
0.0822333
0.406282
0.0817098
0.0809166
0.413455
0.304654
0.00538575
0.305157
0.0104295
0.305895
0.0151904
0.306864
0.0197142
0.308063
0.0240349
0.309492
0.0281781
0.311157
0.0321629
0.313063
0.0360027
0.315216
0.0397058
0.317626
0.0432761
0.320302
0.0467133
0.323251
0.0500139
0.326483
0.053171
0.330007
0.0561758
0.333828
0.0590168
0.337952
0.0616814
0.342381
0.0641557
0.347116
0.0664253
0.352152
0.0684757
0.357482
0.070293
0.363092
0.0718644
0.368967
0.0731788
0.375083
0.0742274
0.381415
0.0750042
0.387929
0.0755065
0.394592
0.0757351
0.401363
0.0756948
0.408203
0.0753942
0.415067
0.0748454
0.0740682
0.421915
0.312046
0.00509789
0.312605
0.0098707
0.313424
0.0143717
0.314495
0.0186423
0.315817
0.0227132
0.317388
0.0266072
0.31921
0.0303414
0.321285
0.0339275
0.323618
0.0373726
0.326214
0.0406797
0.329079
0.0438482
0.332219
0.0468746
0.335637
0.0497528
0.339338
0.0524745
0.343325
0.0550301
0.347598
0.0574087
0.352155
0.0595989
0.356991
0.061589
0.362099
0.063368
0.367466
0.0649254
0.373078
0.0662523
0.378916
0.0673415
0.384955
0.0681881
0.391169
0.0687898
0.397529
0.0691471
0.404
0.0692637
0.410549
0.0691463
0.417138
0.0688047
0.423732
0.0682513
0.0675041
0.430296
0.319615
0.00478243
0.320227
0.00925872
0.321122
0.0134765
0.322292
0.0174728
0.32373
0.0212751
0.325433
0.0249038
0.327401
0.0283737
0.329633
0.0316953
0.332132
0.0348743
0.334898
0.0379134
0.337935
0.0408117
0.341243
0.0435659
0.344825
0.0461707
0.348681
0.048619
0.352808
0.0509026
0.357204
0.0530126
0.361863
0.0549398
0.366777
0.0566754
0.371934
0.0582109
0.37732
0.0595392
0.382918
0.0606543
0.388708
0.0615523
0.394664
0.0622312
0.400763
0.0626913
0.406975
0.0629355
0.413269
0.0629691
0.419615
0.0628
0.425982
0.0624381
0.432338
0.0618957
0.0611891
0.438653
0.327365
0.00444074
0.328027
0.00859624
0.328995
0.0125087
0.330257
0.0162111
0.331804
0.0197276
0.333632
0.0230764
0.335735
0.0262702
0.338113
0.029318
0.340762
0.0322248
0.343683
0.0349927
0.346873
0.0376209
0.350333
0.0401065
0.354059
0.0424449
0.358048
0.0446302
0.362294
0.0466557
0.366793
0.0485144
0.371533
0.0501992
0.376505
0.0517034
0.381695
0.0530213
0.387086
0.0541481
0.39266
0.0550805
0.398395
0.0558168
0.404269
0.0563572