/*--------------------------------*- C++ -*----------------------------------*\
  =========                 |
  \\      /  F ield         | OpenFOAM: The Open Source CFD Toolbox
   \\    /   O peration     | Website:  https://openfoam.org
    \\  /    A nd           | Version:  dev
     \\/     M anipulation  |
\*---------------------------------------------------------------------------*/
FoamFile
{
    version     2.0;
    format      ascii;
    class       volScalarField;
    location    "9.3";
    object      p;
}
// * * * * * * * * * * * * * * * * * * * * * * * * * * * * * * * * * * * * * //

dimensions      [0 2 -2 0 0 0 0];

internalField   nonuniform List<scalar> 
2790
(
146.682
146.589
146.857
147.428
148.208
149.165
150.298
151.604
153.081
154.722
156.522
158.473
160.567
162.792
165.132
167.568
170.072
172.611
175.143
177.617
179.976
182.153
184.083
185.704
186.963
187.837
188.273
188.329
188.379
188.592
146.479
146.497
146.789
147.357
148.134
149.088
150.216
151.517
152.986
154.619
156.409
158.35
160.433
162.647
164.976
167.402
169.898
172.431
174.961
177.439
179.808
182.003
183.957
185.605
186.89
187.764
188.161
188.215
188.348
188.632
146.281
146.368
146.68
147.237
148.001
148.942
150.055
151.338
152.786
154.394
156.156
158.065
160.113
162.289
164.577
166.96
169.412
171.903
174.394
176.842
179.192
181.384
183.356
185.046
186.397
187.372
187.965
188.32
188.636
188.934
146.056
146.174
146.498
147.047
147.796
148.721
149.814
151.073
152.492
154.066
155.79
157.655
159.654
161.775
164.003
166.321
168.706
171.129
173.556
175.947
178.254
180.425
182.407
184.147
185.601
186.753
187.621
188.291
188.844
189.363
145.795
145.927
146.26
146.801
147.533
148.437
149.505
150.732
152.114
153.646
155.32
157.129
159.065
161.116
163.268
165.503
167.802
170.137
172.478
174.791
177.037
179.172
181.154
182.944
184.515
185.857
186.987
187.949
188.76
189.507
145.494
145.632
145.967
146.499
147.211
148.089
149.125
150.314
151.651
153.131
154.746
156.489
158.35
160.318
162.379
164.517
166.712
168.942
171.179
173.394
175.557
177.634
179.596
181.417
183.08
184.581
185.928
187.133
188.153
189.071
145.151
145.29
145.622
146.141
146.83
147.678
148.677
149.823
151.108
152.529
154.076
155.741
157.516
159.389
161.347
163.372
165.449
167.554
169.667
171.764
173.819
175.81
177.718
179.528
181.234
182.834
184.328
185.707
186.872
187.918
144.767
144.904
145.228
145.731
146.394
147.208
148.165
149.261
150.489
151.842
153.312
154.892
156.57
158.336
160.177
162.076
164.017
165.982
167.949
169.901
171.819
173.686
175.494
177.236
178.915
180.534
182.088
183.56
184.81
185.961
144.34
144.474
144.787
145.27
145.905
146.681
147.592
148.633
149.796
151.075
152.462
153.946
155.518
157.167
158.878
160.636
162.426
164.229
166.029
167.808
169.552
171.25
172.898
174.498
176.06
177.595
179.104
180.574
181.846
183.084
143.874
144.002
144.302
144.763
145.366
146.1
146.961
147.942
149.036
150.235
151.529
152.911
154.368
155.888
157.458
159.062
160.684
162.306
163.912
165.486
167.015
168.489
169.907
171.276
172.609
173.928
175.249
176.587
177.787
179.091
143.369
143.49
143.775
144.211
144.779
145.47
146.277
147.193
148.213
149.325
150.523
151.794
153.127
154.51
155.928
157.364
158.801
160.223
161.609
162.944
164.213
165.403
166.51
167.539
168.504
169.433
170.364
171.364
172.326
173.645
142.826
142.941
143.209
143.618
144.149
144.792
145.542
146.391
147.331
148.353
149.448
150.602
151.805
153.042
154.298
155.554
156.793
157.994
159.136
160.199
161.161
162.003
162.712
163.279
163.706
164.017
164.262
164.571
164.954
166.128
142.249
142.356
142.606
142.986
143.477
144.072
144.762
145.54
146.398
147.325
148.312
149.345
150.412
151.496
152.581
153.648
154.675
155.639
156.514
157.274
157.887
158.322
158.545
158.521
158.219
157.623
156.751
155.762
154.818
155.324
141.64
141.739
141.969
142.318
142.769
143.312
143.94
144.645
145.417
146.247
147.123
148.031
148.956
149.883
150.791
151.66
152.466
153.18
153.771
154.203
154.434
154.411
154.073
153.342
152.121
150.295
147.736
144.441
140.501
138.473
141.001
141.091
141.301
141.618
142.027
142.517
143.081
143.711
144.396
145.126
145.888
146.668
147.449
148.215
148.943
149.609
150.187
150.643
150.94
151.03
150.857
150.347
149.403
147.889
145.612
142.283
137.446
130.44
119.999
107.807
0.528351
0.508344
0.438698
0.342422
0.24285
0.152112
0.0750983
0.0134796
-0.0326023
-0.0642699
-0.0823354
-0.0892187
-0.0877443
-0.0806114
-0.0702717
-0.0588392
-0.0479243
-0.0385394
-0.0311353
-0.0257159
-0.0219615
-0.0193611
-0.017363
-0.0155231
-0.013602
-0.0115358
-0.00934211
-0.00703335
-0.00457027
-0.00186713
0.47951
0.456978
0.391444
0.302656
0.21085
0.126657
0.0546838
-0.00318874
-0.0462512
-0.0741334
-0.0897809
-0.094725
-0.0915574
-0.0829392
-0.0713598
-0.0589781
-0.0474238
-0.0377054
-0.0302307
-0.0249325
-0.0214001
-0.0190293
-0.0171981
-0.0154393
-0.013539
-0.0114724
-0.00928601
-0.00700159
-0.00456769
-0.00175987
0.424397
0.39754
0.334661
0.252985
0.169564
0.0929225
0.0271438
-0.0258057
-0.0651551
-0.0910404
-0.103698
-0.105599
-0.0994912
-0.0880386
-0.0738695
-0.0593145
-0.0461173
-0.0353254
-0.0273658
-0.02213
-0.019062
-0.0173184
-0.0160338
-0.0146198
-0.0128877
-0.0109024
-0.00879507
-0.00662728
-0.00433048
-0.00168973
0.369762
0.338463
0.277419
0.201882
0.126307
0.0569226
-0.00273247
-0.0506862
-0.0860279
-0.108673
-0.118598
-0.117456
-0.108117
-0.0934666
-0.0764056
-0.0594488
-0.0444439
-0.0325234
-0.0241486
-0.019155
-0.016786
-0.0158687
-0.0152201
-0.0141399
-0.0125224
-0.010575
-0.00853503
-0.00650437
-0.0044147
-0.00207813
0.328964
0.293497
0.234104
0.163065
0.0933004
0.0291351
-0.026111
-0.0704359
-0.102776
-0.122821
-0.130549
-0.127312
-0.115367
-0.0979885
-0.0785046
-0.0595844
-0.0431413
-0.030368
-0.0217497
-0.0170796
-0.0153861
-0.0151785
-0.0149841
-0.0140477
-0.0123885
-0.0103501
-0.00828506
-0.00631092
-0.00429586
-0.00211434
0.314116
0.273627
0.21545
0.146208
0.07886
0.0165846
-0.0371331
-0.0802283
-0.111573
-0.130861
-0.138026
-0.133358
-0.119674
-0.100693
-0.0798808
-0.0599131
-0.0427194
-0.0295028
-0.0207164
-0.0161829
-0.0148315
-0.0150699
-0.0151108
-0.0142437
-0.0125636
-0.0104817
-0.00839699
-0.00644386
-0.00454519
-0.00223698
0.336072
0.28795
0.229175
0.157404
0.0875017
0.0228027
-0.0329607
-0.0776259
-0.109926
-0.12956
-0.137712
-0.134424
-0.12086
-0.101793
-0.0809102
-0.0609317
-0.0437889
-0.0306575
-0.0220037
-0.0174948
-0.0159452
-0.0158219
-0.0156629
-0.0146832
-0.0129378
-0.0108101
-0.00868941
-0.00681347
-0.00512249
-0.00241057
0.400687
0.343607
0.276485
0.196416
0.118169
0.0467066
-0.0142844
-0.0627888
-0.0980549
-0.120664
-0.131604
-0.130627
-0.119338
-0.102033
-0.082452
-0.063397
-0.0467779
-0.0337484
-0.0248085
-0.0197669
-0.0176819
-0.0171738
-0.0168628
-0.015884
-0.0140884
-0.0117891
-0.00948592
-0.00762693
-0.00600705
-0.00260796
0.510221
0.435908
0.350437
0.254402
0.162797
0.0811721
0.0127904
-0.0409379
-0.0807671
-0.108129
-0.122552
-0.124298
-0.116035
-0.101403
-0.083952
-0.0664581
-0.0507832
-0.0380434
-0.0288055
-0.0231122
-0.0203924
-0.0195336
-0.0191927
-0.0182867
-0.016367
-0.0136727
-0.0109241
-0.00882746
-0.00695494
-0.00280396
0.651947
0.546863
0.432312
0.313736
0.206601
0.114687
0.0384842
-0.0219488
-0.0665968
-0.0964946
-0.113071
-0.117526
-0.112146
-0.100233
-0.0851989
-0.069709
-0.0554009
-0.0431829
-0.0336657
-0.0272668
-0.0239531
-0.0229748
-0.0229388
-0.0223206
-0.0202022
-0.0167668
-0.0131302
-0.0103567
-0.00786054
-0.00298833
0.796918
0.644247
0.500468
0.358179
0.233321
0.130836
0.05008
-0.0117861
-0.0573316
-0.0883152
-0.106315
-0.112643
-0.109272
-0.0993681
-0.086473
-0.0731708
-0.0605948
-0.0490905
-0.0391969
-0.0319124
-0.0280446
-0.0273491
-0.0282304
-0.0283562
-0.0260189
-0.0213479
-0.0161597
-0.0121396
-0.00868584
-0.00315518
0.919173
0.710611
0.52476
0.36312
0.231163
0.126871
0.0461681
-0.0143355
-0.0576545
-0.0869718
-0.104652
-0.111551
-0.108772
-0.0994842
-0.0879399
-0.076882
-0.066509
-0.0559363
-0.0453681
-0.0367236
-0.0322067
-0.0323477
-0.0351291
-0.0368173
-0.0343382
-0.0277095
-0.0199905
-0.0140482
-0.00940483
-0.00329995
0.96826
0.687431
0.471155
0.302682
0.177428
0.0857545
0.016477
-0.0353072
-0.0708872
-0.0943792
-0.109492
-0.115756
-0.111888
-0.101033
-0.0894566
-0.0807477
-0.0734577
-0.0642093
-0.0523349
-0.0412972
-0.0357301
-0.0374319
-0.0436332
-0.0482634
-0.0458898
-0.0362222
-0.0244957
-0.0158392
-0.00998069
-0.00341927
0.781433
0.412847
0.245069
0.13528
0.0514977
-0.000671757
-0.0411777
-0.0761761
-0.0979768
-0.110408
-0.120934
-0.12655
-0.119932
-0.10395
-0.0898944
-0.0839315
-0.0816484
-0.074694
-0.0604297
-0.0450198
-0.0374738
-0.0417112
-0.05366
-0.0634828
-0.0617629
-0.0474155
-0.0293717
-0.0170281
-0.0103414
-0.00351164
0.13496
-0.311221
-0.261016
-0.166102
-0.16155
-0.12626
-0.114338
-0.135964
-0.143743
-0.13627
-0.138225
-0.144652
-0.134064
-0.107481
-0.0869488
-0.0852394
-0.0921919
-0.0897097
-0.0710692
-0.0474328
-0.0358996
-0.0439077
-0.0650495
-0.0836004
-0.0836102
-0.0621054
-0.034019
-0.016669
-0.0103189
-0.00357794
140.322
140.402
140.591
140.875
141.24
141.676
142.173
142.725
143.32
143.947
144.592
145.24
145.874
146.473
147.016
147.475
147.819
148.01
148.004
147.744
147.157
146.149
144.585
142.272
138.911
134.008
126.643
114.906
92.783
33.1374
139.595
139.666
139.832
140.082
140.4
140.778
141.208
141.678
142.18
142.7
143.224
143.737
144.218
144.648
145.001
145.248
145.354
145.277
144.967
144.357
143.364
141.873
139.728
136.695
132.418
126.312
117.346
103.788
84.2707
55.8055
138.825
138.886
139.029
139.243
139.514
139.833
140.192
140.58
140.986
141.397
141.799
142.173
142.501
142.76
142.923
142.958
142.828
142.488
141.882
140.939
139.568
137.648
135.015
131.438
126.592
120.021
111.135
99.2909
85.0334
68.3553
138.014
138.066
138.184
138.361
138.584
138.843
139.13
139.434
139.743
140.045
140.323
140.559
140.734
140.823
140.798
140.626
140.268
139.677
138.794
137.548
135.846
133.572
130.573
126.652
121.562
115.01
106.698
96.2889
83.7187
68.5437
137.165
137.205
137.3
137.439
137.613
137.811
138.025
138.244
138.457
138.649
138.804
138.904
138.928
138.851
138.644
138.274
137.701
136.877
135.745
134.234
132.258
129.712
126.465
122.361
117.22
110.84
103.022
93.5192
82.1644
69.1625
136.278
136.308
136.378
136.48
136.604
136.741
136.882
137.017
137.134
137.217
137.252
137.218
137.096
136.859
136.48
135.924
135.152
134.119
132.769
131.037
128.847
126.107
122.712
118.542
113.467
107.351
100.072
91.5286
81.7109
71.0305
135.357
135.377
135.422
135.486
135.56
135.637
135.706
135.758
135.78
135.758
135.675
135.513
135.25
134.862
134.322
133.595
132.645
131.429
129.896
127.988
125.64
122.776
119.315
115.169
110.251
104.482
97.8063
90.2124
81.7431
72.7341
134.405
134.414
134.434
134.461
134.487
134.504
134.503
134.473
134.403
134.278
134.083
133.798
133.404
132.875
132.187
131.307
130.201
128.829
127.147
125.107
122.652
119.725
116.264
112.211
107.51
102.124
96.0366
89.2682
81.8684
74.1098
133.425
133.424
133.42
133.411
133.389
133.347
133.277
133.169
133.011
132.788
132.485
132.086
131.569
130.912
130.09
129.075
127.836
126.337
124.54
122.406
119.89
116.948
113.538
109.622
105.17
100.168
94.621
88.5637
82.0494
75.306
132.422
132.411
132.384
132.338
132.27
132.172
132.036
131.853
131.61
131.295
130.892
130.386
129.757
128.984
128.046
126.915
125.564
123.965
122.085
119.891
117.351
114.433
111.11
107.358
103.165
98.5326
93.4777
88.0397
82.2718
76.3591
131.4
131.379
131.33
131.25
131.137
130.985
130.786
130.531
130.209
129.807
129.313
128.709
127.979
127.105
126.064
124.837
123.397
121.722
119.786
117.563
115.029
112.164
108.95
105.376
101.442
97.1575
92.5451
87.6444
82.5036
77.2712
130.364
130.334
130.263
130.15
129.995
129.792
129.534
129.212
128.816
128.335
127.756
127.064
126.246
125.282
124.157
122.85
121.342
119.613
117.644
115.416
112.912
110.12
107.03
103.64
99.9557
95.9919
91.7735
87.3369
82.7241
78.0544
129.319
129.281
129.189
129.045
128.85
128.599
128.285
127.902
127.438
126.885
126.23
125.461
124.565
123.526
122.33
120.961
119.403
117.64
115.658
113.444
110.987
108.281
105.322
102.114
98.6663
94.9952
91.1255
87.0898
82.9239
78.7241
128.272
128.225
128.114
127.942
127.709
127.413
127.049
126.608
126.083
125.465
124.743
123.907
122.944
121.843
120.591
119.174
117.582
115.802
113.823
111.638
109.241
106.629
103.803
100.77
97.5419
94.1353
90.5733
86.8842
83.0983
79.2937
127.228
127.173
127.045
126.845
126.578
126.242
125.831
125.339
124.759
124.083
123.302
122.408
121.39
120.238
118.943
117.493
115.88
114.096
112.134
109.989
107.659
105.144
102.449
99.5827
96.5565
93.3874
90.096
86.707
83.2456
79.7754
126.194
126.132
125.987
125.763
125.464
125.091
124.638
124.1
123.471
122.746
121.915
120.972
119.909
118.717
117.39
115.918
114.297
112.52
110.583
108.486
106.227
103.81
101.242
98.5303
95.6884
92.7316
89.6781
86.5491
83.3659
80.1802
125.175
125.108
124.948
124.701
124.374
123.968
123.477
122.899
122.228
121.459
120.587
119.604
118.504
117.283
115.933
114.45
112.829
111.068
109.164
107.119
104.933
102.613
100.164
97.5955
94.9205
92.1525
89.308
86.4046
83.4604
80.5179
124.181
124.107
123.934
123.667
123.315
122.879
122.356
121.743
121.036
120.23
119.323
118.308
117.181
115.938
114.574
113.088
111.475
109.736
107.87
105.879
103.766
101.537
99.2002
96.7635
94.2387
91.6384
88.977
86.2695
83.5313
80.7973
123.216
123.138
122.952
122.668
122.294
121.832
121.281
120.638
119.9
119.064
118.128
117.088
115.941
114.684
113.314
111.83
110.232
108.519
106.693
104.757
102.715
100.573
98.3396
96.0223
93.632
91.1801
88.6789
86.1416
83.5811
81.0263
122.29
122.207
122.011
121.712
121.318
120.834
120.259
119.59
118.827
117.967
117.008
115.949
114.788
113.523
112.152
110.677
109.096
107.412
105.628
103.746
101.771
99.7109
97.5717
95.3622
93.0917
90.7705
88.4095
86.0199
83.6127
81.212
121.409
121.322
121.117
120.804
120.394
119.891
119.295
118.606
117.822
116.942
115.967
114.894
113.724
112.456
111.089
109.625
108.065
106.412
104.668
102.838
100.927
98.9418
96.8885
94.7753
92.611
90.4046
88.1657
85.9041
83.6291
81.3609
120.581
120.49
120.278
119.954
119.529
119.011
118.398
117.691
116.89
115.996
115.008
113.927
112.752
111.484
110.124
108.675
107.137
105.514
103.81
102.029
100.177
98.2596
96.2834
94.2559
92.185
90.0789
87.946
85.7948
83.6335
81.4789
119.815
119.721
119.502
119.167
118.731
118.199
117.572
116.852
116.038
115.133
114.136
113.049
111.873
110.609
109.258
107.824
106.309
104.716
103.05
101.314
99.5154
97.6589
95.7512
93.7991
91.8097
89.7906
87.7491
85.6927
83.6287
81.5711
119.118
119.021
118.796
118.453
118.007
117.464
116.826
116.095
115.271
114.358
113.355
112.266
111.091
109.832
108.492
107.074
105.581
104.016
102.384
100.69
98.9391
97.1366
95.2889
93.4023
91.4835
89.539
87.5756
85.6
83.6187
81.6433
118.499
118.4
118.169
117.818
117.363
116.811
116.165
115.425
114.594
113.675
112.669
111.579
110.406
109.154
107.826
106.423
104.95
103.411
101.811
100.154
98.4443
96.6888
94.8928
93.0623
91.2034
89.3221
87.4245
85.5168
83.6046
81.6977
117.967
117.865
117.629
117.271
116.809
116.25
115.596
114.85
114.014
113.091
112.084
110.995
109.826
108.581
107.263
105.875
104.421
102.905
101.332
99.7058
98.0324
96.3168
94.5644
92.7809
90.9719
89.1432
87.3002
85.4486
83.5936
81.7436
117.532
117.427
117.183
116.818
116.349
115.783
115.124
114.373
113.534
112.609
111.601
110.513
109.349
108.11
106.802
105.427
103.989
102.492
100.942
99.3424
97.6985
96.0155
94.2984
92.5528
90.7839
88.9971
87.1976
85.3903
83.5803
81.7743
117.206
117.095
116.842
116.47
115.996
115.427
114.763
114.009
113.167
112.241
111.233
110.147
108.986
107.754
106.453
105.089
103.664
102.184
100.652
99.0727
97.4521
95.7945
94.1052
92.3891
90.6514
88.8971
87.1312
85.3585
83.5837
81.813
117.004
116.869
116.599
116.221
115.745
115.173
114.507
113.751
112.908
111.982
110.975
109.891
108.734
107.506
106.212
104.855
103.44
101.97
100.451
98.8863
97.2814
95.641
93.9701
92.2736
90.5565
88.8236
87.0796
85.3291
83.5766
81.827
116.986
116.787
116.489
116.104
115.626
115.05
114.381
113.623
112.78
111.853
110.847
109.765
108.61
107.386
106.097
104.746
103.337
101.875
100.364
98.8091
97.2146
95.5854
93.9263
92.2422
90.5379
88.8182
87.0877
85.3508
83.612
81.8753
-50.3971
-30.1241
-11.0875
35.411
27.8998
15.7274
50.8041
38.6777
27.4128
52.2429
41.8014
33.7335
56.5873
48.283
41.5079
60.9778
54.0559
48.152
64.258
58.3669
53.3091
66.8619
61.8297
57.5142
69.0579
64.7199
61.0063
70.9122
67.1292
63.8986
72.472
69.1385
66.299
73.7868
70.822
68.3016
74.897
72.2375
69.98
75.835
73.4306
71.3919
76.6272
74.4381
72.583
77.2957
75.2894
73.5897
77.8586
76.0085
74.4411
78.3312
76.6154
75.1611
78.7265
77.1263
75.7689
79.0556
77.5551
76.2811
79.328
77.9135
76.711
79.5524
78.2119
77.0708
79.7354
78.4585
77.3696
79.8852
78.6622
77.6176
80.0042
78.8265
77.8191
80.1042
78.964
77.9866
80.1766
79.0662
78.1137
80.2499
79.1623
78.227
80.2843
79.213
78.2917
80.3535
79.2963
78.3815
-3.05968
-2.9889
-1.54387
-0.406983
-0.365191
-0.260358
-0.203396
-0.238958
-0.220276
-0.154954
-0.14117
-0.163662
-0.158258
-0.11507
-0.0782798
-0.0824158
-0.105762
-0.11156
-0.084902
-0.0459473
-0.0268698
-0.0410221
-0.0771901
-0.11047
-0.114468
-0.0820174
-0.0374613
-0.0129125
-0.00943482
-0.00362436
1.94181
-0.900911
0.700453
0.172062
-1.21339
-0.94472
-0.2602
-0.253027
-0.226282
-0.122219
-0.148773
-0.235452
-0.239794
-0.135408
-0.0412256
-0.0584013
-0.118361
-0.146073
-0.109521
-0.042403
-0.00869769
-0.0326446
-0.0923893
-0.14906
-0.160272
-0.110395
-0.0377368
-0.00186327
-0.00622243
-0.00367538
13.1245
4.77301
1.92977
-0.536234
-0.814826
0.832547
0.96018
-0.521251
-0.855702
-0.460358
-0.125745
-0.225002
-0.238168
-0.0483285
0.0537708
-0.0324191
-0.167348
-0.232258
-0.165192
-0.0284455
0.0391773
-0.00301248
-0.100073
-0.194117
-0.220709
-0.148455
-0.0311285
0.0235652
0.0028009
-0.003823
22.9435
13.0387
7.13291
3.36587
1.68332
1.21137
-0.0895882
-0.767574
-0.278772
0.89465
0.700582
-0.403947
-0.767101
-0.489704
0.0549805
0.0721502
-0.167692
-0.289364
-0.176029
0.0452351
0.121486
0.0321409
-0.124983
-0.277744
-0.332809
-0.230725
-0.0162312
0.073351
0.0237872
-0.00434559
32.1363
22.347
15.0138
9.72788
6.1084
3.64565
1.7601
0.784074
0.562791
0.508717
-0.0276813
-0.636951
-0.653443
0.480531
0.988794
0.24432
-0.33989
-0.641186
-0.545448
-0.0511955
0.222496
0.108403
-0.123192
-0.345669
-0.428252
-0.242907
0.0309431
0.162279
0.064043
-0.00599991
40.1335
31.189
23.2893
16.8535
11.9307
8.2948
5.63066
3.75657
2.49022
1.56479
0.793048
0.2065
0.040873
0.417416
0.409801
0.0941354
-0.382333
-0.643758
-0.284082
0.503437
0.62697
0.172699
-0.180265
-0.502218
-0.700568
-0.570157
0.02022
0.289735
0.127372
-0.0111432
46.6618
38.841
31.0517
24.1535
18.5284
14.0757
10.5582
7.80607
5.71328
4.14049
2.92321
1.97904
1.3784
1.10658
0.847693
0.480183
-0.000124171
-0.271117
-0.104697
0.246329
0.37775
0.181905
-0.157709
-0.535217
-0.736686
-0.365536
0.392014
0.538967
0.204909
-0.024222
51.9788
45.2354
37.9659
31.1281
25.243
20.2995
16.1614
12.7415
9.97636
7.7665
5.98465
4.55539
3.48107
2.7275
2.12695
1.52231
0.932885
0.545293
0.462705
0.550526
0.56343
0.340883
-0.0324458
-0.394095
-0.544033
-0.281
0.177564
0.3983
0.305416
-0.063656
56.316
50.4902
43.8965
37.4159
31.5945
26.4826
22.0148
18.1562
14.8779
12.1236
9.81883
7.90834
6.36436
5.14082
4.12843
3.22629
2.43833
1.84745
1.49888
1.31233
1.1123
0.778914
0.365855
0.00700204
-0.1555
-0.0305719
0.251164
0.396953
0.261251
-0.303097
59.8559
54.7816
48.8717
42.881
37.3239
32.2784
27.7153
23.6303
20.0252
16.8816
14.1633
11.8333
9.85923
8.1995
6.78727
5.56155
4.508
3.65257
3.00716
2.51612
2.0687
1.58783
1.09603
0.677931
0.424882
0.380938
0.455865
0.436903
0.172527
-0.518094
62.7634
58.2992
53.0137
47.5411
42.3423
37.501
33.0043
28.8638
25.1008
21.7211
18.7132
16.0571
13.7301
11.7032
9.9362
8.38975
7.04364
5.89793
4.94743
4.15307
3.4474
2.77884
2.1498
1.60677
1.20329
0.956385
0.7973
0.578351
0.171239
-0.592764
65.172
61.205
56.4632
51.4811
46.6648
42.0931
37.7593
33.6806
29.8868
26.3969
23.2148
20.3348
17.7459
15.4315
13.3684
11.5313
9.90232
8.47219
7.22931
6.14569
5.17875
4.29277
3.48104
2.7649
2.17081
1.69969
1.29912
0.86758
0.307117
-0.521849
67.1814
63.6238
59.3462
54.8052
50.358
46.0755
41.9514
38.0033
34.2629
30.755
27.4922
24.4789
21.7132
19.1885
16.893
14.812
12.9324
11.2438
9.73398
8.38255
7.16166
6.04628
5.02639
4.10792
3.29968
2.59413
1.95141
1.30174
0.575939
-0.331067
68.8671
65.65
61.7669
57.6132
53.5053
49.5053
45.606
41.8222
38.1845
34.7192
31.4434
28.3669
25.4945
22.8264
20.3589
18.0848
15.9962
14.0848
12.3405
10.7487
9.29076
7.94889
6.71244
5.57894
4.54713
3.60573
2.72442
1.85546
0.952666
-0.0563026
70.2871
67.3558
63.8084
59.9916
56.1876
52.4512
48.7734
45.1656
41.6555
38.2689
35.0242
31.9343
29.0078
26.2497
23.6613
21.2411
18.9854
16.889
14.9448
13.1428
11.4705
9.91491
8.46617
7.11798
5.86414
4.69239
3.5795
2.49273
1.40201
0.262573
71.4866
68.7967
65.536
62.0111
58.4763
54.9799
51.5112
48.0781
44.705
41.4159
38.2292
35.1588
32.2156
29.4072
26.7384
24.2114
21.8258
19.5796
17.4685
15.4861
13.6241
11.873
10.2244
8.67059
7.20366
5.81167
4.47653
3.17521
1.8876
0.590168
72.5014
70.0163
67.0011
63.7293
60.4314
57.1504
53.8742
50.6078
47.3718
44.1882
41.0744
38.0443
35.1095
32.2793
29.5607
26.9581
24.4738
22.1081
19.8594
17.724
15.6965
13.7702
11.9381
10.1928
8.52584
6.9264
5.37984
3.86899
2.37896
0.900997
73.3603
71.0496
68.2451
65.1926
62.1024
59.0133
55.9119
52.8005
49.6966
46.6197
43.5857
40.608
37.6981
34.8662
32.1202
29.4661
26.908
24.4482
22.0868
19.8225
17.652
15.5708
13.5731
11.6523
9.80046
8.00767
6.26153
4.54806
2.85436
1.18072
74.0866
71.9247
69.3014
66.4389
63.5304
60.611
57.6667
54.6973
51.7174
48.7441
45.7918
42.8729
39.9984
37.1783
34.4212
31.7341
29.122
26.5886
24.1357
21.7634
19.4701
17.253
15.1074
13.0277
11.0066
9.03507
7.10197
5.19476
3.3006
1.42435
74.6999
72.6649
70.1974
67.4995
64.7494
61.9795
59.175
56.3341
53.4686
50.5935
47.7214
44.8635
42.0301
39.2309
36.4745
33.7681
31.1177
28.5275
26.0007
23.5383
21.1403
18.8046
16.5281
14.3058
12.131
9.99546
7.88865
5.79846
3.71122
1.63323
75.2161
73.2895
70.9558
68.4001
65.7877
63.1486
60.4679
57.7419
54.9805
52.1963
49.4006
46.6033
43.8138
41.041
38.2933
35.578
32.9013
30.268
27.6819
25.145
22.6579
20.2198
17.8282
15.4788
13.1656
10.8807
8.61407
6.35336
4.08385
1.81151
75.6493
73.8147
71.5957
69.1624
66.6692
64.144
61.5718
58.9477
56.2796
53.5784
50.8538
48.1146
45.3691
42.6256
39.8919
37.1752
34.4815
31.816
29.1829
26.5846
24.0225
21.4964
19.0044
16.5428
14.1061
11.6866
9.27446
6.85706
4.41873
1.96409
76.0105
74.2539
72.1326
69.8042
67.4134
64.9865
62.5086
59.9738
57.3883
54.7615
52.1018
49.4167
46.7137
44.0003
41.2836
38.5705
35.8668
33.1779
30.5077
27.8595
25.2347
22.6336
20.0549
17.4952
14.9494
12.41
9.8671
7.30793
4.71607
2.09437
76.3107
74.6196
72.5811
70.3417
68.0381
65.6952
63.2983
60.8407
58.3272
55.766
53.1641
50.5283
47.865
45.1808
42.4824
39.7761
37.0675
34.3618
31.663
28.9743
26.2977
23.6335
20.9807
18.3364
15.6955
13.0508
10.3922
7.70695
4.97802
2.20607
76.5562
74.9194
72.9499
70.7851
68.5547
66.2826
63.9542
61.5622
59.1104
56.6057
54.0544
51.462
48.8344
46.1775
43.4972
40.7993
38.0892
35.3718
32.6511
29.9302
27.2111
24.4945
21.7795
19.0632
16.3409
13.6053
10.8464
8.05119
5.20251
2.29875
76.7586
75.166
73.2533
71.1498
68.9796
66.7658
64.4941
62.1567
59.7564
57.2992
54.7907
52.2357
49.6391
47.0063
44.3428
41.6538
38.9444
36.2191
33.4819
30.7357
27.9827
25.2234
22.4571
19.6811
16.8906
14.0785
11.2347
8.34598
5.39515
2.37754
76.9148
75.3572
73.4892
71.4344
69.312
67.1447
64.9182
62.6245
60.2656
57.8468
55.373
52.8485
50.2776
47.6652
45.0161
42.3354
39.6276
36.8971
34.1476
31.3821
28.6026
25.8096
23.0025
20.1786
17.3331
14.4588
11.5457
8.58048
5.54603
2.43543
77.0471
75.5152
73.6813
71.6634
69.5771
67.4449
65.2527
62.9922
60.6648
58.2754
55.8283
53.3272
50.7763
48.1797
45.5422
42.8683
40.1623
37.4284
34.6701
31.8903
29.0908
26.2724
23.4342
20.5736
17.6858
14.7636
11.7967
8.77175
5.67137
2.48491
77.1286
75.6128
73.8013
71.8083
69.7465
67.6378
65.4685
63.2302
60.924
58.5543
56.1251
53.6399
51.1025
48.5168
45.8872
43.218
40.5135
37.7775
35.0135
32.2243
29.4117
26.5763
23.7173
20.8319
17.9154
14.9605
11.9566
8.89012
5.74361
2.50484
77.2177
75.703
73.9037
71.9258
69.8777
67.7815
65.6244
63.3978
61.1026
58.7429
56.3227
53.8453
51.3143
48.7335
46.1072
43.4396
40.7347
37.9966
35.2284
32.4331
29.6123
26.7668
23.8956
20.9961
18.0634
15.09
12.0653
8.97448
5.79774
2.51121
)
;

boundaryField
{
    inlet
    {
        type            zeroGradient;
    }
    outlet
    {
        type            fixedValue;
        value           uniform 0;
    }
    flap
    {
        type            zeroGradient;
    }
    upperWall
    {
        type            zeroGradient;
    }
    lowerWall
    {
        type            zeroGradient;
    }
    frontAndBack
    {
        type            empty;
    }
}


// ************************************************************************* //
