/*--------------------------------*- C++ -*----------------------------------*\
  =========                 |
  \\      /  F ield         | OpenFOAM: The Open Source CFD Toolbox
   \\    /   O peration     | Website:  https://openfoam.org
    \\  /    A nd           | Version:  dev
     \\/     M anipulation  |
\*---------------------------------------------------------------------------*/
FoamFile
{
    version     2.0;
    format      ascii;
    class       volScalarField;
    location    "8.8";
    object      p;
}
// * * * * * * * * * * * * * * * * * * * * * * * * * * * * * * * * * * * * * //

dimensions      [0 2 -2 0 0 0 0];

internalField   nonuniform List<scalar> 
2790
(
146.702
146.609
146.876
147.447
148.227
149.185
150.317
151.624
153.101
154.742
156.541
158.492
160.586
162.811
165.152
167.587
170.092
172.631
175.163
177.637
179.995
182.172
184.103
185.723
186.983
187.857
188.293
188.348
188.399
188.612
146.499
146.517
146.809
147.377
148.153
149.108
150.235
151.536
153.005
154.638
156.428
158.369
160.452
162.666
164.996
167.421
169.917
172.45
174.981
177.459
179.827
182.022
183.976
185.625
186.909
187.783
188.18
188.235
188.367
188.652
146.3
146.388
146.699
147.257
148.02
148.962
150.075
151.357
152.805
154.413
156.175
158.085
160.133
162.308
164.597
166.979
169.431
171.922
174.414
176.861
179.211
181.404
183.376
185.065
186.416
187.392
187.985
188.34
188.655
188.954
146.075
146.194
146.518
147.067
147.815
148.74
149.834
151.092
152.511
154.086
155.809
157.675
159.674
161.794
164.023
166.341
168.725
171.148
173.575
175.966
178.273
180.445
182.427
184.166
185.62
186.772
187.64
188.311
188.864
189.383
145.814
145.947
146.279
146.821
147.553
148.457
149.525
150.752
152.134
153.665
155.339
157.149
159.084
161.135
163.287
165.523
167.821
170.156
172.498
174.811
177.056
179.191
181.173
182.964
184.534
185.876
187.007
187.969
188.78
189.527
145.514
145.652
145.986
146.518
147.23
148.108
149.144
150.333
151.671
153.151
154.766
156.508
158.369
160.337
162.399
164.537
166.732
168.961
171.198
173.414
175.576
177.654
179.615
181.436
183.099
184.601
185.947
187.153
188.173
189.09
145.171
145.31
145.642
146.16
146.85
147.698
148.697
149.842
151.128
152.548
154.095
155.761
157.536
159.409
161.366
163.392
165.468
167.574
169.687
171.783
173.838
175.829
177.737
179.547
181.253
182.854
184.347
185.726
186.891
187.937
144.786
144.924
145.248
145.75
146.414
147.227
148.185
149.281
150.508
151.861
153.332
154.911
156.59
158.356
160.196
162.095
164.037
166.001
167.969
169.921
171.838
173.706
175.513
177.255
178.934
180.553
182.108
183.58
184.83
185.98
144.36
144.493
144.807
145.29
145.924
146.7
147.612
148.652
149.816
151.095
152.481
153.965
155.538
157.186
158.897
160.656
162.445
164.249
166.048
167.827
169.571
171.269
172.917
174.517
176.08
177.615
179.123
180.594
181.865
183.103
143.894
144.022
144.322
144.783
145.385
146.12
146.981
147.962
149.056
150.254
151.549
152.93
154.387
155.908
157.477
159.081
160.703
162.325
163.931
165.505
167.034
168.508
169.927
171.295
172.628
173.947
175.268
176.606
177.806
179.11
143.388
143.51
143.795
144.231
144.799
145.489
146.296
147.213
148.232
149.345
150.542
151.813
153.147
154.53
155.947
157.383
158.821
160.242
161.629
162.964
164.232
165.422
166.529
167.558
168.522
169.452
170.383
171.382
172.345
173.663
142.846
142.961
143.229
143.637
144.168
144.812
145.562
146.411
147.351
148.373
149.467
150.622
151.825
153.062
154.317
155.574
156.812
158.013
159.156
160.218
161.18
162.022
162.731
163.298
163.725
164.036
164.28
164.589
164.972
166.146
142.269
142.376
142.626
143.005
143.497
144.091
144.781
145.559
146.417
147.345
148.331
149.365
150.431
151.516
152.601
153.667
154.694
155.658
156.534
157.293
157.906
158.341
158.564
158.539
158.237
157.641
156.769
155.78
154.835
155.341
141.66
141.758
141.989
142.338
142.789
143.332
143.959
144.664
145.437
146.267
147.142
148.05
148.976
149.902
150.811
151.68
152.485
153.199
153.791
154.223
154.453
154.43
154.092
153.361
152.14
150.313
147.754
144.458
140.517
138.488
141.021
141.111
141.32
141.638
142.047
142.537
143.101
143.73
144.416
145.146
145.907
146.687
147.469
148.234
148.962
149.629
150.206
150.662
150.959
151.049
150.876
150.366
149.422
147.908
145.63
142.301
137.463
130.456
120.012
107.817
0.577429
0.557591
0.488396
0.392523
0.293034
0.201949
0.124123
0.0612027
0.0132986
-0.0206455
-0.0415357
-0.0516714
-0.053687
-0.0500485
-0.0430322
-0.034652
-0.0264852
-0.0195695
-0.0144239
-0.0111328
-0.00943225
-0.00881097
-0.00867651
-0.00853067
-0.0080785
-0.00724299
-0.00609083
-0.00471817
-0.00316443
-0.0013981
0.52899
0.506589
0.44144
0.352994
0.261237
0.176696
0.103942
0.0448256
-2.81744e-05
-0.0304573
-0.0488171
-0.0570328
-0.0574216
-0.0523532
-0.0441299
-0.0348141
-0.0260135
-0.0187629
-0.0135445
-0.0103806
-0.00892027
-0.00854919
-0.00859953
-0.00854462
-0.00810303
-0.00724115
-0.00606928
-0.00470418
-0.00317163
-0.00126391
0.474526
0.447784
0.385227
0.303819
0.220389
0.143376
0.0768314
0.0226838
-0.0183599
-0.0465353
-0.0622272
-0.0675706
-0.0651174
-0.0572824
-0.0465147
-0.0350599
-0.0246385
-0.0163415
-0.0106818
-0.00764201
-0.006721
-0.00704015
-0.00769255
-0.00801503
-0.00771718
-0.0068704
-0.00570534
-0.00440268
-0.00296921
-0.00120302
0.420817
0.389665
0.328898
0.253541
0.177877
0.108078
0.0476483
-0.00148497
-0.0384818
-0.0634078
-0.0764018
-0.0790159
-0.0735942
-0.0626996
-0.0491027
-0.0352786
-0.0230713
-0.0136674
-0.00762371
-0.00487428
-0.00472423
-0.00591482
-0.00724793
-0.00792336
-0.00770078
-0.00680944
-0.00563392
-0.00441863
-0.00315748
-0.00163443
0.381231
0.34599
0.286864
0.215921
0.145979
0.0813396
0.0252785
-0.0202655
-0.0542941
-0.0765781
-0.0876031
-0.088549
-0.0808801
-0.0674307
-0.0514698
-0.0356911
-0.02203
-0.0117482
-0.00544175
-0.00299897
-0.00358267
-0.0055166
-0.00736296
-0.00820518
-0.00788946
-0.00680363
-0.00548666
-0.00424435
-0.00301514
-0.00165809
0.36799
0.327685
0.269794
0.200593
0.132983
0.0701667
0.015561
-0.028853
-0.0620181
-0.0838299
-0.0947425
-0.0945937
-0.0855472
-0.0705735
-0.0532773
-0.0363732
-0.0218291
-0.0109528
-0.00436708
-0.00201545
-0.00317791
-0.00556829
-0.00770283
-0.00864299
-0.00829868
-0.00713013
-0.00574558
-0.00449488
-0.00336386
-0.00181022
0.392028
0.343694
0.285136
0.2134
0.143124
0.077793
0.0210164
-0.0251458
-0.0595134
-0.0818631
-0.0935288
-0.0952659
-0.08703
-0.0721423
-0.054793
-0.0378142
-0.0232108
-0.0123111
-0.00574116
-0.00332345
-0.00407482
-0.0062077
-0.0081998
-0.00907969
-0.00870763
-0.00751542
-0.00610724
-0.00493828
-0.00400935
-0.0020179
0.458073
0.401081
0.333833
0.253666
0.174994
0.102835
0.0407446
-0.00942474
-0.0469899
-0.0724391
-0.0872403
-0.091433
-0.0853015
-0.0723985
-0.0564501
-0.0403956
-0.0262791
-0.0154304
-0.00853531
-0.00556122
-0.00568244
-0.00741965
-0.00928373
-0.0102066
-0.00985469
-0.0085619
-0.00701923
-0.00588111
-0.00499126
-0.00225377
0.568259
0.493784
0.407961
0.311823
0.219785
0.137377
0.0678598
0.0124753
-0.0295924
-0.0598685
-0.0783097
-0.0849238
-0.0816314
-0.0714411
-0.0577317
-0.0433345
-0.0302403
-0.0197313
-0.0125533
-0.00890754
-0.00832029
-0.00965417
-0.011465
-0.0124766
-0.0120683
-0.0104703
-0.00855577
-0.00721002
-0.00604325
-0.00249222
0.708247
0.603132
0.488003
0.369741
0.262617
0.16997
0.0923917
0.0303921
-0.0162863
-0.0489949
-0.0693534
-0.0783044
-0.0775866
-0.0699934
-0.0587136
-0.046395
-0.034761
-0.0248519
-0.0174307
-0.0130634
-0.011822
-0.0129779
-0.0150624
-0.0163795
-0.0158412
-0.0135912
-0.01086
-0.0088669
-0.00705626
-0.00271952
0.847906
0.696583
0.553687
0.411367
0.2867
0.184212
0.102756
0.0393911
-0.00820939
-0.0419232
-0.0634323
-0.0738779
-0.0748293
-0.0690422
-0.0598245
-0.0497074
-0.0398707
-0.0307462
-0.0229818
-0.017704
-0.0158403
-0.017211
-0.0201848
-0.0222812
-0.021611
-0.0182203
-0.0140019
-0.010783
-0.00799192
-0.00292845
0.966523
0.759224
0.575118
0.414516
0.282629
0.177987
0.0966445
0.0349221
-0.0102169
-0.0420077
-0.0628566
-0.073496
-0.0747124
-0.0693082
-0.0613033
-0.0533803
-0.0457683
-0.0376241
-0.0292021
-0.0225171
-0.0199097
-0.0220279
-0.0268752
-0.0305962
-0.0299046
-0.0246675
-0.017975
-0.0128372
-0.0088223
-0.00311363
1.0074
0.730103
0.516284
0.349952
0.225674
0.134114
0.0644253
0.0116872
-0.0254296
-0.051051
-0.0689394
-0.078582
-0.0784343
-0.0712562
-0.0630463
-0.0573566
-0.0527992
-0.046005
-0.0362759
-0.0271167
-0.0233182
-0.0268687
-0.0351015
-0.0418622
-0.0414524
-0.0333225
-0.022673
-0.0147958
-0.00950996
-0.00327108
0.807516
0.447297
0.28499
0.178774
0.0965334
0.0446471
0.00395768
-0.031656
-0.0546794
-0.0688278
-0.0816624
-0.0903113
-0.0872467
-0.0748329
-0.0639622
-0.0608213
-0.0611799
-0.0566935
-0.0445708
-0.0309189
-0.0249298
-0.030819
-0.0447375
-0.0568303
-0.0573382
-0.0447386
-0.0278196
-0.0161864
-0.00998245
-0.00339872
0.151426
-0.283218
-0.224397
-0.124009
-0.118385
-0.0839758
-0.0722926
-0.0937896
-0.102424
-0.0962789
-0.0999945
-0.109166
-0.102187
-0.0792868
-0.0617782
-0.0625626
-0.0719798
-0.0719994
-0.0555385
-0.0335028
-0.023214
-0.0325706
-0.0555617
-0.0765694
-0.0792048
-0.0597678
-0.0328574
-0.0160785
-0.0100708
-0.00349652
140.341
140.422
140.611
140.895
141.26
141.695
142.193
142.745
143.34
143.967
144.612
145.26
145.893
146.493
147.035
147.494
147.838
148.029
148.023
147.763
147.177
146.168
144.604
142.291
138.93
134.026
126.66
114.921
92.7932
33.13
139.614
139.686
139.852
140.101
140.42
140.798
141.227
141.698
142.2
142.72
143.244
143.756
144.238
144.668
145.021
145.268
145.374
145.297
144.986
144.376
143.383
141.893
139.747
136.714
132.437
126.331
117.364
103.804
84.2855
55.8198
138.845
138.906
139.049
139.263
139.534
139.853
140.212
140.6
141.006
141.417
141.819
142.193
142.521
142.78
142.942
142.977
142.848
142.508
141.902
140.959
139.588
137.668
135.034
131.457
126.611
120.04
111.154
99.3107
85.0547
68.3816
138.034
138.085
138.204
138.381
138.604
138.863
139.149
139.453
139.763
140.064
140.342
140.579
140.754
140.842
140.817
140.646
140.288
139.697
138.814
137.568
135.866
133.592
130.592
126.672
121.582
115.031
106.718
96.3109
83.7428
68.5712
137.184
137.225
137.319
137.459
137.633
137.831
138.045
138.264
138.477
138.669
138.824
138.924
138.948
138.87
138.664
138.294
137.721
136.897
135.765
134.254
132.278
129.732
126.485
122.382
117.24
110.862
103.043
93.5423
82.1893
69.19
136.298
136.328
136.398
136.499
136.624
136.761
136.902
137.037
137.154
137.237
137.272
137.238
137.116
136.879
136.499
135.944
135.172
134.139
132.789
131.057
128.867
126.127
122.732
118.563
113.488
107.373
100.094
91.5523
81.7363
71.0582
135.377
135.396
135.441
135.506
135.58
135.657
135.726
135.778
135.8
135.778
135.695
135.533
135.27
134.882
134.341
133.615
132.665
131.449
129.916
128.008
125.66
122.796
119.336
115.19
110.273
104.504
97.8292
90.2365
81.7687
72.7616
134.424
134.434
134.454
134.481
134.507
134.524
134.523
134.493
134.423
134.298
134.103
133.818
133.423
132.895
132.207
131.327
130.221
128.849
127.168
125.127
122.672
119.745
116.285
112.232
107.532
102.147
96.0598
89.2924
81.8939
74.1368
133.445
133.444
133.44
133.431
133.409
133.367
133.297
133.189
133.03
132.808
132.505
132.106
131.589
130.932
130.11
129.095
127.856
126.357
124.561
122.426
119.91
116.969
113.559
109.643
105.192
100.19
94.6442
88.5878
82.0746
75.3324
132.442
132.431
132.404
132.358
132.29
132.192
132.056
131.873
131.63
131.315
130.912
130.406
129.777
129.005
128.066
126.935
125.585
123.985
122.105
119.912
117.372
114.454
111.131
107.379
103.187
98.5552
93.5009
88.0637
82.2966
76.3849
131.42
131.399
131.35
131.27
131.157
131.005
130.806
130.551
130.229
129.827
129.333
128.729
127.999
127.125
126.085
124.857
123.418
121.743
119.806
117.583
115.05
112.185
108.971
105.398
101.465
97.1801
92.5682
87.6681
82.528
77.2964
130.384
130.354
130.283
130.17
130.015
129.812
129.554
129.232
128.836
128.355
127.776
127.085
126.266
125.303
124.177
122.87
121.362
119.634
117.665
115.437
112.933
110.141
107.051
103.662
99.9778
96.0144
91.7965
87.3604
82.7481
78.0791
129.339
129.301
129.209
129.065
128.87
128.619
128.305
127.922
127.458
126.905
126.25
125.481
124.585
123.546
122.35
120.981
119.423
117.66
115.679
113.465
111.008
108.302
105.344
102.136
98.6883
95.0175
91.1482
87.1129
82.9475
78.7482
128.292
128.245
128.134
127.962
127.729
127.433
127.069
126.628
126.103
125.485
124.763
123.927
122.964
121.863
120.611
119.195
117.602
115.822
113.844
111.659
109.262
106.65
103.824
100.792
97.5638
94.1575
90.5958
86.907
83.1216
79.3173
127.248
127.193
127.065
126.865
126.598
126.262
125.851
125.359
124.779
124.103
123.323
122.428
121.411
120.259
118.963
117.514
115.901
114.117
112.155
110.01
107.68
105.165
102.471
99.6042
96.5782
93.4094
90.1183
86.7295
83.2685
79.7985
126.214
126.152
126.007
125.783
125.484
125.111
124.658
124.12
123.492
122.766
121.935
120.992
119.929
118.738
117.41
115.939
114.317
112.54
110.604
108.507
106.248
103.832
101.263
98.5518
95.71
92.7534
89.7002
86.5714
83.3883
80.2029
125.196
125.128
124.968
124.721
124.394
123.988
123.498
122.919
122.249
121.48
120.607
119.624
118.525
117.303
115.953
114.47
112.85
111.089
109.185
107.14
104.954
102.634
100.185
97.6168
94.9419
92.1742
89.3298
86.4265
83.4825
80.5401
124.201
124.127
123.954
123.687
123.335
122.899
122.376
121.763
121.056
120.251
119.343
118.328
117.201
115.958
114.595
113.108
111.496
109.757
107.89
105.899
103.787
101.558
99.2212
96.7847
94.26
91.6599
88.9985
86.2912
83.5531
80.8192
123.237
123.158
122.973
122.688
122.314
121.853
121.301
120.658
119.92
119.085
118.149
117.109
115.961
114.704
113.335
111.851
110.252
108.54
106.714
104.778
102.736
100.594
98.3605
96.0434
93.6531
91.2013
88.7003
86.1631
83.6026
81.0478
122.31
122.227
122.031
121.732
121.338
120.854
120.279
119.61
118.847
117.987
117.029
115.97
114.808
113.543
112.173
110.697
109.117
107.433
105.648
103.766
101.792
99.7317
97.5926
95.3831
93.1127
90.7916
88.4306
86.0411
83.634
81.2333
121.429
121.342
121.137
120.824
120.414
119.911
119.315
118.626
117.842
116.962
115.987
114.915
113.744
112.476
111.11
109.646
108.086
106.432
104.689
102.859
100.948
98.9625
96.9092
94.7961
92.6318
90.4255
88.1867
85.925
83.6501
81.3819
120.601
120.511
120.298
119.974
119.55
119.031
118.418
117.711
116.911
116.016
115.028
113.947
112.772
111.504
110.145
108.695
107.157
105.535
103.831
102.05
100.198
98.2802
96.304
94.2766
92.2057
90.0996
87.9667
85.8155
83.6543
81.4997
119.835
119.741
119.522
119.187
118.751
118.219
117.593
116.872
116.059
115.153
114.156
113.069
111.893
110.629
109.279
107.845
106.329
104.737
103.07
101.335
99.536
97.6795
95.7718
93.8197
91.8303
89.8112
87.7697
85.7133
83.6493
81.5916
119.138
119.041
118.816
118.473
118.027
117.484
116.846
116.115
115.291
114.378
113.375
112.286
111.111
109.852
108.512
107.094
105.601
104.036
102.405
100.711
98.9595
97.1571
95.3094
93.4228
91.5039
89.5594
87.5961
85.6205
83.6391
81.6637
118.519
118.42
118.189
117.838
117.384
116.832
116.185
115.445
114.614
113.695
112.689
111.599
110.427
109.175
107.846
106.443
104.971
103.432
101.831
100.174
98.4647
96.7092
94.9132
93.0827
91.2237
89.3424
87.4449
85.5371
83.6248
81.7179
117.987
117.885
117.649
117.291
116.829
116.27
115.616
114.87
114.034
113.112
112.104
111.015
109.846
108.601
107.283
105.895
104.441
102.925
101.352
99.7261
98.0527
96.3371
94.5847
92.8012
90.9922
89.1634
87.3205
85.4688
83.6137
81.7636
117.552
117.447
117.203
116.838
116.369
115.804
115.144
114.394
113.554
112.629
111.621
110.533
109.369
108.131
106.822
105.447
104.009
102.513
100.962
99.3628
97.7188
96.0357
94.3187
92.5731
90.8042
89.0173
87.2177
85.4104
83.6003
81.7943
117.227
117.115
116.863
116.49
116.017
115.447
114.784
114.029
113.187
112.261
111.253
110.167
109.007
107.774
106.474
105.109
103.684
102.204
100.672
99.093
97.4724
95.8148
94.1254
92.4093
90.6715
88.9172
87.1513
85.3785
83.6037
81.8328
117.024
116.89
116.62
116.242
115.766
115.194
114.528
113.771
112.929
112.002
110.995
109.912
108.754
107.526
106.232
104.875
103.46
101.99
100.471
98.9065
97.3016
95.6613
93.9903
92.2938
90.5766
88.8437
87.0996
85.3491
83.5965
81.8468
117.006
116.807
116.509
116.125
115.646
115.07
114.402
113.644
112.8
111.873
110.868
109.785
108.631
107.407
106.117
104.766
103.357
101.895
100.384
98.8294
97.2349
95.6056
93.9465
92.2624
90.5581
88.8383
87.1077
85.3708
83.6318
81.8951
-50.4458
-30.1775
-11.1153
35.4294
27.9314
15.7864
50.8375
38.7176
27.4621
52.2741
41.8354
33.7715
56.6179
48.3162
41.5439
61.0082
54.0883
48.1864
64.2875
58.398
53.3416
66.8905
61.8594
57.5449
69.0855
64.7485
61.0356
70.939
67.1566
63.9266
72.498
69.165
66.3259
73.812
70.8476
68.3276
74.9215
72.2623
70.0051
75.8589
73.4548
71.4163
76.6506
74.4616
72.6067
77.3185
75.3123
73.6128
77.881
76.031
74.4637
78.3532
76.6374
75.1832
78.7482
77.1479
75.7906
79.0769
77.5764
76.3024
79.349
77.9345
76.732
79.5731
78.2327
77.0915
79.756
78.4789
77.3901
79.9055
78.6825
77.6378
80.0244
78.8466
77.8392
80.1243
78.9839
78.0066
80.1965
79.0861
78.1335
80.2697
79.1821
78.2467
80.3041
79.2327
78.3114
80.3733
79.316
78.4012
-3.02886
-2.95157
-1.50236
-0.364361
-0.3248
-0.222672
-0.164895
-0.19816
-0.1807
-0.117011
-0.104101
-0.128904
-0.12731
-0.088177
-0.0543355
-0.0603983
-0.0858688
-0.094249
-0.0699099
-0.0323707
-0.0140708
-0.0291029
-0.0668838
-0.102847
-0.110072
-0.0802022
-0.0368873
-0.0126475
-0.0092963
-0.00356961
2.00317
-0.857772
0.739942
0.214565
-1.16171
-0.900362
-0.228819
-0.213813
-0.189729
-0.0868537
-0.111247
-0.199173
-0.208219
-0.109708
-0.0194199
-0.0372856
-0.0985571
-0.128963
-0.0951844
-0.0294613
0.00418159
-0.0199245
-0.0808234
-0.140414
-0.155806
-0.109413
-0.0380838
-0.00202707
-0.00619031
-0.00363989
13.178
4.8223
1.98928
-0.472014
-0.762729
0.834598
0.975894
-0.466347
-0.811603
-0.426832
-0.0889573
-0.188377
-0.208891
-0.0278408
0.070945
-0.0119808
-0.146706
-0.215062
-0.152421
-0.0173425
0.0520038
0.0107188
-0.0867049
-0.183894
-0.21625
-0.148984
-0.0329422
0.0228536
0.00274839
-0.00379505
22.9876
13.0872
7.18795
3.41946
1.7256
1.23617
-0.0410377
-0.718684
-0.259695
0.913152
0.740867
-0.358021
-0.725959
-0.468006
0.066075
0.0917351
-0.146172
-0.272714
-0.166191
0.0555219
0.135216
0.0473045
-0.109112
-0.265158
-0.328481
-0.232685
-0.020469
0.0721246
0.0237347
-0.00431003
32.1766
22.3909
15.0599
9.7727
6.15017
3.68583
1.80501
0.823883
0.591206
0.548629
0.0185149
-0.585798
-0.613859
0.470835
0.982301
0.275562
-0.310192
-0.618602
-0.533234
-0.0485725
0.232788
0.124522
-0.104587
-0.329205
-0.423172
-0.248394
0.0237224
0.16088
0.0641946
-0.00593826
40.1707
31.2287
23.3308
16.8955
11.9722
8.33508
5.66995
3.79485
2.52756
1.60636
0.835908
0.248857
0.0712829
0.42207
0.417952
0.119861
-0.352694
-0.624342
-0.290099
0.504627
0.646162
0.19015
-0.157444
-0.477503
-0.68906
-0.585228
0.00232149
0.288446
0.12792
-0.0110636
46.6962
38.8774
31.0899
24.1927
18.5676
14.1141
10.5962
7.84434
5.75131
4.17866
2.96111
2.0143
1.40529
1.12164
0.861846
0.502603
0.0254018
-0.253832
-0.100074
0.255798
0.389202
0.199562
-0.132289
-0.507377
-0.731326
-0.395499
0.377033
0.54527
0.205436
-0.0241039
52.0108
45.269
38.0011
31.1644
25.2797
20.3361
16.1981
12.7782
10.0125
7.80208
6.01933
4.58741
3.50753
2.74703
2.14427
1.54316
0.954951
0.562212
0.4731
0.560538
0.575584
0.359493
-0.00869034
-0.372377
-0.541229
-0.297933
0.167576
0.396748
0.30456
-0.063971
56.3463
50.5216
43.9291
37.4495
31.6287
26.5171
22.0493
18.1906
14.9119
12.1569
9.85097
7.93816
6.39032
5.16233
4.1478
3.24645
2.45844
1.86431
1.51153
1.3238
1.12612
0.796809
0.38578
0.0228504
-0.152811
-0.0404449
0.242032
0.393675
0.260825
-0.303133
59.8846
54.8112
48.9023
42.9124
37.3559
32.3106
27.7476
23.6625
20.057
16.9127
14.1932
11.8612
9.88447
8.22177
6.80761
5.58132
4.52701
3.66937
3.02126
2.52923
2.08302
1.60399
1.11233
0.690207
0.428146
0.375434
0.449091
0.434
0.172176
-0.518102
62.7909
58.3272
53.0425
47.5705
42.3722
37.5311
33.0345
28.8939
25.1306
21.7502
18.7411
16.0835
13.7546
11.7255
9.95678
8.40922
7.06203
5.91467
4.96232
4.16698
3.46146
2.7933
2.16344
1.61692
1.20714
0.954101
0.79319
0.576112
0.170716
-0.592947
65.1983
61.2318
56.4905
51.5089
46.693
42.1215
37.7877
33.7088
29.9147
26.4242
23.2411
20.3599
17.7695
15.4535
13.3888
11.5505
9.92031
8.48881
7.24447
6.1598
5.19235
4.3059
3.49288
2.7738
2.17519
1.6997
1.29718
0.866128
0.306607
-0.522138
67.2068
63.6495
59.3723
54.8316
50.3847
46.1023
41.9783
38.03
34.2892
30.7807
27.5172
24.5028
21.736
19.21
16.9131
14.8309
12.9501
11.2603
9.74912
8.39657
7.17479
6.05847
5.03708
4.11612
3.30455
2.59575
1.95114
1.30117
0.575665
-0.331351
68.8917
65.6748
61.792
57.6386
53.5307
49.5308
45.6315
41.8475
38.2095
34.7437
31.4672
28.3898
25.5164
22.8472
20.3785
18.1033
16.0136
14.101
12.3555
10.7625
9.30349
7.96045
6.72246
5.58683
4.55243
3.60851
2.72545
1.85574
0.952749
-0.0564885
70.3109
67.3798
63.8326
60.0159
56.212
52.4757
48.7978
45.1898
41.6794
38.2923
35.047
31.9564
29.029
26.2699
23.6805
21.2593
19.0025
16.9049
14.9596
13.1564
11.4829
9.92607
8.47582
7.12578
5.86984
4.69602
3.58152
2.49377
1.4025
0.262558
71.5098
68.82
65.5594
62.0346
58.4998
55.0034
51.5345
48.1013
44.7279
41.4383
38.2511
35.1801
32.2361
29.4268
26.7572
24.2292
21.8426
19.5953
17.4831
15.4996
13.6363
11.884
10.2338
8.67843
7.2097
5.81595
4.47932
3.17689
1.88849
0.59036
72.5241
70.039
67.0238
63.7521
60.4541
57.1731
53.8968
50.6301
47.3939
44.2099
41.0956
38.0649
35.1294
32.2985
29.579
26.9755
24.4902
22.1235
19.8737
17.7372
15.7085
13.781
11.9475
10.2007
8.53219
6.93119
5.38322
3.8712
2.38021
0.901402
73.3824
71.0718
68.2673
65.2148
62.1245
59.0353
55.9338
52.8221
49.718
46.6407
43.6062
40.628
37.7175
34.8849
32.1381
29.4832
26.9242
24.4634
22.101
19.8356
17.664
15.5815
13.5825
11.6604
9.80708
8.01285
6.26537
4.55069
2.85592
1.18131
74.1083
71.9464
69.3231
66.4606
63.552
60.6325
57.688
54.7183
51.7382
48.7646
45.8118
42.8924
40.0173
37.1966
34.4388
31.7508
29.1379
26.6036
24.1497
21.7763
19.482
17.2637
15.1169
13.0359
11.0135
9.04056
7.10615
5.19771
3.30242
1.4251
74.7212
72.6862
70.2186
67.5207
64.7705
62.0004
59.1958
56.3546
53.4889
50.6134
47.7409
44.8825
42.0486
39.2488
36.4917
33.7846
31.1333
28.5423
26.0145
23.5512
21.1521
18.8154
16.5377
14.3141
12.1381
10.0012
7.8931
5.80167
3.71324
1.6341
75.2371
73.3104
70.9766
68.4209
65.8084
63.1692
60.4882
57.762
55.0003
52.2158
49.4197
46.622
43.8319
41.0586
38.3102
35.5942
32.9167
30.2827
27.6956
25.1577
22.6697
20.2305
17.8377
15.4872
13.1728
10.8867
8.61873
6.35677
4.08602
1.81247
75.67
73.8353
71.6162
69.1829
66.6896
64.1642
61.5917
58.9674
56.299
53.5975
50.8726
48.1329
45.3869
42.6429
39.9086
37.1911
34.4967
31.8305
29.1965
26.5973
24.0342
21.5071
19.014
16.5512
14.1134
11.6927
9.27927
6.86062
4.42102
1.96511
76.031
74.2743
72.1529
69.8244
67.4334
65.0064
62.5283
59.9932
57.4074
54.7803
52.1202
49.4347
46.7313
44.0173
41.3001
38.5863
35.8819
33.1922
30.5212
27.8721
25.2463
22.6443
20.0645
17.5037
14.9567
12.4161
9.87203
7.31159
4.71844
2.09543
76.331
74.6398
72.6011
70.3616
68.0578
65.7148
63.3177
60.8598
58.3461
55.7845
53.1823
50.5461
47.8823
45.1976
42.4987
39.7917
37.0825
34.376
31.6764
28.9869
26.3093
23.6442
20.9903
18.3449
15.7029
13.057
10.3973
7.7107
4.98046
2.20716
76.5762
74.9394
72.9698
70.8048
68.5743
66.302
63.9734
61.5811
59.1291
56.624
54.0724
51.4796
48.8515
46.1941
43.5132
40.8148
38.1041
35.3859
32.6644
29.9427
27.2227
24.5052
21.7891
19.0718
16.3483
13.6116
10.8515
8.055
5.205
2.29987
76.7785
75.1858
73.273
71.1693
68.999
66.785
64.5131
62.1754
59.7748
57.3174
54.8085
52.2531
49.6561
47.0228
44.3588
41.6692
38.9591
36.2332
33.4951
30.7482
27.9942
25.2341
22.4668
19.6897
16.8981
14.0848
11.2398
8.34983
5.39767
2.37867
76.9346
75.3768
73.5088
71.4538
69.3312
67.1637
64.9371
62.6431
60.2839
57.8648
55.3907
52.8658
50.2944
47.6815
45.032
42.3506
39.6422
36.911
34.1608
31.3945
28.6141
25.8203
23.0121
20.1872
17.3406
14.4652
11.5509
8.58436
5.54856
2.43656
77.0668
75.5347
73.7008
71.6827
69.5963
67.4638
65.2715
63.0107
60.683
58.2933
55.8458
53.3444
50.793
48.196
45.558
42.8834
40.1768
37.4423
34.6832
31.9026
29.1024
26.2831
23.4439
20.5823
17.6934
14.77
11.8019
8.77566
5.67392
2.48605
77.1482
75.6323
73.8206
71.8276
69.7656
67.6566
65.4872
63.2486
60.9421
58.5721
56.1426
53.657
51.1191
48.533
45.9029
43.2332
40.528
37.7914
35.0267
32.2367
29.4232
26.5869
23.7269
20.8406
17.923
14.9669
11.9618
8.89404
5.74618
2.50598
77.2372
75.7225
73.9231
71.945
69.8967
67.8003
65.643
63.4161
61.1207
58.7607
56.3402
53.8624
51.331
48.7497
46.1229
43.4547
40.7493
38.0104
35.2416
32.4455
29.6239
26.7774
23.9053
21.0048
18.071
15.0965
12.0705
8.97843
5.80032
2.51236
)
;

boundaryField
{
    inlet
    {
        type            zeroGradient;
    }
    outlet
    {
        type            fixedValue;
        value           uniform 0;
    }
    flap
    {
        type            zeroGradient;
    }
    upperWall
    {
        type            zeroGradient;
    }
    lowerWall
    {
        type            zeroGradient;
    }
    frontAndBack
    {
        type            empty;
    }
}


// ************************************************************************* //
