/*--------------------------------*- C++ -*----------------------------------*\
  =========                 |
  \\      /  F ield         | OpenFOAM: The Open Source CFD Toolbox
   \\    /   O peration     | Website:  https://openfoam.org
    \\  /    A nd           | Version:  dev
     \\/     M anipulation  |
\*---------------------------------------------------------------------------*/
FoamFile
{
    version     2.0;
    format      ascii;
    class       volScalarField;
    location    "5.7";
    object      p;
}
// * * * * * * * * * * * * * * * * * * * * * * * * * * * * * * * * * * * * * //

dimensions      [0 2 -2 0 0 0 0];

internalField   nonuniform List<scalar> 
2790
(
146.911
146.818
147.086
147.657
148.437
149.394
150.526
151.833
153.31
154.951
156.75
158.701
160.795
163.02
165.36
167.796
170.3
172.839
175.371
177.845
180.203
182.381
184.311
185.932
187.192
188.066
188.502
188.557
188.608
188.821
146.708
146.726
147.018
147.586
148.363
149.317
150.445
151.745
153.214
154.847
156.637
158.578
160.661
162.874
165.204
167.63
170.125
172.659
175.189
177.667
180.035
182.23
184.185
185.834
187.118
187.992
188.389
188.444
188.576
188.861
146.51
146.597
146.909
147.466
148.23
149.171
150.284
151.566
153.014
154.622
156.384
158.293
160.341
162.517
164.805
167.187
169.639
172.13
174.622
177.069
179.419
181.612
183.584
185.274
186.625
187.601
188.194
188.549
188.865
189.163
146.285
146.403
146.727
147.276
148.025
148.95
150.043
151.301
152.72
154.295
156.018
157.884
159.882
162.003
164.231
166.549
168.934
171.357
173.784
176.174
178.481
180.653
182.635
184.375
185.829
186.981
187.849
188.52
189.073
189.592
146.024
146.156
146.489
147.03
147.762
148.666
149.734
150.961
152.343
153.874
155.548
157.357
159.293
161.344
163.496
165.731
168.029
170.364
172.706
175.019
177.264
179.399
181.382
183.172
184.743
186.085
187.215
188.178
188.989
189.736
145.723
145.861
146.196
146.728
147.44
148.318
149.354
150.543
151.88
153.36
154.975
156.717
158.578
160.546
162.607
164.745
166.94
169.169
171.406
173.622
175.784
177.862
179.824
181.645
183.308
184.809
186.156
187.361
188.381
189.299
145.381
145.52
145.851
146.37
147.059
147.907
148.906
150.051
151.337
152.757
154.304
155.97
157.745
159.617
161.575
163.6
165.676
167.782
169.895
171.991
174.046
176.037
177.945
179.755
181.461
183.062
184.556
185.935
187.099
188.146
144.996
145.133
145.457
145.96
146.623
147.437
148.394
149.49
150.717
152.07
153.541
155.12
156.799
158.565
160.405
162.304
164.245
166.209
168.177
170.129
172.046
173.914
175.721
177.463
179.141
180.761
182.315
183.788
185.037
186.188
144.57
144.703
145.017
145.5
146.134
146.91
147.821
148.862
150.025
151.304
152.69
154.175
155.747
157.395
159.106
160.864
162.654
164.457
166.256
168.035
169.779
171.477
173.125
174.725
176.287
177.822
179.33
180.801
182.072
183.31
144.103
144.231
144.532
144.992
145.595
146.329
147.19
148.171
149.265
150.463
151.758
153.14
154.596
156.117
157.686
159.29
160.911
162.534
164.14
165.713
167.242
168.716
170.134
171.502
172.835
174.154
175.474
176.812
178.013
179.317
143.598
143.72
144.005
144.44
145.008
145.699
146.506
147.422
148.441
149.554
150.751
152.022
153.356
154.739
156.156
157.592
159.029
160.451
161.837
163.172
164.44
165.63
166.737
167.765
168.729
169.658
170.588
171.587
172.55
173.868
143.056
143.17
143.438
143.847
144.378
145.021
145.771
146.62
147.56
148.582
149.676
150.831
152.034
153.271
154.526
155.783
157.021
158.222
159.364
160.426
161.388
162.23
162.938
163.504
163.931
164.241
164.484
164.793
165.175
166.348
142.479
142.586
142.835
143.215
143.707
144.301
144.991
145.769
146.627
147.554
148.541
149.574
150.64
151.725
152.81
153.876
154.903
155.867
156.742
157.501
158.114
158.549
158.771
158.746
158.443
157.845
156.971
155.98
155.033
155.539
141.87
141.968
142.198
142.547
142.998
143.541
144.169
144.874
145.646
146.476
147.352
148.26
149.185
150.112
151.02
151.889
152.694
153.408
153.999
154.431
154.661
154.638
154.3
153.568
152.345
150.516
147.955
144.655
140.709
138.676
141.23
141.32
141.53
141.848
142.256
142.747
143.311
143.94
144.625
145.355
146.117
146.897
147.678
148.444
149.172
149.838
150.416
150.872
151.168
151.258
151.085
150.574
149.629
148.114
145.836
142.504
137.663
130.65
120.194
107.983
0.967177
0.94814
0.884483
0.797853
0.709133
0.628103
0.557481
0.49705
0.445611
0.401651
0.363602
0.330037
0.299769
0.271855
0.245562
0.220339
0.195801
0.171748
0.14817
0.125251
0.103331
0.0828243
0.0641325
0.0477007
0.0338592
0.0225913
0.0137469
0.00714809
0.00266493
-0.00031453
0.923351
0.902063
0.842272
0.762599
0.681207
0.606538
0.541044
0.484653
0.436368
0.394837
0.358631
0.32645
0.297214
0.270057
0.244297
0.219414
0.195049
0.171019
0.147337
0.124221
0.102077
0.0814165
0.0627707
0.0465221
0.0328331
0.0217089
0.0130189
0.00657364
0.00240198
0.000759929
0.874747
0.849437
0.792102
0.719092
0.645748
0.578496
0.519216
0.467883
0.42365
0.385299
0.351516
0.321148
0.293257
0.267089
0.242035
0.217621
0.193516
0.169557
0.145787
0.122486
0.100143
0.0793435
0.0606257
0.0443846
0.0308323
0.0198886
0.0112572
0.00497218
0.00134897
0.000858606
0.82787
0.798373
0.742752
0.675534
0.609777
0.549652
0.496434
0.450101
0.40993
0.37482
0.343522
0.315024
0.288533
0.263409
0.239122
0.215244
0.191472
0.167663
0.143891
0.120489
0.0980275
0.077161
0.0584347
0.0422721
0.02894
0.0182703
0.00987271
0.00375667
0.00027384
-0.000445972
0.79528
0.761612
0.707517
0.644514
0.584348
0.529264
0.480261
0.437386
0.40004
0.367236
0.337678
0.310489
0.284979
0.26059
0.236845
0.213351
0.189826
0.166143
0.142391
0.118946
0.0964539
0.0756265
0.056967
0.0408873
0.0277385
0.017204
0.00873765
0.00277207
-6.9754e-05
-0.00069833
0.788425
0.749467
0.696184
0.634575
0.576451
0.522929
0.47512
0.433198
0.396635
0.36472
0.335608
0.308757
0.283492
0.259277
0.235647
0.212222
0.188736
0.165078
0.141343
0.117922
0.0954981
0.0748224
0.0563074
0.0403374
0.027442
0.0174677
0.00930839
0.00281326
-0.000838586
-0.00109811
0.817824
0.770927
0.715275
0.650167
0.588522
0.531924
0.481623
0.437774
0.399816
0.3667
0.336893
0.309425
0.28364
0.258995
0.235013
0.211324
0.187693
0.164036
0.140451
0.117279
0.0951512
0.0748638
0.0567092
0.0407435
0.0274049
0.0168876
0.00882528
0.00266325
-0.00109487
-0.00115211
0.889433
0.83159
0.765095
0.689432
0.617911
0.5534
0.496935
0.4483
0.406787
0.371202
0.339869
0.311136
0.284233
0.258734
0.234132
0.210046
0.186283
0.162798
0.139638
0.116945
0.0950271
0.074412
0.0559382
0.0401948
0.0272339
0.0169686
0.00881454
0.00225683
-0.00186406
-0.00133582
1.00343
0.923871
0.836878
0.743171
0.656615
0.581286
0.517253
0.462551
0.415624
0.375554
0.340913
0.310548
0.282988
0.257066
0.232081
0.20765
0.183716
0.160387
0.137739
0.115761
0.0944781
0.0741418
0.0554807
0.0393868
0.0263874
0.0163746
0.00841254
0.00167511
-0.00262732
-0.00150028
1.13868
1.02559
0.910284
0.795973
0.6926
0.60281
0.52815
0.467534
0.417914
0.376123
0.340134
0.308605
0.280338
0.254113
0.228923
0.204279
0.180301
0.157351
0.135517
0.114452
0.093721
0.0733429
0.0541473
0.0374911
0.02443
0.014879
0.00743978
0.000869079
-0.00332467
-0.00162735
1.25284
1.1084
0.962932
0.82407
0.705564
0.608218
0.528812
0.464749
0.413155
0.370546
0.3342
0.302552
0.274518
0.248743
0.223795
0.199032
0.174966
0.152554
0.132035
0.112515
0.0927002
0.0721147
0.051829
0.0340861
0.0208438
0.012129
0.00580632
-7.05628e-05
-0.00385691
-0.00169621
1.33997
1.14566
0.97052
0.814148
0.686303
0.586139
0.507586
0.445744
0.396886
0.356816
0.322143
0.291635
0.26498
0.240788
0.216808
0.191998
0.167599
0.145773
0.127186
0.110062
0.0916468
0.0706019
0.0483838
0.0286984
0.0150437
0.00774421
0.0034667
-0.00101913
-0.00415264
-0.00168762
1.33699
1.0749
0.88009
0.727512
0.611718
0.525653
0.459249
0.406975
0.36679
0.333896
0.303454
0.275183
0.251058
0.230037
0.208116
0.183166
0.157697
0.136267
0.120553
0.107285
0.0911249
0.0692671
0.0437986
0.0207765
0.00627914
0.00128475
0.000478997
-0.00173829
-0.00413146
-0.00158585
1.07301
0.753266
0.621266
0.536329
0.465527
0.419268
0.382092
0.347739
0.322491
0.302506
0.278872
0.252821
0.232047
0.21672
0.198845
0.17342
0.145118
0.12323
0.111679
0.104666
0.0922006
0.0689941
0.0382163
0.00961395
-0.00651616
-0.00784959
-0.00294997
-0.00176479
-0.00366778
-0.00137888
0.366778
-0.0071235
0.0975078
0.227697
0.241538
0.275074
0.289179
0.271782
0.262088
0.263839
0.251603
0.2259
0.207994
0.201905
0.191304
0.16409
0.128916
0.104324
0.0989554
0.102485
0.0963095
0.0710346
0.0318625
-0.00580183
-0.0249547
-0.0205846
-0.00639588
-0.000228431
-0.00254306
-0.00106184
140.551
140.632
140.82
141.105
141.47
141.905
142.403
142.955
143.55
144.176
144.821
145.469
146.103
146.702
147.245
147.704
148.048
148.239
148.233
147.972
147.386
146.377
144.812
142.499
139.136
134.23
126.861
115.113
92.9629
33.2152
139.824
139.895
140.061
140.311
140.63
141.008
141.437
141.908
142.41
142.93
143.454
143.966
144.448
144.878
145.231
145.477
145.583
145.507
145.196
144.586
143.593
142.102
139.956
136.923
132.645
126.538
117.569
104.005
84.4797
56.0163
139.055
139.116
139.259
139.472
139.744
140.063
140.421
140.809
141.216
141.627
142.028
142.403
142.731
142.99
143.152
143.187
143.058
142.718
142.112
141.169
139.798
137.879
135.245
131.669
126.823
120.253
111.368
99.5282
85.2827
68.6383
138.244
138.295
138.414
138.591
138.814
139.073
139.359
139.663
139.973
140.274
140.552
140.789
140.964
141.053
141.028
140.856
140.498
139.907
139.025
137.779
136.078
133.804
130.805
126.886
121.797
115.248
106.94
96.54
83.9846
68.8336
137.394
137.435
137.529
137.669
137.843
138.041
138.255
138.474
138.687
138.879
139.034
139.134
139.158
139.081
138.874
138.505
137.932
137.108
135.976
134.466
132.491
129.945
126.699
122.597
117.459
111.083
103.27
93.7766
82.4348
69.4512
136.508
136.538
136.608
136.709
136.834
136.971
137.112
137.247
137.364
137.447
137.482
137.449
137.326
137.089
136.71
136.155
135.383
134.351
133.001
131.27
129.081
126.342
122.948
118.78
113.708
107.597
100.324
91.7893
81.9835
71.3192
135.587
135.606
135.651
135.716
135.79
135.867
135.936
135.988
136.01
135.988
135.905
135.743
135.481
135.093
134.553
133.826
132.877
131.661
130.128
128.222
125.874
123.012
119.553
115.41
110.495
104.73
98.0604
90.4746
82.0158
73.02
134.634
134.644
134.664
134.691
134.717
134.734
134.733
134.703
134.633
134.509
134.313
134.029
133.634
133.106
132.418
131.538
130.433
129.062
127.381
125.341
122.887
119.962
116.503
112.452
107.755
102.373
96.2915
89.5303
82.1394
74.3912
133.655
133.654
133.65
133.641
133.619
133.577
133.508
133.399
133.241
133.018
132.716
132.316
131.8
131.143
130.322
129.307
128.068
126.57
124.774
122.641
120.126
117.186
113.778
109.864
105.416
100.417
94.8757
88.8245
82.3175
75.5823
132.652
132.641
132.614
132.568
132.5
132.402
132.267
132.083
131.84
131.525
131.123
130.617
129.988
129.216
128.277
127.147
125.797
124.198
122.319
120.126
117.588
114.672
111.35
107.6
103.411
98.7819
93.7314
88.2985
82.5365
76.6303
131.63
131.609
131.56
131.48
131.367
131.215
131.016
130.761
130.439
130.038
129.543
128.94
128.211
127.336
126.296
125.069
123.63
121.956
120.02
117.798
115.266
112.402
109.19
105.619
101.688
97.406
92.7972
87.9007
82.7646
77.5373
130.594
130.564
130.493
130.38
130.225
130.022
129.764
129.442
129.046
128.565
127.987
127.296
126.477
125.514
124.389
123.082
121.575
119.847
117.879
115.652
113.149
110.358
107.27
103.882
100.2
96.2391
92.0237
87.5905
82.9814
78.3156
129.549
129.511
129.419
129.276
129.08
128.829
128.516
128.132
127.669
127.115
126.461
125.692
124.796
123.758
122.562
121.194
119.636
117.874
115.893
113.68
111.224
108.519
105.562
102.356
98.9096
95.2407
91.3736
87.3405
83.1775
78.9806
128.502
128.455
128.345
128.172
127.939
127.644
127.279
126.839
126.314
125.696
124.974
124.138
123.176
122.075
120.823
119.407
117.815
116.036
114.058
111.874
109.477
106.866
104.042
101.011
97.7839
94.3791
90.819
87.132
83.3483
79.5458
127.458
127.404
127.275
127.075
126.808
126.472
126.061
125.569
124.989
124.314
123.534
122.64
121.622
120.47
119.175
117.726
116.113
114.33
112.368
110.224
107.895
105.381
102.687
99.8219
96.797
93.6293
90.3395
86.9519
83.4921
80.0234
126.424
126.362
126.217
125.993
125.695
125.321
124.868
124.331
123.702
122.976
122.146
121.203
120.14
118.949
117.622
116.151
114.53
112.753
110.817
108.72
106.462
104.047
101.479
98.7683
95.9274
92.9716
89.9192
86.7913
83.6091
80.4244
125.406
125.338
125.178
124.931
124.605
124.198
123.708
123.13
122.459
121.69
120.818
119.835
118.736
117.514
116.165
114.682
113.062
111.301
109.398
107.353
105.168
102.848
100.399
97.8321
95.1578
92.3906
89.5468
86.6441
83.7005
80.7585
124.411
124.337
124.164
123.898
123.546
123.11
122.587
121.974
121.267
120.461
119.554
118.539
117.412
116.169
114.806
113.32
111.708
109.969
108.103
106.112
104
101.772
99.4349
96.9988
94.4744
91.8746
89.2136
86.5065
83.7686
81.0347
123.447
123.368
123.183
122.899
122.525
122.063
121.512
120.868
120.131
119.295
118.359
117.319
116.172
114.915
113.546
112.062
110.464
108.751
106.925
104.99
102.948
100.807
98.5732
96.2562
93.8662
91.4144
88.9135
86.3763
83.8157
81.2608
122.52
122.437
122.241
121.942
121.548
121.065
120.489
119.82
119.057
118.197
117.239
116.18
115.019
113.754
112.384
110.908
109.328
107.644
105.859
103.978
102.004
99.9433
97.8042
95.5948
93.3243
91.0032
88.6421
86.2524
83.845
81.4439
121.639
121.552
121.347
121.034
120.624
120.122
119.526
118.836
118.052
117.173
116.197
115.125
113.955
112.687
111.32
109.856
108.297
106.643
104.899
103.07
101.159
99.1732
97.1199
95.0067
92.8422
90.6357
88.3965
86.1345
83.8592
81.5904
120.811
120.721
120.508
120.184
119.76
119.241
118.628
117.921
117.121
116.226
115.239
114.157
112.982
111.715
110.355
108.905
107.368
105.745
104.041
102.26
100.408
98.4901
96.5137
94.486
92.4149
90.3084
88.1751
86.0234
83.8616
81.7063
120.045
119.951
119.732
119.398
118.961
118.429
117.803
117.082
116.269
115.363
114.366
113.28
112.103
110.839
109.489
108.055
106.539
104.946
103.28
101.544
99.7453
97.8886
95.9806
94.0281
92.0384
90.0188
87.9767
85.9197
83.855
81.7966
119.348
119.251
119.026
118.683
118.237
117.694
117.056
116.325
115.501
114.588
113.585
112.496
111.321
110.062
108.722
107.304
105.811
104.246
102.614
100.92
99.1682
97.3654
95.5174
93.6304
91.711
89.766
87.8019
85.8256
83.8435
81.8672
118.729
118.63
118.399
118.048
117.594
117.042
116.395
115.655
114.824
113.905
112.899
111.809
110.636
109.384
108.055
106.653
105.18
103.641
102.04
100.382
98.6728
96.9169
95.1205
93.2895
91.4299
89.548
87.6497
85.7411
83.828
81.9202
118.197
118.095
117.859
117.501
117.039
116.48
115.826
115.08
114.244
113.321
112.314
111.225
110.056
108.811
107.492
106.104
104.65
103.134
101.56
99.9341
98.2603
96.5443
94.7914
93.0073
91.1977
89.3682
87.5244
85.6719
83.8159
81.9648
117.762
117.657
117.413
117.048
116.579
116.013
115.354
114.603
113.764
112.839
111.831
110.743
109.578
108.34
107.031
105.656
104.218
102.721
101.17
99.5703
97.926
96.2424
94.5248
92.7786
91.009
89.2214
87.421
85.6128
83.8017
81.9947
117.436
117.325
117.072
116.7
116.226
115.657
114.993
114.239
113.397
112.47
111.463
110.377
109.216
107.983
106.683
105.318
103.893
102.412
100.879
99.3003
97.6792
96.0211
94.3311
92.6144
90.8759
89.1208
87.354
85.5804
83.8045
82.0326
117.234
117.1
116.83
116.452
115.976
115.403
114.737
113.981
113.138
112.212
111.205
110.121
108.963
107.735
106.441
105.084
103.668
102.198
100.679
99.1136
97.5083
95.8673
94.1958
92.4986
90.7807
89.0469
87.302
85.5505
83.7969
82.0462
117.216
117.017
116.719
116.335
115.856
115.28
114.611
113.853
113.009
112.083
111.077
109.995
108.84
107.616
106.326
104.974
103.565
102.103
100.592
99.0364
97.4414
95.8116
94.1518
92.467
90.762
89.0414
87.31
85.5721
83.8321
82.0943
-50.563
-30.3218
-11.1295
35.6511
28.2232
16.224
51.1355
39.0525
27.8493
52.559
42.1378
34.0972
56.8981
48.6114
41.8558
61.2853
54.3776
48.4873
64.5584
58.6779
53.6297
67.1544
62.1301
57.8217
69.3428
65.011
61.3026
71.19
67.4116
64.185
72.7431
69.4132
66.5766
74.0517
71.0896
68.5714
75.1563
72.4988
70.2429
76.0891
73.6862
71.6485
76.8766
74.6884
72.834
77.5407
75.535
73.8357
78.0997
76.25
74.6827
78.5688
76.853
75.3987
78.9609
77.3605
76.003
79.2872
77.7863
76.512
79.557
78.1421
76.9392
79.7791
78.4381
77.2965
79.9601
78.6825
77.5932
80.1082
78.8845
77.8393
80.2257
79.0473
78.0392
80.3245
79.1835
78.2055
80.3959
79.2847
78.3315
80.4685
79.38
78.444
80.5023
79.4302
78.5082
80.5714
79.5134
78.5978
-2.73616
-2.62233
-1.14957
-0.00830034
0.0213953
0.112286
0.177218
0.157378
0.171225
0.229082
0.237957
0.198403
0.173556
0.180804
0.18601
0.156265
0.107891
0.0769211
0.0814796
0.103214
0.107648
0.0785359
0.0256421
-0.0269197
-0.0517832
-0.0386805
-0.00910893
0.00460501
-0.000241414
-0.000635737
2.46102
-0.490968
1.08806
0.566395
-0.757616
-0.532192
0.0844819
0.133351
0.146457
0.248002
0.233945
0.137272
0.0972946
0.150101
0.204231
0.168015
0.0885292
0.0375676
0.0529018
0.104885
0.127937
0.0921733
0.0177318
-0.0581517
-0.092774
-0.0658719
-0.00983255
0.0161719
0.00445559
-0.00013934
13.5922
5.2167
2.43436
-0.00196837
-0.347669
0.996191
1.18613
-0.0541945
-0.444966
-0.100567
0.251317
0.147719
0.0801715
0.186946
0.264425
0.180127
0.0334509
-0.0565238
-0.0137233
0.110003
0.177558
0.127419
0.0181278
-0.0948566
-0.148526
-0.104398
-0.00547352
0.0413257
0.0146404
0.000300213
23.3473
13.4719
7.60805
3.83631
2.08829
1.50747
0.345146
-0.333526
-0.0165005
1.15719
1.09881
0.0201711
-0.375211
-0.198597
0.221585
0.265665
0.0269998
-0.124449
-0.0352657
0.182568
0.268788
0.170195
0.00322183
-0.167427
-0.254235
-0.184319
0.00351708
0.0892105
0.0359585
0.000246701
32.5128
22.7485
15.4317
10.1407
6.50429
4.03142
2.1752
1.16737
0.882534
0.906073
0.411809
-0.170489
-0.28175
0.512402
1.05278
0.514862
-0.109586
-0.472442
-0.428087
0.0636324
0.36652
0.253552
0.0140407
-0.223452
-0.345448
-0.211136
0.0424642
0.177717
0.0772611
-0.00108873
40.4876
31.5608
23.6745
17.2443
12.3205
8.67817
6.00923
4.13027
2.86247
1.96891
1.20573
0.609452
0.35394
0.563062
0.563648
0.310763
-0.176986
-0.503113
-0.215349
0.632927
0.804257
0.318839
-0.0361294
-0.362298
-0.595802
-0.539586
0.00490463
0.303219
0.142588
-0.00614303
46.9953
39.1886
31.4125
24.5229
18.8997
14.4435
10.925
8.17604
6.08439
4.51493
3.29466
2.32794
1.66597
1.31193
1.02411
0.673747
0.191289
-0.122957
0.00956485
0.393491
0.527805
0.327137
-0.00744973
-0.384386
-0.639155
-0.387004
0.367089
0.574083
0.221465
-0.0189859
52.2954
45.5627
38.3043
31.4747
25.5936
20.6512
16.5148
13.0962
10.3289
8.11581
6.32635
4.87514
3.75757
2.94876
2.31562
1.71188
1.11776
0.703271
0.59955
0.692649
0.708359
0.487748
0.114535
-0.258353
-0.460204
-0.271858
0.181564
0.409714
0.315757
-0.0602038
56.6188
50.8008
44.2156
37.7421
31.9254
26.8161
22.3496
18.4907
15.2097
12.4504
10.1358
8.20565
6.62959
5.36744
4.32804
3.41664
2.6192
2.00914
1.64355
1.45385
1.25637
0.922626
0.503329
0.126176
-0.0783118
-0.0037694
0.2591
0.404926
0.272264
-0.29899
60.1469
55.0782
49.1747
43.1897
37.6367
32.5935
28.031
23.9451
20.3368
17.1872
14.4585
12.1116
10.1136
8.42649
6.99182
5.75206
4.68636
3.81572
3.1565
2.65931
2.21007
1.72486
1.22306
0.785509
0.499356
0.417679
0.471458
0.449062
0.184189
-0.514671
63.0444
58.5841
53.3032
47.8348
42.639
37.7992
33.3026
29.1605
25.3939
22.0079
18.9902
16.32
13.9747
11.9272
10.1412
8.57972
7.22064
6.06167
5.099
4.29633
3.58478
2.90882
2.26798
1.70632
1.27613
1.00003
0.821191
0.594446
0.182553
-0.590783
65.4442
61.4798
56.7412
51.762
46.9477
42.3768
38.0424
33.9616
30.1639
26.6679
23.4769
20.5851
17.9816
15.6509
13.5716
11.7202
10.0783
8.63569
7.38117
6.28779
5.31235
4.41687
3.59247
2.85897
2.24269
1.74812
1.32932
0.886933
0.318614
-0.520637
67.4459
63.89
59.6144
55.0753
50.6291
46.3466
42.2215
38.2709
34.5265
31.0128
27.7422
24.7187
21.941
19.4028
17.0934
14.9992
13.1071
11.4065
9.88521
8.52318
7.29222
6.166
5.13308
4.19847
3.37121
2.64591
1.98629
1.3242
0.588448
-0.329735
69.1248
65.9087
62.0268
57.8741
53.7664
49.7658
45.865
42.0786
38.4369
34.9662
31.6833
28.598
25.7153
23.0357
20.5561
18.2699
16.1695
14.2465
12.4908
10.888
9.41909
8.06564
6.81611
5.6675
4.61882
3.66008
2.76297
1.88085
0.966721
-0.0541119
70.5388
67.6079
64.0611
60.2445
56.4402
52.7028
49.0232
45.4126
41.8986
38.5068
35.2557
32.158
29.2225
26.4543
23.8552
21.424
19.1571
17.0495
15.0942
13.281
11.5973
10.0298
8.56816
7.20569
5.93644
4.74891
3.62105
2.52083
1.41792
0.26617
71.733
69.0431
65.7824
62.2573
58.7217
55.2239
51.7531
48.3171
44.9402
41.6462
38.4536
35.3763
32.425
29.6076
26.9292
24.392
21.9959
19.739
17.617
15.6235
13.75
11.987
10.3256
8.75823
7.27687
5.87014
4.52064
3.20581
1.90549
0.595452
72.743
70.2577
67.2421
63.9696
60.6706
57.388
54.1095
50.8401
47.6004
44.4122
41.2929
38.2564
35.3142
32.4759
29.7484
27.1364
24.6422
22.2663
20.007
17.8607
15.8219
13.8838
12.0393
10.2808
8.60015
6.98668
5.42619
3.90183
2.39877
0.907985
73.5977
71.2866
68.4813
65.4279
62.3363
59.2453
56.1415
53.0271
49.9196
46.8382
43.7991
40.8154
37.8988
35.0594
32.3051
29.6423
27.0749
24.6052
22.2337
19.9587
17.7772
15.6844
13.6745
11.741
9.87593
8.06958
6.30983
4.58288
2.87591
1.18923
74.3203
72.1578
69.5335
66.6698
63.7597
60.8383
57.8915
54.919
51.9356
48.9581
46.0009
43.0763
40.1954
37.3684
34.6036
31.9082
29.2873
26.7446
24.2818
21.8991
19.5951
17.3666
15.2092
13.1171
11.0832
9.09844
7.15194
5.23126
3.32366
1.4341
74.9303
72.8945
70.4259
67.7266
64.9747
62.2027
59.3957
56.5517
53.6827
50.8035
47.9267
45.0634
42.2241
39.4183
36.6546
33.9404
31.2815
28.6824
26.146
23.6737
21.2651
18.9184
16.6304
14.3959
12.2086
10.0601
7.94002
5.83636
3.73549
1.64392
75.4437
73.516
71.1811
68.6238
66.0096
63.3683
60.685
57.956
55.1911
52.4029
49.6027
46.8002
44.005
41.2259
38.4713
35.7486
33.0638
30.4219
27.8266
25.2799
22.7826
20.3338
17.9308
15.5696
13.2441
10.9464
8.6666
6.3924
4.10909
1.82286
75.8743
74.0387
71.8183
69.3833
66.8882
64.3607
61.7859
59.1587
56.4872
53.7821
51.0531
48.3089
45.558
42.8084
40.0681
37.3442
34.6427
31.969
29.3269
26.7192
24.1471
21.6105
19.1073
16.6341
14.1853
11.7532
9.32793
6.897
4.44471
1.97589
76.2333
74.4756
72.3528
70.0227
67.6299
65.2007
62.7201
60.1822
57.5933
54.9627
52.2987
49.6088
46.9005
44.1813
41.4582
38.7381
36.027
33.3299
30.6512
27.9937
25.3591
22.7478
20.1581
17.587
15.0292
12.4773
9.92132
7.34858
4.74261
2.10647
76.5316
74.8394
72.7993
70.558
68.2524
65.9072
63.5076
61.047
58.5301
55.9651
53.3591
50.7185
48.05
45.3602
42.6556
39.9426
37.2267
34.5131
31.8059
29.1082
26.422
23.7477
21.0842
18.4285
15.7758
13.1186
10.4471
7.74815
5.00499
2.21836
76.7755
75.1375
73.1664
70.9997
68.7672
66.4927
64.1617
61.7667
59.3115
56.8031
54.2476
51.6507
49.018
46.3555
43.6692
40.9648
38.2476
35.5225
32.7935
30.0638
27.3353
24.6088
21.8831
19.1557
16.4216
13.6736
10.9017
8.09282
5.22981
2.31116
76.9766
75.3828
73.4684
71.363
69.1906
66.9745
64.7001
62.3597
59.9561
57.4952
54.9826
52.423
49.8215
47.1833
44.5139
41.8185
39.1021
36.3693
33.6239
30.8691
28.1068
25.3377
22.5609
19.7738
16.9716
14.1472
11.2904
8.38795
5.42269
2.39003
77.1317
75.5728
73.7032
71.6464
69.5219
67.3522
65.123
62.8263
60.4641
58.0417
55.5639
53.0349
50.4591
47.8413
45.1864
42.4993
39.7847
37.0468
34.2893
31.5153
28.7266
25.9239
23.1064
20.2715
17.4143
14.5277
11.6017
8.6227
5.57375
2.44794
77.2633
75.73
73.8945
71.8746
69.7862
67.6515
65.4567
63.1932
60.8625
58.4695
56.0183
53.5129
50.9571
48.3553
45.712
43.0318
40.319
37.5778
34.8116
32.0233
29.2148
26.3868
23.5383
20.6667
17.7673
14.8328
11.853
8.81421
5.69926
2.49747
77.3441
75.8271
74.0139
72.019
69.955
67.8438
65.6719
63.4306
61.1211
58.7478
56.3146
53.8251
51.2828
48.6919
46.0566
43.3812
40.67
37.9267
35.1549
32.3573
29.5357
26.6906
23.8213
20.9251
17.9971
15.0298
12.013
8.93269
5.77158
2.51736
77.433
75.9171
74.1161
72.1362
70.0859
67.9873
65.8275
63.598
61.2995
58.9363
56.5121
54.0304
51.4946
48.9086
46.2766
43.6028
40.8912
38.1458
35.3699
32.5662
29.7365
26.8813
23.9999
21.0895
18.1453
15.1597
12.1219
9.0173
5.82591
2.52384
)
;

boundaryField
{
    inlet
    {
        type            zeroGradient;
    }
    outlet
    {
        type            fixedValue;
        value           uniform 0;
    }
    flap
    {
        type            zeroGradient;
    }
    upperWall
    {
        type            zeroGradient;
    }
    lowerWall
    {
        type            zeroGradient;
    }
    frontAndBack
    {
        type            empty;
    }
}


// ************************************************************************* //
