/*--------------------------------*- C++ -*----------------------------------*\
  =========                 |
  \\      /  F ield         | OpenFOAM: The Open Source CFD Toolbox
   \\    /   O peration     | Website:  https://openfoam.org
    \\  /    A nd           | Version:  dev
     \\/     M anipulation  |
\*---------------------------------------------------------------------------*/
FoamFile
{
    version     2.0;
    format      ascii;
    class       surfaceVectorField;
    location    "5.7";
    object      Uf;
}
// * * * * * * * * * * * * * * * * * * * * * * * * * * * * * * * * * * * * * //

dimensions      [0 1 -1 0 0 0 0];

internalField   nonuniform List<vector> 
5457
(
(9.92088 0 0.0251095)
(9.97125 0 0.0387456)
(9.82402 0 0.0328267)
(9.92859 0 0.0485849)
(9.70961 0 0.0393118)
(9.85548 0 0.0587678)
(9.57544 0 0.0460114)
(9.7568 0 0.070593)
(9.42138 0 0.0529487)
(9.63754 0 0.083013)
(9.24755 0 0.060166)
(9.49861 0 0.0959361)
(9.05363 0 0.0678107)
(9.33931 0 0.109612)
(8.83893 0 0.0760344)
(9.15875 0 0.124288)
(8.60253 0 0.0849701)
(8.9561 0 0.140167)
(8.34327 0 0.0947449)
(8.73039 0 0.157433)
(8.05985 0 0.105487)
(8.48041 0 0.17627)
(7.75081 0 0.117328)
(8.20478 0 0.196858)
(7.41457 0 0.130396)
(7.90196 0 0.219363)
(7.04951 0 0.144811)
(7.57031 0 0.243925)
(6.65404 0 0.160674)
(7.20819 0 0.270635)
(6.22672 0 0.178046)
(6.814 0 0.299503)
(5.76643 0 0.19693)
(6.38634 0 0.330417)
(5.27258 0 0.217235)
(5.92418 0 0.363088)
(4.74538 0 0.238738)
(5.42711 0 0.39698)
(4.18621 0 0.261035)
(4.89566 0 0.431241)
(3.59798 0 0.28349)
(4.33165 0 0.464623)
(2.98556 0 0.305204)
(3.73861 0 0.495428)
(2.35613 0 0.325071)
(3.12228 0 0.521515)
(1.71911 0 0.342549)
(2.49108 0 0.54056)
(1.08435 0 0.361882)
(1.85587 0 0.551675)
(0.451842 0 0.348685)
(1.24549 0 0.563022)
(-0.145835 0 0.102466)
(0.608923 0 0.544882)
(-0.423619 0 -0.207096)
(0.0946665 0 0.259372)
(-0.402156 0 -0.36126)
(-0.133668 0 -0.0205253)
(-0.119681 0 -0.393887)
(9.99641 0 0.0516721)
(9.99705 0 0.0405043)
(9.95879 0 0.0708611)
(9.97851 0 0.0674539)
(9.89824 0 0.0879862)
(9.93377 0 0.0898692)
(9.81659 0 0.105984)
(9.86453 0 0.113554)
(9.71359 0 0.124921)
(9.77438 0 0.138514)
(9.58909 0 0.144853)
(9.66436 0 0.164645)
(9.44275 0 0.166089)
(9.53397 0 0.192331)
(9.27391 0 0.188967)
(9.3825 0 0.22203)
(9.08167 0 0.213783)
(9.20919 0 0.254148)
(8.86491 0 0.240816)
(9.01317 0 0.289064)
(8.62231 0 0.270338)
(8.79332 0 0.327153)
(8.3524 0 0.302608)
(8.54836 0 0.368788)
(8.05356 0 0.337859)
(8.27684 0 0.414319)
(7.72412 0 0.376265)
(7.97718 0 0.464049)
(7.36238 0 0.417906)
(7.64772 0 0.518193)
(6.96673 0 0.462712)
(7.28683 0 0.576812)
(6.53584 0 0.510391)
(6.89296 0 0.639732)
(6.06883 0 0.560338)
(6.46482 0 0.706434)
(5.5656 0 0.611526)
(6.0016 0 0.775916)
(5.02711 0 0.66239)
(5.50326 0 0.846531)
(4.45588 0 0.710713)
(4.97089 0 0.915813)
(3.8565 0 0.753544)
(4.40719 0 0.980313)
(3.2362 0 0.787199)
(3.81704 0 1.03546)
(2.60582 0 0.807503)
(3.20846 0 1.07549)
(1.9828 0 0.810468)
(2.5934 0 1.09315)
(1.40529 0 0.776898)
(1.99621 0 1.07708)
(0.929755 0 0.646402)
(1.4195 0 0.97841)
(0.439858 0 0.38434)
(0.937575 0 0.716798)
(0.0591735 0 -0.118612)
(0.443794 0 0.343526)
(0.174921 0 -0.33593)
(9.98903 0 0.0594304)
(9.99481 0 0.045877)
(9.95434 0 0.0894757)
(9.97368 0 0.0848534)
(9.89729 0 0.118031)
(9.92984 0 0.119173)
(9.82047 0 0.147897)
(9.86357 0 0.153975)
(9.72416 0 0.179421)
(9.77736 0 0.190407)
(9.60822 0 0.212774)
(9.67227 0 0.228635)
(9.47235 0 0.248391)
(9.5481 0 0.269128)
(9.31608 0 0.286773)
(9.40432 0 0.312495)
(9.13869 0 0.328396)
(9.24035 0 0.359325)
(8.93925 0 0.373721)
(9.0555 0 0.410174)
(8.71665 0 0.423206)
(8.8489 0 0.465598)
(8.46961 0 0.477296)
(8.61952 0 0.526153)
(8.19668 0 0.536399)
(8.36616 0 0.592373)
(7.89633 0 0.600843)
(8.08752 0 0.664739)
(7.56692 0 0.670811)
(7.7822 0 0.743619)
(7.20684 0 0.746258)
(7.44874 0 0.829191)
(6.81457 0 0.826784)
(7.08569 0 0.921321)
(6.38888 0 0.911485)
(6.69171 0 1.01941)
(5.92904 0 0.998761)
(6.26572 0 1.12218)
(5.43515 0 1.0861)
(5.80712 0 1.22743)
(4.90855 0 1.16983)
(5.31608 0 1.33175)
(4.35244 0 1.2449)
(4.79398 0 1.4302)
(3.7726 0 1.30455)
(4.24398 0 1.51588)
(3.17874 0 1.33984)
(3.67182 0 1.57943)
(2.58664 0 1.33812)
(3.08633 0 1.60775)
(2.01987 0 1.27298)
(2.50293 0 1.58158)
(1.48695 0 1.09542)
(1.92875 0 1.46425)
(0.958303 0 0.769174)
(1.38526 0 1.21041)
(0.479882 0 0.202456)
(0.829547 0 0.801043)
(0.433733 0 0.134085)
(9.98515 0 0.0716132)
(9.99367 0 0.0531473)
(9.95039 0 0.113629)
(9.97088 0 0.10229)
(9.89437 0 0.154132)
(9.92691 0 0.147952)
(9.81882 0 0.195572)
(9.86185 0 0.19372)
(9.72442 0 0.238809)
(9.77746 0 0.241275)
(9.61113 0 0.284323)
(9.67467 0 0.291161)
(9.47875 0 0.332719)
(9.55343 0 0.343953)
(9.32695 0 0.384673)
(9.41336 0 0.40037)
(9.15524 0 0.440845)
(9.25401 0 0.461138)
(8.96292 0 0.501883)
(9.07484 0 0.52696)
(8.74917 0 0.568427)
(8.87521 0 0.598535)
(8.51305 0 0.641112)
(8.6543 0 0.676562)
(8.25347 0 0.720531)
(8.41123 0 0.761721)
(7.96926 0 0.807191)
(8.145 0 0.854637)
(7.65918 0 0.901438)
(7.85455 0 0.95582)
(7.32193 0 1.00335)
(7.53876 0 1.06557)
(6.95621 0 1.11257)
(7.19647 0 1.18385)
(6.56085 0 1.22814)
(6.82653 0 1.31008)
(6.13489 0 1.34817)
(6.4279 0 1.44292)
(5.67785 0 1.4696)
(5.99967 0 1.5799)
(5.19 0 1.58777)
(5.54135 0 1.71708)
(4.67287 0 1.69603)
(5.05306 0 1.84854)
(4.12981 0 1.78515)
(4.53597 0 1.96584)
(3.56666 0 1.84253)
(3.99274 0 2.05731)
(2.99206 0 1.85073)
(3.42761 0 2.10714)
(2.41585 0 1.78249)
(2.84764 0 2.09449)
(1.84055 0 1.60046)
(2.25624 0 1.98874)
(1.25939 0 1.27843)
(1.66032 0 1.75305)
(0.666778 0 0.789542)
(1.02397 0 1.36777)
(0.523038 0 0.787153)
(9.98337 0 0.0844064)
(9.99316 0 0.0612906)
(9.94821 0 0.136835)
(9.96959 0 0.119926)
(9.89315 0 0.18803)
(9.92575 0 0.176238)
(9.81907 0 0.240166)
(9.862 0 0.232695)
(9.72663 0 0.294464)
(9.77964 0 0.291084)
(9.6159 0 0.351656)
(9.6794 0 0.352271)
(9.48672 0 0.412467)
(9.56128 0 0.416974)
(9.33879 0 0.477673)
(9.42497 0 0.486005)
(9.17171 0 0.548048)
(9.2701 0 0.560201)
(8.98493 0 0.624351)
(9.09621 0 0.640383)
(8.77779 0 0.707341)
(8.90275 0 0.727365)
(8.54954 0 0.797762)
(8.68907 0 0.821954)
(8.29936 0 0.896324)
(8.45445 0 0.924939)
(8.02635 0 1.00365)
(8.19808 0 1.03705)
(7.72958 0 1.1202)
(7.91912 0 1.15891)
(7.40806 0 1.24617)
(7.61669 0 1.29092)
(7.06077 0 1.38127)
(7.28986 0 1.43315)
(6.6867 0 1.52459)
(6.93763 0 1.58511)
(6.28485 0 1.67419)
(6.55899 0 1.74551)
(5.85439 0 1.82679)
(6.15287 0 1.91189)
(5.39471 0 1.97726)
(5.71822 0 2.08017)
(4.90576 0 2.11805)
(5.25408 0 2.24409)
(4.38825 0 2.23861)
(4.75974 0 2.39461)
(3.84395 0 2.32455)
(4.23495 0 2.5192)
(3.27544 0 2.35695)
(3.67989 0 2.60124)
(2.6854 0 2.31059)
(3.09573 0 2.6197)
(2.0727 0 2.15501)
(2.4817 0 2.54732)
(1.42938 0 1.8674)
(1.83992 0 2.35372)
(0.742615 0 1.41957)
(1.13137 0 2.02453)
(0.543308 0 1.5145)
(9.98264 0 0.0974963)
(9.99299 0 0.0697918)
(9.94744 0 0.159773)
(9.96925 0 0.137581)
(9.89354 0 0.221345)
(9.92597 0 0.203924)
(9.82134 0 0.284089)
(9.86381 0 0.270685)
(9.73134 0 0.349344)
(9.78386 0 0.339578)
(9.62367 0 0.418015)
(9.68665 0 0.411693)
(9.49819 0 0.490934)
(9.57218 0 0.487898)
(9.35466 0 0.56897)
(9.44022 0 0.5691)
(9.1927 0 0.653)
(9.29044 0 0.656229)
(9.01184 0 0.743894)
(9.12243 0 0.750209)
(8.81152 0 0.842513)
(8.93572 0 0.851953)
(8.59109 0 0.949706)
(8.72973 0 0.962363)
(8.34986 0 1.06628)
(8.50382 0 1.08232)
(8.08707 0 1.19296)
(8.25729 0 1.21264)
(7.80193 0 1.33031)
(7.98938 0 1.35405)
(7.4936 0 1.4786)
(7.6993 0 1.50703)
(7.16119 0 1.63769)
(7.38617 0 1.67177)
(6.80372 0 1.80675)
(7.04903 0 1.84792)
(6.42011 0 1.98398)
(6.68675 0 2.03437)
(6.00913 0 2.16614)
(6.29801 0 2.22884)
(5.56941 0 2.34811)
(5.88119 0 2.42749)
(5.09946 0 2.52221)
(5.43434 0 2.62427)
(4.59775 0 2.67757)
(4.95511 0 2.8103)
(4.0627 0 2.7995)
(4.44085 0 2.97323)
(3.4927 0 2.86911)
(3.88852 0 3.09663)
(2.88583 0 2.86292)
(3.29523 0 3.1599)
(2.23802 0 2.75393)
(2.6569 0 3.13791)
(1.54244 0 2.52103)
(1.97484 0 3.00319)
(0.793649 0 2.13134)
(1.20724 0 2.7406)
(0.556737 0 2.29183)
(9.9825 0 0.110625)
(9.99302 0 0.0783602)
(9.94771 0 0.182322)
(9.96954 0 0.155035)
(9.89523 0 0.253814)
(9.92722 0 0.230882)
(9.82524 0 0.326762)
(9.86697 0 0.307504)
(9.73813 0 0.40255)
(9.78978 0 0.386517)
(9.63404 0 0.482228)
(9.69606 0 0.469142)
(9.51286 0 0.566752)
(9.5858 0 0.556391)
(9.37439 0 0.657087)
(9.45881 0 0.649264)
(9.21829 0 0.754208)
(9.31481 0 0.748781)
(9.04415 0 0.85908)
(9.15347 0 0.855957)
(8.85146 0 0.972658)
(8.97435 0 0.971796)
(8.63963 0 1.09588)
(8.77692 0 1.09729)
(8.40803 0 1.22964)
(8.56059 0 1.23341)
(8.15596 0 1.37475)
(8.3247 0 1.38108)
(7.88265 0 1.53187)
(8.06853 0 1.54108)
(7.58728 0 1.70139)
(7.79126 0 1.71405)
(7.2689 0 1.8833)
(7.49196 0 1.90031)
(6.92643 0 2.07698)
(7.16955 0 2.09971)
(6.55851 0 2.28087)
(6.82266 0 2.3114)
(6.16347 0 2.49207)
(6.44959 0 2.53351)
(5.73913 0 2.70585)
(6.0481 0 2.76266)
(5.28273 0 2.915)
(5.61524 0 2.99348)
(4.79083 0 3.10917)
(5.14724 0 3.21786)
(4.2593 0 3.27421)
(4.63938 0 3.42428)
(3.68339 0 3.39186)
(4.08606 0 3.59715)
(3.05805 0 3.43969)
(3.48132 0 3.71654)
(2.37773 0 3.3918)
(2.81836 0 3.75813)
(1.63791 0 3.22617)
(2.09916 0 3.69398)
(0.839131 0 2.90085)
(1.27892 0 3.50448)
(0.57336 0 3.11371)
(9.98273 0 0.123579)
(9.99316 0 0.086816)
(9.94873 0 0.204306)
(9.97027 0 0.17209)
(9.89794 0 0.285248)
(9.92927 0 0.256971)
(9.83051 0 0.36796)
(9.87124 0 0.342983)
(9.74671 0 0.453846)
(9.79716 0 0.431672)
(9.64669 0 0.544071)
(9.70735 0 0.524344)
(9.53039 0 0.639701)
(9.60181 0 0.622128)
(9.39763 0 0.741793)
(9.48039 0 0.726118)
(9.24814 0 0.851408)
(9.34287 0 0.837417)
(9.08154 0 0.969601)
(9.18895 0 0.957125)
(8.89737 0 1.09742)
(9.01825 0 1.08634)
(8.69511 0 1.23588)
(8.8303 0 1.22613)
(8.47414 0 1.38598)
(8.62456 0 1.37758)
(8.23377 0 1.54863)
(8.40038 0 1.54168)
(7.97323 0 1.7246)
(8.15702 0 1.71938)
(7.69162 0 1.91445)
(7.89365 0 1.91143)
(7.38786 0 2.11836)
(7.60921 0 2.11837)
(7.06063 0 2.33597)
(7.30243 0 2.3403)
(6.70821 0 2.56613)
(6.97166 0 2.57677)
(6.32837 0 2.8065)
(6.61472 0 2.82644)
(5.9181 0 3.05306)
(6.22872 0 3.08672)
(5.47346 0 3.29954)
(5.80975 0 3.35319)
(4.98931 0 3.53667)
(5.35266 0 3.619)
(4.45934 0 3.75142)
(4.85088 0 3.87401)
(3.87622 0 3.92647)
(4.29642 0 4.10395)
(3.23233 0 4.03986)
(3.68055 0 4.28969)
(2.52083 0 4.06499)
(2.99351 0 4.40678)
(1.73837 0 3.97613)
(2.23738 0 4.42458)
(0.889472 0 3.71875)
(1.36336 0 4.31629)
(0.598751 0 3.98489)
(9.98321 0 0.136201)
(9.99339 0 0.0950387)
(9.95032 0 0.225568)
(9.97131 0 0.188586)
(9.90151 0 0.315491)
(9.93193 0 0.282044)
(9.83694 0 0.407497)
(9.87643 0 0.376954)
(9.75684 0 0.503005)
(9.80579 0 0.474833)
(9.66136 0 0.603269)
(9.72031 0 0.577042)
(9.55047 0 0.709451)
(9.61996 0 0.684806)
(9.42404 0 0.822693)
(9.50466 0 0.799307)
(9.28185 0 0.944137)
(9.37423 0 0.921725)
(9.12357 0 1.07492)
(9.22844 0 1.05324)
(8.9488 0 1.21618)
(9.06697 0 1.19503)
(8.75706 0 1.36904)
(8.88939 0 1.34827)
(8.54778 0 1.53458)
(8.69522 0 1.51411)
(8.32026 0 1.71384)
(8.48383 0 1.6937)
(8.07371 0 1.90774)
(8.25452 0 1.8881)
(7.80715 0 2.11703)
(8.00637 0 2.09827)
(7.51934 0 2.34216)
(7.73827 0 2.32497)
(7.20869 0 2.58316)
(7.44874 0 2.56869)
(6.87312 0 2.8394)
(7.13586 0 2.82946)
(6.50979 0 3.10928)
(6.79702 0 3.10665)
(6.11489 0 3.38982)
(6.42869 0 3.39863)
(5.68333 0 3.67604)
(6.02606 0 3.70231)
(5.20839 0 3.96022)
(5.58269 0 4.0125)
(4.68166 0 4.231)
(5.09022 0 4.32098)
(4.09318 0 4.47232)
(4.53817 0 4.6154)
(3.43241 0 4.66254)
(3.91459 0 4.87787)
(2.69004 0 4.77314)
(3.20557 0 5.08357)
(1.86178 0 4.77238)
(2.41118 0 5.19794)
(0.954141 0 4.58969)
(1.47621 0 5.18427)
(0.639161 0 4.91941)
(9.98386 0 0.148366)
(9.99368 0 0.102942)
(9.95235 0 0.245967)
(9.97261 0 0.204391)
(9.90579 0 0.344394)
(9.9351 0 0.305965)
(9.84438 0 0.445192)
(9.88241 0 0.409264)
(9.76833 0 0.549803)
(9.81552 0 0.515809)
(9.67781 0 0.659551)
(9.73472 0 0.627002)
(9.57282 0 0.775678)
(9.64 0 0.744148)
(9.45329 0 0.899408)
(9.53131 0 0.868506)
(9.31903 0 1.03196)
(9.40854 0 1.00133)
(9.16979 0 1.17455)
(9.27153 0 1.14386)
(9.00524 0 1.32839)
(9.12 0 1.29737)
(8.82494 0 1.49471)
(8.95363 0 1.46312)
(8.62836 0 1.6747)
(8.77196 0 1.64236)
(8.41486 0 1.86954)
(8.57444 0 1.83636)
(8.18363 0 2.08033)
(8.36039 0 2.04635)
(7.93362 0 2.30805)
(8.12891 0 2.2735)
(7.66349 0 2.55351)
(7.87882 0 2.51888)
(7.37145 0 2.81719)
(7.60856 0 2.7834)
(7.05506 0 3.09913)
(7.31599 0 3.0677)
(6.71102 0 3.39867)
(6.99821 0 3.37198)
(6.3348 0 3.71409)
(6.65119 0 3.69579)
(5.92024 0 4.04211)
(6.26939 0 4.03768)
(5.45915 0 4.37708)
(5.84528 0 4.39454)
(4.94092 0 4.7099)
(5.36875 0 4.76074)
(4.35256 0 5.02653)
(4.82663 0 5.12675)
(3.67941 0 5.30617)
(4.20299 0 5.47706)
(2.90734 0 5.51814)
(3.47771 0 5.78744)
(2.02753 0 5.62295)
(2.64485 0 6.01944)
(1.04503 0 5.52937)
(1.63759 0 6.12384)
(0.704407 0 5.94295)
(9.98465 0 0.159979)
(9.99402 0 0.110461)
(9.95473 0 0.265377)
(9.97409 0 0.219396)
(9.91065 0 0.371815)
(9.93868 0 0.328607)
(9.85267 0 0.480877)
(9.88905 0 0.439769)
(9.781 0 0.594037)
(9.82619 0 0.554426)
(9.69582 0 0.712672)
(9.75039 0 0.674016)
(9.59717 0 0.838098)
(9.66167 0 0.799907)
(9.48503 0 0.971606)
(9.56004 0 0.933425)
(9.35929 0 1.11448)
(9.44544 0 1.07588)
(9.21974 0 1.26802)
(9.31778 0 1.2286)
(9.06614 0 1.43351)
(9.17686 0 1.39291)
(8.89812 0 1.61227)
(9.02242 0 1.57014)
(8.71523 0 1.80563)
(8.85412 0 1.76168)
(8.51687 0 2.01489)
(8.67147 0 1.9689)
(8.30228 0 2.24136)
(8.47387 0 2.1932)
(8.07041 0 2.48631)
(8.26046 0 2.43601)
(7.8199 0 2.7509)
(8.03013 0 2.69871)
(7.54885 0 3.03619)
(7.78132 0 2.98268)
(7.25465 0 3.34299)
(7.51184 0 3.28923)
(6.93369 0 3.67172)
(7.21869 0 3.61951)
(6.58094 0 4.0222)
(6.89763 0 3.97442)
(6.18946 0 4.39317)
(6.54272 0 4.35438)
(5.74975 0 4.78166)
(6.14569 0 4.75885)
(5.24907 0 5.18177)
(5.69503 0 5.18561)
(4.67086 0 5.58284)
(5.175 0 5.62928)
(3.99479 0 5.96656)
(4.56497 0 6.07885)
(3.19828 0 6.30169)
(3.83617 0 6.5136)
(2.26164 0 6.5406)
(2.97064 0 6.89401)
(1.18052 0 6.56497)
(1.87897 0 7.15772)
(0.812716 0 7.09919)
(9.98554 0 0.17096)
(9.9944 0 0.117544)
(9.95739 0 0.283694)
(9.97572 0 0.233515)
(9.91601 0 0.397629)
(9.94259 0 0.349863)
(9.8617 0 0.514404)
(9.89624 0 0.468344)
(9.79469 0 0.635526)
(9.83765 0 0.590531)
(9.71518 0 0.762418)
(9.76714 0 0.717899)
(9.62326 0 0.896456)
(9.68476 0 0.851864)
(9.51895 0 1.03899)
(9.59057 0 0.993806)
(9.40222 0 1.19136)
(9.48457 0 1.14509)
(9.27295 0 1.35493)
(9.36675 0 1.3071)
(9.13096 0 1.53107)
(9.237 0 1.48122)
(8.97598 0 1.72118)
(9.09516 0 1.66886)
(8.80765 0 1.92669)
(8.94098 0 1.87149)
(8.62548 0 2.14907)
(8.7741 0 2.09062)
(8.42879 0 2.38983)
(8.59402 0 2.32781)
(8.21663 0 2.65052)
(8.40004 0 2.5847)
(7.98771 0 2.93272)
(8.19116 0 2.86304)
(7.74019 0 3.23806)
(7.96596 0 3.16466)
(7.4715 0 3.56818)
(7.72245 0 3.49155)
(7.178 0 3.92471)
(7.45776 0 3.84586)
(6.85455 0 4.30916)
(7.16784 0 4.2299)
(6.49389 0 4.72267)
(6.84687 0 4.64615)
(6.08573 0 5.16556)
(6.4865 0 5.09703)
(5.61565 0 5.63634)
(6.07469 0 5.58452)
(5.06354 0 6.12985)
(5.59399 0 6.10912)
(4.40212 0 6.63377)
(5.01952 0 6.6676)
(3.59599 0 7.12115)
(4.31241 0 7.24852)
(2.60416 0 7.54049)
(3.43547 0 7.8201)
(1.39417 0 7.74021)
(2.25624 0 8.31483)
(1.00248 0 8.4647)
(9.9865 0 0.181249)
(9.9948 0 0.124154)
(9.96027 0 0.300826)
(9.97747 0 0.246675)
(9.92177 0 0.421726)
(9.94676 0 0.36964)
(9.87134 0 0.545641)
(9.90388 0 0.494876)
(9.80924 0 0.674112)
(9.84978 0 0.623993)
(9.73568 0 0.808602)
(9.78479 0 0.758494)
(9.65082 0 0.950531)
(9.70903 0 0.899833)
(9.55473 0 1.1013)
(9.62259 0 1.04943)
(9.44744 0 1.2623)
(9.52557 0 1.20871)
(9.32893 0 1.43494)
(9.418 0 1.37907)
(9.1991 0 1.62066)
(9.2999 0 1.56196)
(9.05782 0 1.82093)
(9.17121 0 1.75886)
(8.90483 0 2.03728)
(9.03179 0 1.9713)
(8.73977 0 2.27134)
(8.88144 0 2.2009)
(8.56213 0 2.52478)
(8.71983 0 2.44938)
(8.37113 0 2.79944)
(8.54645 0 2.71857)
(8.16567 0 3.0973)
(8.36053 0 3.01053)
(7.94417 0 3.42055)
(8.16096 0 3.32752)
(7.70433 0 3.77165)
(7.94612 0 3.67215)
(7.44287 0 4.15343)
(7.71362 0 4.0475)
(7.15504 0 4.56914)
(7.46003 0 4.45725)
(6.83396 0 5.02252)
(7.18032 0 4.90589)
(6.46957 0 5.51769)
(6.8671 0 5.39894)
(6.047 0 6.05877)
(6.50932 0 5.9431)
(5.54401 0 6.6488)
(6.09002 0 6.54627)
(4.92697 0 7.28702)
(5.58304 0 7.21685)
(4.14483 0 7.96138)
(4.94234 0 7.96157)
(3.12154 0 8.6334)
(4.10903 0 8.77557)
(1.75605 0 9.12749)
(2.87811 0 9.62065)
(1.3645 0 10.1846)
(9.98754 0 0.190795)
(9.99523 0 0.130257)
(9.96332 0 0.316701)
(9.97932 0 0.258818)
(9.92786 0 0.444013)
(9.95115 0 0.38786)
(9.88148 0 0.574479)
(9.91188 0 0.519275)
(9.82449 0 0.709667)
(9.86244 0 0.654702)
(9.75713 0 0.851072)
(9.80318 0 0.79567)
(9.67959 0 1.00015)
(9.73426 0 0.94366)
(9.59202 0 1.15833)
(9.65584 0 1.10013)
(9.49453 0 1.32706)
(9.56807 0 1.26651)
(9.38717 0 1.50777)
(9.47109 0 1.44426)
(9.26998 0 1.70195)
(9.36501 0 1.63485)
(9.14292 0 1.91113)
(9.24988 0 1.8398)
(9.0059 0 2.13693)
(9.12574 0 2.06069)
(8.85873 0 2.38108)
(8.99253 0 2.29924)
(8.7011 0 2.64542)
(8.85014 0 2.55725)
(8.5325 0 2.93202)
(8.6983 0 2.83675)
(8.35215 0 3.24319)
(8.5366 0 3.13999)
(8.15887 0 3.58161)
(8.36434 0 3.46961)
(7.95094 0 3.95047)
(8.18046 0 3.82872)
(7.7258 0 4.35366)
(7.98337 0 4.22113)
(7.47971 0 4.79603)
(7.7707 0 4.65163)
(7.20709 0 5.28377)
(7.53897 0 5.12643)
(6.89957 0 5.82486)
(7.28292 0 5.65374)
(6.54417 0 6.42964)
(6.99458 0 6.24469)
(6.12015 0 7.11154)
(6.66121 0 6.91479)
(5.59278 0 7.88768)
(6.26224 0 7.68629)
(4.90054 0 8.77788)
(5.75722 0 8.59267)
(3.92645 0 9.80134)
(5.08685 0 9.6851)
(2.43282 0 10.8562)
(3.97888 0 11.049)
(2.14575 0 12.5674)
(9.98862 0 0.199559)
(9.99567 0 0.135832)
(9.96652 0 0.331255)
(9.98124 0 0.2699)
(9.9342 0 0.464409)
(9.95571 0 0.404463)
(9.89202 0 0.60081)
(9.92017 0 0.541465)
(9.84031 0 0.742053)
(9.87553 0 0.68257)
(9.77933 0 0.889655)
(9.82217 0 0.829324)
(9.70933 0 1.0451)
(9.76029 0 0.983227)
(9.63052 0 1.20983)
(9.69011 0 1.14575)
(9.54308 0 1.38532)
(9.61187 0 1.31835)
(9.44719 0 1.57304)
(9.52578 0 1.5025)
(9.34297 0 1.77449)
(9.43208 0 1.69967)
(9.23054 0 1.99126)
(9.33094 0 1.91141)
(9.10997 0 2.225)
(9.22255 0 2.13935)
(8.98127 0 2.47753)
(9.10706 0 2.38523)
(8.8444 0 2.7508)
(8.98458 0 2.65092)
(8.69915 0 3.04704)
(8.85518 0 2.93855)
(8.54518 0 3.36881)
(8.71881 0 3.25052)
(8.38188 0 3.71914)
(8.57532 0 3.58967)
(8.2083 0 4.10174)
(8.42436 0 3.95943)
(8.02298 0 4.52127)
(8.26537 0 4.36405)
(7.82373 0 4.98377)
(8.09743 0 4.80901)
(7.60725 0 5.49729)
(7.91918 0 5.30155)
(7.36853 0 6.07287)
(7.72864 0 5.85153)
(7.09962 0 6.72618)
(7.52294 0 6.47288)
(6.78737 0 7.4804)
(7.29782 0 7.18617)
(6.40822 0 8.37224)
(7.0478 0 8.02379)
(5.91512 0 9.46614)
(6.76267 0 9.0422)
(5.19548 0 10.9083)
(6.46137 0 10.357)
(3.8837 0 13.1781)
(6.18874 0 12.3035)
(5.25715 0 16.3713)
(0.18347 0 -0.108298)
(0.10767 0 -0.179697)
(0.35689 0 -0.0913093)
(0.261743 0 -0.165843)
(0.498206 0 -0.0690341)
(0.413613 0 -0.131949)
(0.607373 0 -0.0494732)
(0.540209 0 -0.0995238)
(0.689469 0 -0.0339674)
(0.638169 0 -0.0730772)
(0.749986 0 -0.022158)
(0.712448 0 -0.052596)
(0.793742 0 -0.013392)
(0.768845 0 -0.0371302)
(0.824788 0 -0.00706104)
(0.811997 0 -0.0257231)
(0.846468 0 -0.00264064)
(0.845383 0 -0.0175388)
(0.861471 0 0.000314174)
(0.871682 0 -0.0118499)
(0.871898 0 0.00216785)
(0.892978 0 -0.00804157)
(0.87937 0 0.00320748)
(0.910861 0 -0.00562646)
(0.885128 0 0.00365795)
(0.92653 0 -0.00423321)
(0.890109 0 0.00370138)
(0.94088 0 -0.00357529)
(0.894984 0 0.00349247)
(0.954576 0 -0.00341739)
(0.900168 0 0.00316892)
(0.968082 0 -0.00354735)
(0.905797 0 0.00285873)
(0.981664 0 -0.00376117)
(0.911722 0 0.00268115)
(0.99539 0 -0.00386587)
(0.917526 0 0.00273524)
(1.00911 0 -0.00369703)
(0.922586 0 0.00307613)
(1.0225 0 -0.00314702)
(0.926208 0 0.00368414)
(1.0351 0 -0.00219919)
(0.927834 0 0.00442989)
(1.04639 0 -0.000964401)
(0.927204 0 0.00512298)
(1.05595 0 0.000364899)
(0.924211 0 0.00567505)
(1.0635 0 0.0016919)
(0.919005 0 0.00609813)
(1.06894 0 0.0028728)
(0.911725 0 0.00640339)
(1.07235 0 0.00392307)
(0.902532 0 0.00660173)
(1.0739 0 0.00483654)
(0.8915 0 0.00661184)
(1.07349 0 0.00566725)
(0.879316 0 0.00582507)
(1.07116 0 0.00611089)
(1.06737 0 0.00468843)
(0.170421 0 -0.260681)
(0.0902044 0 -0.346614)
(0.332501 0 -0.226381)
(0.232951 0 -0.320841)
(0.467396 0 -0.177731)
(0.365588 0 -0.257904)
(0.575426 0 -0.134391)
(0.477156 0 -0.198011)
(0.661388 0 -0.0998699)
(0.565189 0 -0.149595)
(0.730105 0 -0.0734475)
(0.634479 0 -0.11232)
(0.785602 0 -0.053677)
(0.689859 0 -0.0842239)
(0.831125 0 -0.0392056)
(0.734984 0 -0.0634407)
(0.869269 0 -0.0288717)
(0.772541 0 -0.0483962)
(0.902058 0 -0.0216891)
(0.804595 0 -0.0377489)
(0.931017 0 -0.0168551)
(0.832715 0 -0.0303747)
(0.957277 0 -0.01375)
(0.858048 0 -0.0254005)
(0.981684 0 -0.0119035)
(0.881419 0 -0.0221773)
(1.00487 0 -0.0109471)
(0.903435 0 -0.020218)
(1.0273 0 -0.0105746)
(0.924546 0 -0.0191375)
(1.0493 0 -0.010513)
(0.945086 0 -0.0186043)
(1.07107 0 -0.010506)
(0.965282 0 -0.0183111)
(1.09269 0 -0.0103154)
(0.985264 0 -0.0179678)
(1.11407 0 -0.0097448)
(1.00505 0 -0.0173187)
(1.13503 0 -0.00868138)
(1.02456 0 -0.0161833)
(1.1553 0 -0.00713494)
(1.0436 0 -0.0145023)
(1.1745 0 -0.00524818)
(1.06195 0 -0.0123496)
(1.19218 0 -0.00322501)
(1.07934 0 -0.00987062)
(1.20806 0 -0.00122672)
(1.09544 0 -0.00728708)
(1.22209 0 0.000657538)
(1.1102 0 -0.00486943)
(1.23436 0 0.00243781)
(1.12367 0 -0.00268591)
(1.24477 0 0.00412406)
(1.136 0 -0.000641431)
(1.25301 0 0.0054763)
(1.14727 0 0.00143192)
(1.2593 0 0.00559934)
(1.15726 0 0.00295579)
(1.16745 0 0.00287473)
(0.144261 0 -0.41318)
(0.0704738 0 -0.487909)
(0.276716 0 -0.359256)
(0.19027 0 -0.447508)
(0.384696 0 -0.284602)
(0.290259 0 -0.358727)
(0.470303 0 -0.218668)
(0.374309 0 -0.276056)
(0.538395 0 -0.16644)
(0.439218 0 -0.210206)
(0.593149 0 -0.126524)
(0.490249 0 -0.159907)
(0.637828 0 -0.096603)
(0.531194 0 -0.122138)
(0.674952 0 -0.0745851)
(0.564645 0 -0.0941997)
(0.706522 0 -0.0587088)
(0.592481 0 -0.073936)
(0.734093 0 -0.0474788)
(0.616239 0 -0.0595258)
(0.758781 0 -0.0396767)
(0.637086 0 -0.0494147)
(0.781391 0 -0.0343771)
(0.65579 0 -0.0424256)
(0.802506 0 -0.0308952)
(0.672876 0 -0.0377017)
(0.822563 0 -0.0287121)
(0.688727 0 -0.0346158)
(0.841889 0 -0.0274086)
(0.703637 0 -0.0326827)
(0.860725 0 -0.0266174)
(0.71784 0 -0.0314944)
(0.879233 0 -0.0259966)
(0.731518 0 -0.0306782)
(0.897492 0 -0.025232)
(0.744806 0 -0.0298797)
(0.915483 0 -0.0240682)
(0.757776 0 -0.028779)
(0.933106 0 -0.0223593)
(0.770427 0 -0.0271433)
(0.950212 0 -0.0201035)
(0.782691 0 -0.0248899)
(0.966665 0 -0.0174115)
(0.794465 0 -0.0221048)
(0.982376 0 -0.0144605)
(0.805654 0 -0.0189659)
(0.997289 0 -0.0114995)
(0.81618 0 -0.0157164)
(1.01145 0 -0.00874199)
(0.825997 0 -0.0126827)
(1.02507 0 -0.00618438)
(0.835161 0 -0.0100286)
(1.03838 0 -0.00373232)
(0.843847 0 -0.00764351)
(1.05149 0 -0.00151191)
(0.852447 0 -0.00530361)
(1.0638 0 0.0001671)
(0.860615 0 -0.00321695)
(0.869827 0 -0.00132459)
(0.115152 0 -0.531591)
(0.0504617 0 -0.600693)
(0.21247 0 -0.456702)
(0.14167 0 -0.540573)
(0.287672 0 -0.359683)
(0.202835 0 -0.428945)
(0.345676 0 -0.276168)
(0.256115 0 -0.328936)
(0.391163 0 -0.211)
(0.294001 0 -0.250695)
(0.427421 0 -0.161583)
(0.323167 0 -0.191419)
(0.456755 0 -0.12466)
(0.345964 0 -0.147031)
(0.480795 0 -0.0975038)
(0.363835 0 -0.114117)
(0.500879 0 -0.0779069)
(0.377768 0 -0.0901839)
(0.518109 0 -0.0639793)
(0.388847 0 -0.0731347)
(0.533166 0 -0.054186)
(0.397874 0 -0.0610275)
(0.54651 0 -0.0473911)
(0.405248 0 -0.0524734)
(0.558464 0 -0.0427673)
(0.411223 0 -0.0464902)
(0.569285 0 -0.0397008)
(0.415987 0 -0.0423839)
(0.57919 0 -0.037704)
(0.419717 0 -0.0396247)
(0.588363 0 -0.0363561)
(0.422587 0 -0.0377723)
(0.596965 0 -0.0352686)
(0.424775 0 -0.0364256)
(0.605113 0 -0.0340798)
(0.426471 0 -0.0351955)
(0.612861 0 -0.0324878)
(0.427843 0 -0.0337146)
(0.620192 0 -0.0303152)
(0.428986 0 -0.0317025)
(0.627053 0 -0.0275578)
(0.42991 0 -0.0290561)
(0.633427 0 -0.0243468)
(0.430576 0 -0.025884)
(0.639296 0 -0.020887)
(0.430891 0 -0.0223636)
(0.644575 0 -0.0174862)
(0.430743 0 -0.0187004)
(0.649312 0 -0.0144275)
(0.430069 0 -0.0152968)
(0.653759 0 -0.0116987)
(0.428614 0 -0.0124249)
(0.65792 0 -0.00921399)
(0.426455 0 -0.00983279)
(0.661551 0 -0.00721286)
(0.424511 0 -0.00716881)
(0.664996 0 -0.00525513)
(0.421025 0 -0.00494507)
(0.414319 0 -0.00217141)
(0.0811022 0 -0.617478)
(0.0292487 0 -0.680128)
(0.139153 0 -0.520927)
(0.0864159 0 -0.596087)
(0.1783 0 -0.406028)
(0.104125 0 -0.465498)
(0.206032 0 -0.310442)
(0.124988 0 -0.354218)
(0.22621 0 -0.237039)
(0.133226 0 -0.268656)
(0.241084 0 -0.181772)
(0.137878 0 -0.204346)
(0.25192 0 -0.140482)
(0.139366 0 -0.156226)
(0.259415 0 -0.110022)
(0.138205 0 -0.120328)
(0.264327 0 -0.088012)
(0.134633 0 -0.0941576)
(0.267422 0 -0.0722451)
(0.129404 0 -0.0755793)
(0.268974 0 -0.06091)
(0.123058 0 -0.0622245)
(0.269156 0 -0.0527932)
(0.115688 0 -0.0526104)
(0.268083 0 -0.0470235)
(0.107452 0 -0.045701)
(0.265895 0 -0.0429703)
(0.0984297 0 -0.0408133)
(0.262753 0 -0.0401404)
(0.0887547 0 -0.0374228)
(0.258847 0 -0.0381162)
(0.0785916 0 -0.0350992)
(0.254391 0 -0.0365109)
(0.0681473 0 -0.0334478)
(0.249586 0 -0.0349437)
(0.0576597 0 -0.0320608)
(0.244565 0 -0.0330633)
(0.0473078 0 -0.0305163)
(0.239346 0 -0.0306291)
(0.0371207 0 -0.0284567)
(0.233867 0 -0.0276068)
(0.0269825 0 -0.0257289)
(0.228133 0 -0.0241348)
(0.0167257 0 -0.0224839)
(0.222174 0 -0.0204123)
(0.0061534 0 -0.0189141)
(0.215784 0 -0.0167825)
(-0.00481111 0 -0.0150885)
(0.208787 0 -0.0137883)
(-0.0161138 0 -0.0114354)
(0.201473 0 -0.0114573)
(-0.0288502 0 -0.00848398)
(0.193493 0 -0.00870344)
(-0.0439463 0 -0.00563413)
(0.183127 0 -0.00488931)
(-0.0576843 0 -0.00184403)
(0.169297 0 -0.00122647)
(-0.0691651 0 0.00199169)
(-0.0813859 0 0.00314221)
(0.0417866 0 -0.665947)
(0.00564744 0 -0.721055)
(0.0563766 0 -0.5478)
(0.0230978 0 -0.61004)
(0.0572907 0 -0.419699)
(-0.00490014 0 -0.466351)
(0.053191 0 -0.316958)
(-0.0190133 0 -0.35048)
(0.0455306 0 -0.239009)
(-0.0425003 0 -0.261837)
(0.0358641 0 -0.180735)
(-0.0654518 0 -0.195945)
(0.0247453 0 -0.137138)
(-0.088543 0 -0.14679)
(0.0123451 0 -0.10476)
(-0.111616 0 -0.110053)
(-0.00134679 0 -0.0813906)
(-0.13486 0 -0.0830812)
(-0.0161301 0 -0.0649295)
(-0.157963 0 -0.0639024)
(-0.0313401 0 -0.0532005)
(-0.180606 0 -0.0504943)
(-0.0469693 0 -0.0447035)
(-0.202721 0 -0.0408417)
(-0.0629967 0 -0.0385971)
(-0.224193 0 -0.0339175)
(-0.0793119 0 -0.034318)
(-0.245116 0 -0.0291014)
(-0.0957546 0 -0.0314154)
(-0.265537 0 -0.0258982)
(-0.112121 0 -0.0294934)
(-0.285495 0 -0.0238993)
(-0.128199 0 -0.0281454)
(-0.304968 0 -0.0227049)
(-0.143852 0 -0.0269236)
(-0.323893 0 -0.0218487)
(-0.159101 0 -0.0253819)
(-0.342267 0 -0.020803)
(-0.174181 0 -0.0232079)
(-0.360261 0 -0.0190778)
(-0.189451 0 -0.0204048)
(-0.37821 0 -0.0164557)
(-0.205062 0 -0.0172183)
(-0.396544 0 -0.0132279)
(-0.220923 0 -0.0136973)
(-0.415942 0 -0.0097323)
(-0.237091 0 -0.00964442)
(-0.43553 0 -0.00594951)
(-0.25452 0 -0.00527936)
(-0.453663 0 -0.00181672)
(-0.274212 0 -0.00130663)
(-0.470244 0 0.00212687)
(-0.294193 0 0.0021669)
(-0.486738 0 0.00487856)
(-0.310577 0 0.00505225)
(-0.501775 0 0.00657217)
(-0.321231 0 0.0059029)
(-0.51252 0 0.00733569)
(-0.518328 0 0.00654877)
(-0.00620431 0 -0.670288)
(-0.0228956 0 -0.714979)
(-0.0361449 0 -0.532374)
(-0.0504973 0 -0.581408)
(-0.0743562 0 -0.397444)
(-0.124062 0 -0.430673)
(-0.11351 0 -0.29348)
(-0.177428 0 -0.314785)
(-0.152359 0 -0.215716)
(-0.234337 0 -0.227256)
(-0.189844 0 -0.158425)
(-0.287041 0 -0.163367)
(-0.225595 0 -0.11597)
(-0.335517 0 -0.116453)
(-0.259751 0 -0.0847404)
(-0.379674 0 -0.0817537)
(-0.292353 0 -0.0623729)
(-0.42028 0 -0.0567075)
(-0.323416 0 -0.0467939)
(-0.458094 0 -0.0393661)
(-0.352866 0 -0.0359575)
(-0.493691 0 -0.0277825)
(-0.38065 0 -0.0282693)
(-0.527142 0 -0.0199206)
(-0.406877 0 -0.0229184)
(-0.557504 0 -0.0146347)
(-0.431723 0 -0.0194214)
(-0.585402 0 -0.0112656)
(-0.45543 0 -0.0173393)
(-0.611435 0 -0.0092825)
(-0.478216 0 -0.0162696)
(-0.636172 0 -0.008306)
(-0.500232 0 -0.0157724)
(-0.66004 0 -0.00799438)
(-0.521602 0 -0.015301)
(-0.683306 0 -0.00790667)
(-0.542523 0 -0.0142323)
(-0.706129 0 -0.00747655)
(-0.563345 0 -0.0120535)
(-0.72858 0 -0.00612792)
(-0.584647 0 -0.00867505)
(-0.750599 0 -0.00351989)
(-0.607184 0 -0.00464263)
(-0.771991 0 0.000134217)
(-0.630443 0 -0.00077273)
(-0.792659 0 0.00373306)
(-0.652116 0 0.0025941)
(-0.812151 0 0.00630063)
(-0.669815 0 0.00547371)
(-0.829234 0 0.00795084)
(-0.68304 0 0.00759379)
(-0.84282 0 0.00925341)
(-0.693666 0 0.00876936)
(-0.853557 0 0.0104691)
(-0.703091 0 0.00914391)
(-0.863295 0 0.011414)
(-0.711294 0 0.00867002)
(-0.871493 0 0.01145)
(-0.876074 0 0.0104215)
(-0.0566059 0 -0.625088)
(-0.0587808 0 -0.659537)
(-0.137654 0 -0.475269)
(-0.135619 0 -0.5039)
(-0.218657 0 -0.341892)
(-0.257841 0 -0.355039)
(-0.29614 0 -0.242029)
(-0.355028 0 -0.244146)
(-0.367812 0 -0.169208)
(-0.447425 0 -0.163458)
(-0.432603 0 -0.117186)
(-0.531015 0 -0.107057)
(-0.490073 0 -0.0795296)
(-0.605436 0 -0.067684)
(-0.541092 0 -0.0518832)
(-0.670419 0 -0.0394821)
(-0.586964 0 -0.0320033)
(-0.724751 0 -0.0195989)
(-0.629169 0 -0.0184054)
(-0.771033 0 -0.00602945)
(-0.668416 0 -0.00972194)
(-0.811213 0 0.00248514)
(-0.704176 0 -0.00464522)
(-0.84688 0 0.007007)
(-0.736162 0 -0.00186213)
(-0.87874 0 0.00888132)
(-0.765142 0 -0.000393231)
(-0.907653 0 0.00953779)
(-0.792075 0 0.000270949)
(-0.934399 0 0.00959461)
(-0.817768 0 0.000439324)
(-0.959588 0 0.00927681)
(-0.842777 0 0.000411611)
(-0.983585 0 0.00871602)
(-0.867399 0 0.000573656)
(-1.00655 0 0.00815657)
(-0.891656 0 0.0013444)
(-1.02859 0 0.00797492)
(-0.915232 0 0.00300481)
(-1.04981 0 0.00853496)
(-0.937396 0 0.0054805)
(-1.07017 0 0.00993939)
(-0.957124 0 0.00816463)
(-1.08939 0 0.0118311)
(-0.974192 0 0.0102427)
(-1.10678 0 0.0136139)
(-0.989216 0 0.0114391)
(-1.12244 0 0.0147928)
(-1.00237 0 0.0121412)
(-1.13633 0 0.0152077)
(-1.01351 0 0.0128019)
(-1.14808 0 0.0152602)
(-1.02286 0 0.0134157)
(-1.15788 0 0.0153864)
(-1.03084 0 0.0135146)
(-1.16638 0 0.0155149)
(-1.0381 0 0.0128408)
(-1.17339 0 0.0150903)
(-1.17701 0 0.0141824)