/*--------------------------------*- C++ -*----------------------------------*\
  =========                 |
  \\      /  F ield         | OpenFOAM: The Open Source CFD Toolbox
   \\    /   O peration     | Website:  https://openfoam.org
    \\  /    A nd           | Version:  dev
     \\/     M anipulation  |
\*---------------------------------------------------------------------------*/
FoamFile
{
    version     2.0;
    format      ascii;
    class       volVectorField;
    location    "8.5";
    object      U;
}
// * * * * * * * * * * * * * * * * * * * * * * * * * * * * * * * * * * * * * //

dimensions      [0 1 -1 0 0 0 0];

internalField   nonuniform List<vector> 
2790
(
(9.94399 0 0.0205233)
(9.87572 0 0.029588)
(9.7752 0 0.03599)
(9.64943 0 0.0425569)
(9.50408 0 0.0493865)
(9.34006 0 0.0564297)
(9.15653 0 0.0638176)
(8.9526 0 0.0717138)
(8.72744 0 0.0802579)
(8.48005 0 0.0895768)
(8.20923 0 0.0997975)
(7.91359 0 0.11105)
(7.59161 0 0.123466)
(7.2417 0 0.137172)
(6.86223 0 0.152281)
(6.45168 0 0.168879)
(6.00875 0 0.187007)
(5.53254 0 0.20663)
(5.02281 0 0.227601)
(4.48027 0 0.249622)
(3.90697 0 0.272186)
(3.30664 0 0.294533)
(2.68509 0 0.315625)
(2.05043 0 0.334291)
(1.41162 0 0.350606)
(0.797885 0 0.372886)
(0.110501 0 0.324979)
(-0.469574 0 -0.114898)
(-0.453801 0 -0.297123)
(-0.231165 0 -0.423847)
(9.9985 0 0.0407035)
(9.98145 0 0.0623838)
(9.93574 0 0.0791417)
(9.86416 0 0.0966269)
(9.77097 0 0.115127)
(9.65714 0 0.134492)
(9.52204 0 0.15498)
(9.36483 0 0.176949)
(9.18469 0 0.200715)
(8.98064 0 0.226558)
(8.75148 0 0.254755)
(8.49583 0 0.285573)
(8.21214 0 0.319264)
(7.89874 0 0.35604)
(7.55395 0 0.396039)
(7.17608 0 0.439284)
(6.76366 0 0.485615)
(6.31552 0 0.53461)
(5.83109 0 0.585484)
(5.31071 0 0.636974)
(4.75597 0 0.68722)
(4.17023 0 0.733658)
(3.55911 0 0.772958)
(2.93137 0 0.80109)
(2.29978 0 0.813738)
(1.6928 0 0.807236)
(1.10702 0 0.747208)
(0.658807 0 0.547876)
(0.186306 0 0.22453)
(-0.00819817 0 -0.453767)
(9.99559 0 0.0432078)
(9.97556 0 0.0752734)
(9.9318 0 0.103349)
(9.86489 0 0.132375)
(9.77777 0 0.163064)
(9.67154 0 0.195405)
(9.54586 0 0.22975)
(9.40011 0 0.266612)
(9.23363 0 0.306482)
(9.0456 0 0.349821)
(8.83505 0 0.397089)
(8.60076 0 0.448742)
(8.34139 0 0.505215)
(8.05542 0 0.566889)
(7.74129 0 0.63404)
(7.39734 0 0.706762)
(7.02199 0 0.784869)
(6.61382 0 0.867756)
(6.17179 0 0.954225)
(5.69548 0 1.04228)
(5.18546 0 1.1289)
(4.64378 0 1.2098)
(4.07461 0 1.27916)
(3.4852 0 1.32932)
(2.88668 0 1.35007)
(2.29932 0 1.32639)
(1.73172 0 1.22071)
(1.21616 0 0.972933)
(0.701077 0 0.570065)
(0.357999 0 -0.156674)
(9.99403 0 0.0495004)
(9.97181 0 0.0932086)
(9.92788 0 0.133576)
(9.86224 0 0.174214)
(9.77693 0 0.21644)
(9.67297 0 0.260669)
(9.5503 0 0.30744)
(9.40847 0 0.357428)
(9.247 0 0.411306)
(9.0653 0 0.469724)
(8.86264 0 0.533324)
(8.63814 0 0.602749)
(8.39079 0 0.678622)
(8.11945 0 0.761508)
(7.82291 0 0.851857)
(7.49991 0 0.949914)
(7.14913 0 1.05559)
(6.76931 0 1.16828)
(6.35935 0 1.28664)
(5.91844 0 1.4083)
(5.44636 0 1.5295)
(4.94382 0 1.6447)
(4.41299 0 1.74614)
(3.85809 0 1.8232)
(3.28565 0 1.86133)
(2.70625 0 1.84027)
(2.12552 0 1.72592)
(1.55416 0 1.47776)
(0.957888 0 1.08358)
(0.509404 0 0.502203)
(9.99331 0 0.0572151)
(9.96994 0 0.110962)
(9.92593 0 0.162108)
(9.86145 0 0.213354)
(9.77798 0 0.266365)
(9.67634 0 0.321925)
(9.55652 0 0.380715)
(9.4182 0 0.443504)
(9.26095 0 0.511076)
(9.0843 0 0.584193)
(8.88766 0 0.663615)
(8.67034 0 0.750095)
(8.43153 0 0.844371)
(8.17039 0 0.947125)
(7.88599 0 1.05892)
(7.57738 0 1.18012)
(7.24355 0 1.31073)
(6.88348 0 1.45023)
(6.49614 0 1.59727)
(6.08057 0 1.74937)
(5.63599 0 1.90244)
(5.16194 0 2.05034)
(4.65859 0 2.18418)
(4.12703 0 2.29172)
(3.56922 0 2.35651)
(2.98873 0 2.35725)
(2.38669 0 2.26485)
(1.76628 0 2.04751)
(1.08992 0 1.69124)
(0.536623 0 1.15398)
(9.99302 0 0.0655404)
(9.96923 0 0.128705)
(9.92556 0 0.190119)
(9.86252 0 0.251851)
(9.78128 0 0.315588)
(9.68243 0 0.382331)
(9.566 0 0.45289)
(9.43169 0 0.52812)
(9.27918 0 0.608903)
(9.10803 0 0.696112)
(8.91774 0 0.790612)
(8.70769 0 0.893262)
(8.47722 0 1.0049)
(8.2256 0 1.1263)
(7.95206 0 1.25814)
(7.65579 0 1.40087)
(7.33592 0 1.5546)
(6.99151 0 1.71892)
(6.62154 0 1.89261)
(6.22484 0 2.07327)
(5.8001 0 2.25689)
(5.34585 0 2.43723)
(4.86051 0 2.6052)
(4.3425 0 2.7482)
(3.7902 0 2.84949)
(3.20239 0 2.8881)
(2.57641 0 2.8381)
(1.91334 0 2.67144)
(1.17267 0 2.3738)
(0.549932 0 1.89419)
(9.99297 0 0.0740768)
(9.96926 0 0.146318)
(9.92637 0 0.217489)
(9.86508 0 0.2893)
(9.78642 0 0.363366)
(9.69084 0 0.440841)
(9.57834 0 0.522678)
(9.4487 0 0.609833)
(9.30163 0 0.703282)
(9.13675 0 0.803997)
(8.95361 0 0.912938)
(8.75166 0 1.03105)
(8.53028 0 1.15927)
(8.28881 0 1.29846)
(8.02651 0 1.44936)
(7.74259 0 1.61255)
(7.43618 0 1.78826)
(7.10627 0 1.97623)
(6.75166 0 2.17548)
(6.37084 0 2.38388)
(5.96192 0 2.59779)
(5.52244 0 2.81141)
(5.04931 0 3.01616)
(4.53878 0 3.19994)
(3.98644 0 3.34661)
(3.3877 0 3.43585)
(2.73706 0 3.44315)
(2.03609 0 3.34128)
(1.24165 0 3.11332)
(0.56347 0 2.69288)
(9.99306 0 0.0825902)
(9.96981 0 0.163611)
(9.92807 0 0.244057)
(9.86885 0 0.325489)
(9.79312 0 0.409458)
(9.70125 0 0.497222)
(9.59322 0 0.589859)
(9.46887 0 0.68842)
(9.32794 0 0.79397)
(9.17012 0 0.907565)
(8.99499 0 1.03026)
(8.80206 0 1.16309)
(8.59076 0 1.30706)
(8.36044 0 1.46315)
(8.11037 0 1.63222)
(7.83971 0 1.81495)
(7.5475 0 2.01175)
(7.23254 0 2.2226)
(6.89335 0 2.44682)
(6.52799 0 2.68277)
(6.13389 0 2.92742)
(5.70763 0 3.17582)
(5.24473 0 3.42038)
(4.73953 0 3.65018)
(4.18522 0 3.85017)
(3.5745 0 4.00076)
(2.89929 0 4.07771)
(2.16192 0 4.05212)
(1.31599 0 3.90138)
(0.583161 0 3.5398)
(9.99326 0 0.0909307)
(9.97072 0 0.180413)
(9.93046 0 0.269675)
(9.87362 0 0.360252)
(9.80117 0 0.45366)
(9.71343 0 0.551227)
(9.61037 0 0.654133)
(9.49187 0 0.763523)
(9.35774 0 0.880537)
(9.20771 0 1.00632)
(9.04143 0 1.142)
(8.85844 0 1.28872)
(8.65822 0 1.44758)
(8.44016 0 1.61966)
(8.2035 0 1.80595)
(7.94737 0 2.0073)
(7.67067 0 2.22434)
(7.37203 0 2.45738)
(7.04964 0 2.70615)
(6.70109 0 2.96967)
(6.32314 0 3.24575)
(5.91141 0 3.5306)
(5.4601 0 3.8181)
(4.96172 0 4.09898)
(4.4071 0 4.3598)
(3.78609 0 4.58196)
(3.08727 0 4.74085)
(2.31245 0 4.80414)
(1.41047 0 4.74069)
(0.614228 0 4.44148)
(9.99352 0 0.0989947)
(9.97191 0 0.196584)
(9.9334 0 0.294203)
(9.87924 0 0.393427)
(9.8104 0 0.49577)
(9.72716 0 0.602607)
(9.62952 0 0.715205)
(9.51741 0 0.83479)
(9.39067 0 0.962579)
(9.24911 0 1.09979)
(9.09243 0 1.24764)
(8.92025 0 1.40735)
(8.73209 0 1.58013)
(8.52737 0 1.76718)
(8.30537 0 1.96965)
(8.06517 0 2.18858)
(7.80562 0 2.4249)
(7.52517 0 2.67928)
(7.22176 0 2.95204)
(6.89258 0 3.24294)
(6.53381 0 3.5509)
(6.14021 0 3.87359)
(5.70475 0 4.20677)
(5.21814 0 4.5434)
(4.66862 0 4.87238)
(4.04247 0 5.17682)
(3.3233 0 5.43205)
(2.50942 0 5.60158)
(1.54162 0 5.64299)
(0.66394 0 5.41745)
(9.99384 0 0.106707)
(9.9733 0 0.212005)
(9.9368 0 0.31751)
(9.88558 0 0.424867)
(9.82063 0 0.535603)
(9.74225 0 0.651139)
(9.65044 0 0.772811)
(9.54517 0 0.901915)
(9.42637 0 1.03974)
(9.29389 0 1.18756)
(9.14751 0 1.34669)
(8.98692 0 1.51842)
(8.81171 0 1.70407)
(8.62138 0 1.90496)
(8.41526 0 2.12241)
(8.19245 0 2.35771)
(7.95178 0 2.61209)
(7.69166 0 2.88668)
(7.40989 0 3.18243)
(7.10345 0 3.50001)
(6.76811 0 3.83962)
(6.39805 0 4.20068)
(5.98521 0 4.58129)
(5.51868 0 4.97738)
(4.98392 0 5.38129)
(4.36275 0 5.77942)
(3.63137 0 6.14886)
(2.77963 0 6.45021)
(1.73308 0 6.62786)
(0.744655 0 6.5023)
(9.9942 0 0.114009)
(9.97487 0 0.22658)
(9.94056 0 0.339481)
(9.89252 0 0.454434)
(9.83173 0 0.572998)
(9.75851 0 0.696628)
(9.67288 0 0.826718)
(9.57488 0 0.964624)
(9.46448 0 1.11169)
(9.34161 0 1.26926)
(9.20614 0 1.43871)
(9.05785 0 1.6214)
(8.89642 0 1.81877)
(8.72143 0 2.03225)
(8.53232 0 2.26334)
(8.32829 0 2.51357)
(8.10826 0 2.78449)
(7.87069 0 3.07772)
(7.61346 0 3.3949)
(7.33353 0 3.73767)
(7.02667 0 4.10764)
(6.68683 0 4.50621)
(6.30549 0 4.93427)
(5.8706 0 5.39156)
(5.3652 0 5.87539)
(4.76623 0 6.37815)
(4.03999 0 6.88294)
(3.16075 0 7.35297)
(2.02417 0 7.72236)
(0.880442 0 7.75599)
(9.99459 0 0.120856)
(9.97657 0 0.240229)
(9.94461 0 0.360015)
(9.89995 0 0.482012)
(9.84356 0 0.60781)
(9.77576 0 0.738902)
(9.69662 0 0.876722)
(9.60623 0 1.02268)
(9.50463 0 1.17816)
(9.39184 0 1.34456)
(9.26781 0 1.52331)
(9.13241 0 1.71585)
(8.98546 0 1.92369)
(8.82666 0 2.14839)
(8.65559 0 2.3916)
(8.47162 0 2.65507)
(8.27384 0 2.94069)
(8.06097 0 3.25052)
(7.83111 0 3.58689)
(7.58159 0 3.9524)
(7.30852 0 4.35008)
(7.0063 0 4.7834)
(6.66677 0 5.25634)
(6.27791 0 5.77315)
(5.82175 0 6.33782)
(5.27162 0 6.95241)
(4.58353 0 7.6134)
(3.7089 0 8.30033)
(2.48725 0 8.95714)
(1.12396 0 9.29159)
(9.99501 0 0.127213)
(9.97838 0 0.252889)
(9.94891 0 0.379029)
(9.9078 0 0.507497)
(9.85598 0 0.639922)
(9.79382 0 0.777821)
(9.72143 0 0.922663)
(9.63894 0 1.07589)
(9.54647 0 1.23893)
(9.44413 0 1.41322)
(9.33195 0 1.60022)
(9.20994 0 1.80143)
(9.07805 0 2.01842)
(8.93613 0 2.25286)
(8.78395 0 2.50651)
(8.62112 0 2.78133)
(8.44702 0 3.07947)
(8.26071 0 3.4034)
(8.06081 0 3.75601)
(7.84526 0 4.14077)
(7.61104 0 4.56198)
(7.35372 0 5.02503)
(7.06665 0 5.53687)
(6.73976 0 6.10648)
(6.35708 0 6.74554)
(5.89299 0 7.46909)
(5.29943 0 8.29624)
(4.50728 0 9.24744)
(3.26724 0 10.3405)
(1.604 0 11.3565)
(9.99545 0 0.133053)
(9.98026 0 0.264508)
(9.95339 0 0.396449)
(9.91596 0 0.530799)
(9.86888 0 0.669213)
(9.81253 0 0.813231)
(9.74708 0 0.964346)
(9.67272 0 1.12402)
(9.58964 0 1.29372)
(9.49803 0 1.47489)
(9.39803 0 1.66902)
(9.28978 0 1.87764)
(9.17337 0 2.10238)
(9.04886 0 2.34495)
(8.91622 0 2.60723)
(8.77536 0 2.89128)
(8.62602 0 3.19947)
(8.46775 0 3.53454)
(8.29983 0 3.89982)
(8.12111 0 4.29938)
(7.92989 0 4.73845)
(7.72359 0 5.22388)
(7.49838 0 5.76487)
(7.24835 0 6.37425)
(6.96399 0 7.07042)
(6.62974 0 7.8812)
(6.21278 0 8.85195)
(5.66365 0 10.0655)
(4.68744 0 11.7296)
(2.68533 0 14.5874)
(0.120583 0 -0.119556)
(0.283162 0 -0.10889)
(0.449158 0 -0.0855814)
(0.587503 0 -0.0629575)
(0.692564 0 -0.0436755)
(0.767932 0 -0.0277047)
(0.81833 0 -0.0145276)
(0.847538 0 -0.00368688)
(0.858578 0 0.00500367)
(0.854289 0 0.0110231)
(0.837393 0 0.0150492)
(0.810852 0 0.0175869)
(0.777476 0 0.0188547)
(0.739868 0 0.0189742)
(0.700547 0 0.0180863)
(0.661877 0 0.0163945)
(0.625872 0 0.0141698)
(0.594 0 0.0117201)
(0.567069 0 0.00934828)
(0.545188 0 0.00730221)
(0.527837 0 0.00571903)
(0.514085 0 0.00461002)
(0.502894 0 0.0038875)
(0.493402 0 0.00341348)
(0.485081 0 0.00305777)
(0.477702 0 0.00275308)
(0.471144 0 0.0024954)
(0.465218 0 0.00230673)
(0.459645 0 0.00215906)
(0.453434 0 0.00172512)
(0.104625 0 -0.281828)
(0.264339 0 -0.264233)
(0.420571 0 -0.214562)
(0.553924 0 -0.165144)
(0.660462 0 -0.122663)
(0.743636 0 -0.087186)
(0.80752 0 -0.0576083)
(0.855253 0 -0.0328977)
(0.889046 0 -0.0123102)
(0.91072 0 0.00461015)
(0.919881 0 0.0176552)
(0.918481 0 0.0271011)
(0.909141 0 0.0332125)
(0.894457 0 0.0362181)
(0.877003 0 0.036449)
(0.85919 0 0.0343904)
(0.843039 0 0.030647)
(0.82999 0 0.0259028)
(0.820808 0 0.020875)
(0.815535 0 0.0162232)
(0.813596 0 0.0124031)
(0.81405 0 0.00959271)
(0.8159 0 0.0076916)
(0.818368 0 0.00640292)
(0.821031 0 0.00540796)
(0.823753 0 0.00455172)
(0.826483 0 0.00385087)
(0.829089 0 0.00339409)
(0.831289 0 0.00317647)
(0.833088 0 0.00288056)
(0.0842426 0 -0.447462)
(0.22351 0 -0.41869)
(0.349952 0 -0.342635)
(0.457828 0 -0.267809)
(0.544215 0 -0.203902)
(0.612701 0 -0.15067)
(0.666479 0 -0.106437)
(0.70791 0 -0.0696867)
(0.738913 0 -0.0391858)
(0.760958 0 -0.013598)
(0.777788 0 0.00756046)
(0.786479 0 0.0237367)
(0.789066 0 0.0347675)
(0.78744 0 0.0407439)
(0.783515 0 0.0421378)
(0.77908 0 0.0397498)
(0.775597 0 0.0345723)
(0.77408 0 0.0277258)
(0.775015 0 0.0203968)
(0.778291 0 0.0136954)
(0.783272 0 0.00836998)
(0.789037 0 0.00471204)
(0.794626 0 0.00256213)
(0.799324 0 0.00143644)
(0.802899 0 0.000810219)
(0.805577 0 0.000400663)
(0.807765 0 0.000177022)
(0.809782 0 0.000231937)
(0.811661 0 0.000602078)
(0.813305 0 0.00127482)
(0.0643739 0 -0.580773)
(0.1773 0 -0.5356)
(0.267069 0 -0.435707)
(0.34457 0 -0.340969)
(0.405634 0 -0.26136)
(0.454681 0 -0.195345)
(0.493841 0 -0.140533)
(0.524555 0 -0.0949121)
(0.547977 0 -0.0571146)
(0.565044 0 -0.0263247)
(0.57781 0 -0.00120761)
(0.587225 0 0.0186354)
(0.592287 0 0.0325257)
(0.594524 0 0.0402102)
(0.595368 0 0.0422283)
(0.595975 0 0.0396164)
(0.597145 0 0.0336582)
(0.599339 0 0.0257945)
(0.602654 0 0.0175559)
(0.606712 0 0.0104053)
(0.610735 0 0.00522484)
(0.613864 0 0.00230305)
(0.615376 0 0.00128028)
(0.614922 0 0.00130127)
(0.612632 0 0.00150064)
(0.609028 0 0.00141797)
(0.604703 0 0.00108971)
(0.600114 0 0.000824758)
(0.595453 0 0.000885037)
(0.590104 0 0.00162215)
(0.0437794 0 -0.683418)
(0.125029 0 -0.616962)
(0.172541 0 -0.496495)
(0.217206 0 -0.388256)
(0.249493 0 -0.298955)
(0.275925 0 -0.225295)
(0.297291 0 -0.164272)
(0.314457 0 -0.113437)
(0.327988 0 -0.0712876)
(0.338237 0 -0.0369333)
(0.345293 0 -0.00868175)
(0.35366 0 0.0140298)
(0.357744 0 0.0298686)
(0.359203 0 0.0385017)
(0.359488 0 0.040774)
(0.359273 0 0.0380043)
(0.358675 0 0.0316484)
(0.35757 0 0.0232758)
(0.355763 0 0.0146722)
(0.35289 0 0.00777295)
(0.348312 0 0.00332038)
(0.341719 0 0.00154416)
(0.333057 0 0.00182999)
(0.322091 0 0.00309285)
(0.308809 0 0.00440425)
(0.293833 0 0.0051876)
(0.277883 0 0.00543167)
(0.261604 0 0.00558777)
(0.245698 0 0.00610598)
(0.228963 0 0.0062663)
(0.0219578 0 -0.750066)
(0.0662935 0 -0.658517)
(0.0674345 0 -0.520886)
(0.0773227 0 -0.40517)
(0.0775803 0 -0.311027)
(0.0778667 0 -0.234074)
(0.0774343 0 -0.170801)
(0.0772619 0 -0.118356)
(0.0777643 0 -0.0751041)
(0.0787902 0 -0.0408871)
(0.0796573 0 -0.0151157)
(0.0813831 0 0.00808664)
(0.0791 0 0.028016)
(0.0744297 0 0.0387516)
(0.0678841 0 0.0421661)
(0.0589934 0 0.0405108)
(0.0468501 0 0.0355312)
(0.0307881 0 0.0287845)
(0.0104838 0 0.0217397)
(-0.0121131 0 0.0161398)
(-0.0353556 0 0.0129709)
(-0.0577894 0 0.0122426)
(-0.0782037 0 0.0134244)
(-0.0960347 0 0.0151787)
(-0.112054 0 0.0165271)
(-0.126818 0 0.0169658)
(-0.140995 0 0.016681)
(-0.154957 0 0.0161702)
(-0.168671 0 0.0151391)
(-0.180569 0 0.0124447)
(-0.00261546 0 -0.77399)
(-0.000423819 0 -0.65516)
(-0.0467638 0 -0.504964)
(-0.0752779 0 -0.387642)
(-0.109696 0 -0.293618)
(-0.139916 0 -0.218408)
(-0.166905 0 -0.157935)
(-0.189674 0 -0.108887)
(-0.208519 0 -0.0684352)
(-0.225935 0 -0.0344772)
(-0.24709 0 -0.00527888)
(-0.270127 0 0.0191546)
(-0.278264 0 0.0360273)
(-0.289044 0 0.0461597)
(-0.301464 0 0.0506639)
(-0.316323 0 0.0509439)
(-0.333799 0 0.0482482)
(-0.353578 0 0.0436921)
(-0.375144 0 0.0383317)
(-0.397659 0 0.0330754)
(-0.420227 0 0.02899)
(-0.441955 0 0.0263235)
(-0.461966 0 0.0249148)
(-0.479444 0 0.0241903)
(-0.494233 0 0.0235508)
(-0.50663 0 0.0226843)
(-0.517248 0 0.0216401)
(-0.526778 0 0.020486)
(-0.535533 0 0.0188531)
(-0.541777 0 0.0166497)
(-0.0332191 0 -0.747836)
(-0.077429 0 -0.604066)
(-0.16856 0 -0.451184)
(-0.240773 0 -0.336338)
(-0.312139 0 -0.247232)
(-0.376172 0 -0.177539)
(-0.433135 0 -0.122327)
(-0.482716 0 -0.077697)
(-0.525202 0 -0.0404201)
(-0.562261 0 -0.00936545)
(-0.594101 0 0.0146985)
(-0.61203 0 0.0320289)
(-0.628063 0 0.0456744)
(-0.641934 0 0.0554964)
(-0.655524 0 0.0607725)
(-0.669943 0 0.0620546)
(-0.685617 0 0.0601608)
(-0.702531 0 0.0560318)
(-0.720517 0 0.0507632)
(-0.739332 0 0.045473)
(-0.758579 0 0.0410821)
(-0.777651 0 0.0378009)
(-0.795691 0 0.0353338)
(-0.811718 0 0.0331633)
(-0.825046 0 0.03088)
(-0.835579 0 0.0284717)
(-0.843856 0 0.0262055)
(-0.850796 0 0.0241875)
(-0.856869 0 0.0221454)
(-0.860597 0 0.0202861)
(-0.0701404 0 -0.669585)
(-0.161859 0 -0.504845)
(-0.301705 0 -0.354993)
(-0.419006 0 -0.248169)
(-0.526942 0 -0.170386)
(-0.620547 0 -0.112178)
(-0.700276 0 -0.0670904)
(-0.767388 0 -0.031756)
(-0.823509 0 -0.00391096)
(-0.864703 0 0.0172945)
(-0.893192 0 0.0335681)
(-0.916816 0 0.0468197)
(-0.935723 0 0.0577058)
(-0.951254 0 0.0656867)
(-0.965052 0 0.0703714)
(-0.97845 0 0.0717689)
(-0.992192 0 0.0702177)
(-1.00653 0 0.0664057)
(-1.02151 0 0.0613603)
(-1.03717 0 0.0561959)
(-1.05346 0 0.0516994)
(-1.07007 0 0.0479699)
(-1.08625 0 0.0445745)
(-1.10092 0 0.0409829)
(-1.11308 0 0.0370187)
(-1.12236 0 0.0330321)
(-1.12922 0 0.0295718)
(-1.13468 0 0.0268453)
(-1.13926 0 0.0246634)
(-1.14179 0 0.0232072)
(-0.11722 0 -0.53363)
(-0.262737 0 -0.356121)
(-0.455591 0 -0.219086)
(-0.615853 0 -0.128681)
(-0.756691 0 -0.0670088)
(-0.874508 0 -0.0253178)
(-0.965552 0 0.00166841)
(-1.03441 0 0.0204087)
(-1.08497 0 0.0340981)
(-1.12479 0 0.0452755)
(-1.15685 0 0.0550544)
(-1.18257 0 0.0636652)
(-1.20291 0 0.0708293)
(-1.21918 0 0.0762513)
(-1.233 0 0.0796124)
(-1.24582 0 0.080582)
(-1.25845 0 0.0790109)
(-1.27117 0 0.0752629)
(-1.28403 0 0.0702983)
(-1.29728 0 0.0652762)
(-1.31122 0 0.0609168)
(-1.32589 0 0.0571153)
(-1.34071 0 0.0531615)
(-1.35446 0 0.0483766)
(-1.36582 0 0.0427496)
(-1.37414 0 0.0370689)
(-1.37988 0 0.0323229)
(-1.38418 0 0.0289195)
(-1.38768 0 0.0266719)
(-1.38948 0 0.0255264)
(-0.184753 0 -0.339391)
(-0.406531 0 -0.163937)
(-0.672869 0 -0.0260779)
(-0.860373 0 0.0311774)
(-1.00419 0 0.0546693)
(-1.11176 0 0.0628304)
(-1.19586 0 0.0663182)
(-1.2621 0 0.068624)
(-1.31445 0 0.0711001)
(-1.35603 0 0.0742195)
(-1.38922 0 0.0777974)
(-1.4156 0 0.0813459)
(-1.43624 0 0.0844192)
(-1.45244 0 0.0869163)
(-1.46594 0 0.0886454)
(-1.47833 0 0.0889628)
(-1.49038 0 0.0871457)
(-1.50211 0 0.0831659)
(-1.51343 0 0.0779876)
(-1.52469 0 0.0729769)
(-1.53667 0 0.0688968)
(-1.54985 0 0.0653664)
(-1.56383 0 0.0612165)
(-1.57716 0 0.0554422)
(-1.58806 0 0.0481267)
(-1.59555 0 0.0405997)
(-1.60013 0 0.0344885)
(-1.60326 0 0.0304838)
(-1.60577 0 0.0282499)
(-1.60704 0 0.0273399)
(-0.29939 0 -0.000219318)
(-0.585548 0 0.170144)
(-0.857931 0 0.190993)
(-1.05522 0 0.184059)
(-1.20462 0 0.166247)
(-1.31774 0 0.147019)
(-1.40413 0 0.130824)
(-1.47077 0 0.11824)
(-1.52247 0 0.109047)
(-1.56294 0 0.103374)
(-1.59513 0 0.100545)
(-1.62079 0 0.0990451)
(-1.64069 0 0.0978909)
(-1.65594 0 0.0972582)
(-1.6685 0 0.0973114)
(-1.6803 0 0.0970694)
(-1.69205 0 0.0949906)
(-1.70323 0 0.0905049)
(-1.71329 0 0.0847157)
(-1.72268 0 0.0794991)
(-1.73278 0 0.0758419)
(-1.74475 0 0.0729898)
(-1.75839 0 0.069052)
(-1.77186 0 0.0624515)
(-1.78266 0 0.0532833)
(-1.78933 0 0.0435932)
(-1.79252 0 0.0359611)
(-1.79424 0 0.0314706)
(-1.79575 0 0.0293931)
(-1.79657 0 0.0286833)
(-0.382239 0 0.46312)
(-0.720119 0 0.498311)
(-1.0448 0 0.425922)
(-1.26057 0 0.350266)
(-1.41335 0 0.285934)
(-1.52292 0 0.232704)
(-1.60353 0 0.193396)
(-1.66491 0 0.165367)
(-1.71194 0 0.144645)
(-1.74816 0 0.130495)
(-1.77719 0 0.12192)
(-1.80092 0 0.115918)
(-1.81922 0 0.110463)
(-1.83251 0 0.106415)
(-1.84322 0 0.104921)
(-1.85408 0 0.104625)
(-1.86576 0 0.10261)
(-1.87679 0 0.0974116)
(-1.8857 0 0.0904811)
(-1.89298 0 0.0847423)
(-1.90096 0 0.0817285)
(-1.91182 0 0.0801488)
(-1.92562 0 0.0769793)
(-1.9399 0 0.0697223)
(-1.95106 0 0.0583754)
(-1.95684 0 0.0459643)
(-1.95817 0 0.0365241)
(-1.95807 0 0.0317381)
(-1.95849 0 0.0300997)
(-1.95894 0 0.0295982)
(-0.507834 0 0.987832)
(-0.940202 0 0.907546)
(-1.30431 0 0.690584)
(-1.50636 0 0.515289)
(-1.63985 0 0.397709)
(-1.73151 0 0.306649)
(-1.79538 0 0.246469)
(-1.8448 0 0.207901)
(-1.88335 0 0.177361)
(-1.91222 0 0.154415)
(-1.93593 0 0.140725)
(-1.95695 0 0.131237)
(-1.97319 0 0.121581)
(-1.98336 0 0.11382)
(-1.99078 0 0.111238)
(-2.00007 0 0.112079)
(-2.01206 0 0.110897)
(-2.02355 0 0.104663)
(-2.03134 0 0.0955777)
(-2.03589 0 0.0886227)
(-2.04108 0 0.086475)
(-2.05071 0 0.0870047)
(-2.06524 0 0.0853724)
(-2.08123 0 0.0776589)
(-2.09334 0 0.063597)
(-2.09808 0 0.0475502)
(-2.09676 0 0.0358014)
(-2.09415 0 0.0310492)
(-2.09337 0 0.0304069)
(-2.09358 0 0.030194)
(-0.747606 0 2.03258)
(-1.28666 0 1.59346)
(-1.67736 0 0.989422)
(-1.81132 0 0.60063)
(-1.88737 0 0.46711)
(-1.9427 0 0.360059)
(-1.97398 0 0.290348)
(-2.00579 0 0.246335)
(-2.03595 0 0.2015)
(-2.05528 0 0.165572)
(-2.07047 0 0.150766)
(-2.08789 0 0.143761)
(-2.10209 0 0.132046)
(-2.10775 0 0.119535)
(-2.10969 0 0.115133)
(-2.11652 0 0.118349)
(-2.12974 0 0.118954)
(-2.14292 0 0.111137)
(-2.14964 0 0.0984028)
(-2.15017 0 0.0893765)
(-2.15114 0 0.0888267)
(-2.15908 0 0.0931616)
(-2.17501 0 0.094473)
(-2.19389 0 0.0867345)
(-2.20779 0 0.0692183)
(-2.21118 0 0.0481052)
(-2.20592 0 0.0331759)
(-2.19967 0 0.029012)
(-2.19758 0 0.0304296)
(-2.19781 0 0.0307646)
(9.9959 0 0.138448)
(9.98225 0 0.275242)
(9.95811 0 0.412531)
(9.92454 0 0.552282)
(9.88242 0 0.696173)
(9.83217 0 0.845757)
(9.77399 0 1.00254)
(9.70816 0 1.168)
(9.63493 0 1.34359)
(9.55459 0 1.53079)
(9.46741 0 1.73109)
(9.37364 0 1.94603)
(9.27357 0 2.17724)
(9.16743 0 2.42647)
(9.05549 0 2.69562)
(8.93795 0 2.98685)
(8.81501 0 3.30259)
(8.68681 0 3.64574)
(8.55341 0 4.01982)
(8.41481 0 4.4292)
(8.27094 0 4.87953)
(8.12166 0 5.37826)
(7.96692 0 5.93557)
(7.80696 0 6.56581)
(7.64296 0 7.29004)
(7.47986 0 8.14085)
(7.3308 0 9.17216)
(7.28561 0 10.4774)
(7.74119 0 12.2014)
(7.91798 0 14.9185)
(9.99638 0 0.143407)
(9.98434 0 0.285097)
(9.96305 0 0.427259)
(9.93352 0 0.571891)
(9.89657 0 0.720687)
(9.85263 0 0.875204)
(9.80198 0 1.03695)
(9.74493 0 1.2074)
(9.68185 0 1.38801)
(9.61311 0 1.58024)
(9.53909 0 1.78557)
(9.4602 0 2.00553)
(9.3769 0 2.24173)
(9.28965 0 2.49589)
(9.19898 0 2.76991)
(9.10546 0 3.06589)
(9.00975 0 3.38627)
(8.91259 0 3.7339)
(8.81489 0 4.11223)
(8.71784 0 4.52552)
(8.62302 0 4.97919)
(8.53281 0 5.48028)
(8.45091 0 6.03811)
(8.38355 0 6.66528)
(8.34189 0 7.37901)
(8.34793 0 8.20273)
(8.44044 0 9.16663)
(8.67518 0 10.3041)
(9.32071 0 11.56)
(9.80852 0 12.6515)
(9.99688 0 0.147844)
(9.98651 0 0.293908)
(9.96819 0 0.440408)
(9.94283 0 0.58936)
(9.91121 0 0.742459)
(9.87378 0 0.901256)
(9.83086 0 1.06725)
(9.78284 0 1.24189)
(9.73015 0 1.42663)
(9.67325 0 1.62288)
(9.61265 0 1.83208)
(9.54891 0 2.05573)
(9.48264 0 2.29538)
(9.41455 0 2.55269)
(9.34543 0 2.82945)
(9.2762 0 3.12767)
(9.20795 0 3.44963)
(9.14204 0 3.79796)
(9.08013 0 4.17577)
(9.02445 0 4.58685)
(8.978 0 5.03578)
(8.94506 0 5.52826)
(8.93192 0 6.07126)
(8.94808 0 6.67321)
(9.00801 0 7.34356)
(9.13385 0 8.09099)
(9.35657 0 8.91747)
(9.68571 0 9.81203)
(10.2513 0 10.7235)
(10.9388 0 11.4426)
(9.9974 0 0.151705)
(9.98874 0 0.301569)
(9.97347 0 0.451814)
(9.95239 0 0.604458)
(9.92623 0 0.761188)
(9.89545 0 0.923539)
(9.86042 0 1.09298)
(9.82159 0 1.27095)
(9.77944 0 1.45883)
(9.73454 0 1.658)
(9.6875 0 1.86985)
(9.63901 0 2.09578)
(9.58986 0 2.33726)
(9.54095 0 2.59582)
(9.49332 0 2.87313)
(9.44821 0 3.17098)
(9.40711 0 3.49138)
(9.37183 0 3.83659)
(9.34468 0 4.20921)
(9.32862 0 4.61219)
(9.32759 0 5.04896)
(9.34689 0 5.52336)
(9.39375 0 6.03952)
(9.47808 0 6.60144)
(9.61309 0 7.2119)
(9.81562 0 7.87061)
(10.1085 0 8.57053)
(10.5003 0 9.29708)
(11.0582 0 10.0401)
(11.8519 0 10.6866)
(9.99792 0 0.154944)
(9.99101 0 0.307987)
(9.97884 0 0.46134)
(9.96212 0 0.617008)
(9.94151 0 0.776656)
(9.91746 0 0.941791)
(9.89041 0 1.11385)
(9.86083 0 1.29421)
(9.82929 0 1.48422)
(9.79643 0 1.68517)
(9.76295 0 1.89838)
(9.72966 0 2.12513)
(9.6975 0 2.36678)
(9.66752 0 2.6247)
(9.641 0 2.90033)
(9.61941 0 3.19522)
(9.60452 0 3.51101)
(9.59853 0 3.8495)
(9.60412 0 4.21259)
(9.62467 0 4.60235)
(9.66452 0 5.02087)
(9.72917 0 5.47018)
(9.82573 0 5.9519)
(9.96314 0 6.46674)
(10.1525 0 7.01364)
(10.4068 0 7.58874)
(10.7435 0 8.18395)
(11.1742 0 8.78459)
(11.7221 0 9.37909)
(12.4761 0 9.89252)
(9.99845 0 0.157518)
(9.9933 0 0.313077)
(9.98427 0 0.46886)
(9.97194 0 0.626843)
(9.9569 0 0.788659)
(9.93962 0 0.955773)
(9.92055 0 1.12957)
(9.90023 0 1.31138)
(9.87926 0 1.50246)
(9.85834 0 1.70403)
(9.83827 0 1.91729)
(9.81995 0 2.14342)
(9.80442 0 2.38358)
(9.79287 0 2.63898)
(9.78673 0 2.9108)
(9.78763 0 3.20028)
(9.79755 0 3.50866)
(9.81886 0 3.83718)
(9.85441 0 4.18708)
(9.90771 0 4.55947)
(9.98303 0 4.95527)
(10.0856 0 5.37495)
(10.2218 0 5.81826)
(10.3991 0 6.28374)
(10.6264 0 6.76815)
(10.9134 0 7.26574)
(11.2713 0 7.76726)
(11.7082 0 8.25719)
(12.2249 0 8.7188)
(12.9018 0 9.11054)
(9.99898 0 0.159387)
(9.9956 0 0.316762)
(9.98971 0 0.474262)
(9.98177 0 0.633817)
(9.97229 0 0.797017)
(9.96174 0 0.965275)
(9.9506 0 1.13992)
(9.93943 0 1.32219)
(9.92888 0 1.51328)
(9.9197 0 1.71429)
(9.91274 0 1.92631)
(9.90896 0 2.15037)
(9.90948 0 2.38746)
(9.9156 0 2.63855)
(9.9288 0 2.90457)
(9.95082 0 3.18641)
(9.98371 0 3.48489)
(10.0299 0 3.80074)
(10.0921 0 4.13451)
(10.1738 0 4.4865)
(10.279 0 4.85663)
(10.4121 0 5.24419)
(10.5786 0 5.64761)
(10.7843 0 6.06409)
(11.0357 0 6.48914)
(11.3392 0 6.91607)
(11.701 0 7.33552)
(12.1253 0 7.73407)
(12.6058 0 8.09714)
(13.2122 0 8.40414)
(9.99951 0 0.160517)
(9.99789 0 0.318975)
(9.9951 0 0.477446)
(9.99151 0 0.637803)
(9.98753 0 0.801579)
(9.98362 0 0.970124)
(9.98028 0 1.14469)
(9.97808 0 1.32645)
(9.97769 0 1.51647)
(9.9799 0 1.71577)
(9.98559 0 1.92529)
(9.99577 0 2.14589)
(10.0116 0 2.37839)
(10.0344 0 2.62351)
(10.0656 0 2.88193)
(10.1071 0 3.15419)
(10.1608 0 3.4407)
(10.229 0 3.74171)
(10.3145 0 4.0572)
(10.4202 0 4.3868)
(10.5495 0 4.72964)
(10.7063 0 5.08421)
(10.8947 0 5.44811)
(11.1191 0 5.81782)
(11.3838 0 6.18846)
(11.6925 0 6.55344)
(12.0481 0 6.90448)
(12.4522 0 7.23126)
(12.8971 0 7.52259)
(13.4409 0 7.76713)
(10 0 0.160882)
(10.0001 0 0.319662)
(10.0004 0 0.478334)
(10.0011 0 0.638701)
(10.0025 0 0.802227)
(10.0051 0 0.970191)
(10.0093 0 1.14376)
(10.0158 0 1.32402)
(10.0252 0 1.51193)
(10.0384 0 1.70839)
(10.0561 0 1.91418)
(10.0795 0 2.13003)
(10.1097 0 2.35653)
(10.1479 0 2.59421)
(10.1957 0 2.84345)
(10.2548 0 3.1045)
(10.327 0 3.37741)
(10.4144 0 3.662)
(10.5194 0 3.95779)
(10.6447 0 4.26389)
(10.793 0 4.57893)
(10.9673 0 4.90088)
(11.1707 0 5.22694)
(11.406 0 5.55341)
(11.676 0 5.87553)
(11.9825 0 6.18745)
(12.3262 0 6.48228)
(12.7071 0 6.75217)
(13.1173 0 6.98875)
(13.6058 0 7.18516)
(10.0005 0 0.160458)
(10.0023 0 0.31878)
(10.0056 0 0.476867)
(10.0104 0 0.636437)
(10.0171 0 0.798879)
(10.0259 0 0.965391)
(10.0375 0 1.13705)
(10.0523 0 1.31484)
(10.0711 0 1.49963)
(10.0946 0 1.69216)
(10.1237 0 1.8931)
(10.1594 0 2.10298)
(10.2028 0 2.32224)
(10.2552 0 2.55118)
(10.3179 0 2.78994)
(10.3926 0 3.03848)
(10.4808 0 3.29657)
(10.5845 0 3.56369)
(10.7056 0 3.83901)
(10.8464 0 4.1213)
(11.0089 0 4.40887)
(11.1955 0 4.69945)
(11.4081 0 4.99018)
(11.6485 0 5.27747)
(11.9181 0 5.55702)
(12.2175 0 5.82383)
(12.5462 0 6.07238)
(12.9029 0 6.29675)
(13.2806 0 6.49089)
(13.7211 0 6.6506)
(10.001 0 0.159232)
(10.0044 0 0.3163)
(10.0106 0 0.473004)
(10.0194 0 0.630965)
(10.0311 0 0.791488)
(10.0459 0 0.955685)
(10.0645 0 1.12454)
(10.0872 0 1.29893)
(10.1148 0 1.47961)
(10.148 0 1.66721)
(10.1877 0 1.86223)
(10.2348 0 2.06508)
(10.2902 0 2.27601)
(10.3553 0 2.49511)
(10.4312 0 2.72234)
(10.5194 0 2.95742)
(10.6212 0 3.19988)
(10.7383 0 3.44896)
(10.8723 0 3.70359)
(11.0249 0 3.96234)
(11.1976 0 4.2234)
(11.392 0 4.48445)
(11.6092 0 4.74274)
(11.8504 0 4.99501)
(12.1157 0 5.23752)
(12.405 0 5.46618)
(12.7172 0 5.67664)
(13.0503 0 5.86454)
(13.3982 0 6.02564)
(13.7975 0 6.15739)
(10.0015 0 0.157195)
(10.0065 0 0.312209)
(10.0154 0 0.466727)
(10.028 0 0.622269)
(10.0445 0 0.780048)
(10.065 0 0.941083)
(10.0901 0 1.10627)
(10.1203 0 1.27637)
(10.1561 0 1.45202)
(10.1983 0 1.63375)
(10.2476 0 1.82192)
(10.305 0 2.01679)
(10.3712 0 2.21846)
(10.4475 0 2.42686)
(10.5349 0 2.64176)
(10.6345 0 2.86273)
(10.7476 0 3.0891)
(10.8755 0 3.31997)
(11.0194 0 3.55413)
(11.1805 0 3.79008)
(11.3599 0 4.02598)
(11.5585 0 4.25964)
(11.7769 0 4.48852)
(12.0155 0 4.70977)
(12.274 0 4.92026)
(12.5516 0 5.11672)
(12.8469 0 5.29581)
(13.1577 0 5.45437)
(13.4789 0 5.58947)
(13.8427 0 5.69961)
(10.0019 0 0.154347)
(10.0084 0 0.306506)
(10.0199 0 0.458039)
(10.0362 0 0.61036)
(10.0571 0 0.764585)
(10.083 0 0.92164)
(10.1142 0 1.08232)
(10.1513 0 1.24729)
(10.1947 0 1.41707)
(10.245 0 1.59208)
(10.3031 0 1.77257)
(10.3696 0 1.95866)
(10.4454 0 2.15031)
(10.5314 0 2.34734)
(10.6284 0 2.54937)
(10.7376 0 2.75585)
(10.8597 0 2.966)
(10.9959 0 3.17882)
(11.1471 0 3.39307)
(11.3139 0 3.60725)
(11.4971 0 3.8196)
(11.6971 0 4.02812)
(11.9142 0 4.23056)
(12.148 0 4.42451)
(12.398 0 4.6074)
(12.6631 0 4.77668)
(12.9418 0 4.92983)
(13.232 0 5.06458)
(13.5292 0 5.17895)
(13.8625 0 5.27208)
(10.0024 0 0.150693)
(10.0102 0 0.299203)
(10.0241 0 0.446965)
(10.0438 0 0.59528)
(10.0689 0 0.745166)
(10.0997 0 0.897454)
(10.1366 0 1.05284)
(10.18 0 1.2119)
(10.2302 0 1.37505)
(10.288 0 1.54259)
(10.3538 0 1.71467)
(10.4284 0 1.89131)
(10.5124 0 2.07237)
(10.6066 0 2.25755)
(10.7117 0 2.44639)
(10.8285 0 2.63824)
(10.9577 0 2.83228)
(11.1001 0 3.02747)
(11.2561 0 3.2226)
(11.4264 0 3.41623)
(11.6111 0 3.60675)
(11.8103 0 3.79238)
(12.024 0 3.9712)
(12.2515 0 4.14118)
(12.4922 0 4.3003)
(12.7446 0 4.44656)
(13.0074 0 4.57813)
(13.2787 0 4.69337)
(13.5545 0 4.79098)
(13.8614 0 4.87051)
(10.0027 0 0.146246)
(10.0119 0 0.290326)
(10.0281 0 0.433548)
(10.0508 0 0.577095)
(10.0798 0 0.721887)
(10.1152 0 0.868663)
(10.1572 0 1.01803)
(10.2063 0 1.17045)
(10.2627 0 1.32627)
(10.327 0 1.48569)
(10.3996 0 1.64877)
(10.4811 0 1.81544)
(10.5721 0 1.98548)
(10.6731 0 2.15851)
(10.7847 0 2.33401)
(10.9075 0 2.5113)
(11.042 0 2.68954)
(11.1886 0 2.86771)
(11.3476 0 3.04466)
(11.5193 0 3.21907)
(11.7036 0 3.38949)
(11.9005 0 3.5544)
(12.1094 0 3.71216)
(12.3297 0 3.86114)
(12.5605 0 3.99974)
(12.8006 0 4.12645)
(13.0485 0 4.23992)
(13.3024 0 4.33902)
(13.5592 0 4.42289)
(13.843 0 4.49136)
(10.0031 0 0.141025)
(10.0134 0 0.279915)
(10.0317 0 0.417849)
(10.0573 0 0.555896)
(10.0898 0 0.694876)
(10.1293 0 0.835438)
(10.1759 0 0.978098)
(10.23 0 1.12324)
(10.2919 0 1.27112)
(10.3619 0 1.42187)
(10.4404 0 1.57546)
(10.5278 0 1.73176)
(10.6245 0 1.89048)
(10.731 0 2.05122)
(10.8477 0 2.21341)
(10.975 0 2.37636)
(11.1131 0 2.53926)
(11.2624 0 2.70114)
(11.4228 0 2.86094)
(11.5943 0 3.01747)
(11.7769 0 3.16949)
(11.9701 0 3.31568)
(12.1734 0 3.45471)
(12.386 0 3.58527)
(12.6069 0 3.70611)
(12.835 0 3.81611)
(13.0689 0 3.91429)
(13.3071 0 3.99988)
(13.547 0 4.07234)
(13.8107 0 4.13166)
(10.0034 0 0.135052)
(10.0148 0 0.268017)
(10.035 0 0.399945)
(10.0632 0 0.531792)
(10.0988 0 0.664282)
(10.142 0 0.79798)