/*--------------------------------*- C++ -*----------------------------------*\
  =========                 |
  \\      /  F ield         | OpenFOAM: The Open Source CFD Toolbox
   \\    /   O peration     | Website:  https://openfoam.org
    \\  /    A nd           | Version:  dev
     \\/     M anipulation  |
\*---------------------------------------------------------------------------*/
FoamFile
{
    version     2.0;
    format      ascii;
    class       volScalarField;
    location    "0.1";
    object      p;
}
// * * * * * * * * * * * * * * * * * * * * * * * * * * * * * * * * * * * * * //

dimensions      [0 2 -2 0 0 0 0];

internalField   nonuniform List<scalar> 
2790
(
73.1474
73.0405
73.2751
73.7968
74.5122
75.3891
76.4241
77.6157
78.9597
80.4517
82.0882
83.8664
85.7831
87.8339
90.0124
92.309
94.7107
97.1995
99.7519
102.338
104.923
107.463
109.911
112.216
114.323
116.182
117.746
118.977
119.85
120.381
72.9489
72.9526
73.2126
73.7321
74.4447
75.3198
76.352
77.5394
78.8782
80.364
81.9935
83.7639
85.672
87.7138
89.8831
92.1709
94.5645
97.0466
99.5945
102.179
104.766
107.313
109.772
112.093
114.22
116.101
117.689
118.942
119.833
120.391
72.7587
72.8324
73.1118
73.6218
74.3228
75.1873
76.2076
77.3809
78.7034
80.1709
81.7799
83.5276
85.411
87.426
89.5669
91.8251
94.1886
96.6411
99.1611
101.721
104.288
106.821
109.275
111.599
113.738
115.641
117.256
118.542
119.463
120.062
72.5464
72.6512
72.9438
73.4463
74.1344
74.985
75.9887
77.142
78.4408
79.881
81.4591
83.1722
85.0173
86.9906
89.0865
91.2971
93.6112
96.0137
98.4846
100.998
103.524
106.023
108.452
110.763
112.903
114.817
116.454
117.769
118.717
119.353
72.3023
72.4214
72.7229
73.219
73.892
74.7235
75.7041
76.8296
78.0958
79.4987
81.0346
82.7005
84.4934
86.4095
88.4436
90.5882
92.8331
95.1644
97.5637
100.008
102.468
104.911
107.294
109.573
111.696
113.61
115.262
116.603
117.575
118.25
72.0221
72.1471
72.4516
72.9387
73.5933
74.4006
75.3522
76.4431
77.6689
79.0253
80.5085
82.1154
83.8427
85.6867
87.6424
89.7025
91.8578
94.0954
96.3989
98.7475
101.116
103.472
105.781
108
110.083
111.977
113.63
114.99
115.985
116.705
71.704
71.8303
72.1324
72.6073
73.2404
74.0194
74.9364
75.9862
77.1639
78.465
79.8854
81.4218
83.0705
84.8278
86.6883
88.6453
90.6899
92.8103
94.9916
97.2153
99.4588
101.695
103.892
106.014
108.02
109.862
111.49
112.854
113.868
114.639
71.3476
71.4722
71.7677
72.2273
72.8357
73.5821
74.4594
75.4619
76.5843
77.8218
79.17
80.6249
82.1826
83.8388
85.588
87.4233
89.3359
91.3145
93.3453
95.4114
97.4929
99.5663
101.605
103.579
105.454
107.193
108.752
110.088
111.105
111.935
70.9534
71.0744
71.36
71.8009
72.3815
73.0916
73.9243
74.8738
75.9344
77.1006
78.3676
79.7309
81.1859
82.7276
84.3498
86.0451
87.8042
89.6158
91.466
93.3389
95.2157
97.0758
98.8964
100.654
102.323
103.878
105.292
106.54
107.523
108.416
70.5225
70.6386
70.9115
71.3309
71.8807
72.5508
73.3346
74.226
75.2187
76.3067
77.4845
78.7469
80.0884
81.503
82.9836
84.5214
86.1062
87.7255
89.3643
91.0058
92.6307
94.2185
95.7478
97.1988
98.5547
99.805
100.944
101.986
102.854
103.802
70.0564
70.1664
70.4246
70.82
71.3361
71.9631
72.6942
73.5229
74.4424
75.446
76.5276
77.6808
78.8992
80.1754
81.5009
82.8653
84.2562
85.6588
87.0558
88.427
89.7498
90.9996
92.1517
93.1836
94.0806
94.8431
95.4936
96.1058
96.6716
97.6253
69.5569
69.66
69.9019
70.271
70.751
71.332
72.0071
72.7692
73.6109
74.5249
75.5041
76.5412
77.6282
78.7564
79.9151
81.0919
82.2714
83.4354
84.5621
85.6258
86.5963
87.4397
88.1194
88.5988
88.849
88.8629
88.6762
88.4351
88.2742
89.0397
69.0261
69.1217
69.3458
69.6868
70.1287
70.6613
71.2775
71.9698
72.73
73.5502
74.4221
75.3373
76.2863
77.2586
78.2412
79.2187
80.1725
81.0794
81.9116
82.635
83.2078
83.5801
83.692
83.4749
82.8561
81.7746
80.2161
78.3407
76.4653
76.3492
68.4662
68.5539
68.759
69.0705
69.4725
69.9549
70.5101
71.1299
71.8058
72.5288
73.2898
74.0788
74.8851
75.6957
76.4953
77.2654
77.9829
78.6193
79.1392
79.4978
79.6382
79.4874
78.9508
77.9056
76.1927
73.6144
69.9465
65.0862
59.1907
55.5725
67.8797
67.959
68.1445
68.4252
68.786
69.2167
69.7091
70.2548
70.8443
71.468
72.1155
72.7757
73.4361
74.0816
74.6944
75.2523
75.7279
76.0868
76.2851
76.2663
75.9561
75.2545
74.024
72.0693
69.1032
64.6885
58.1259
48.3305
33.3504
14.9272
-103.66
-103.634
-103.352
-102.655
-101.318
-99.0774
-95.7028
-91.0521
-85.115
-78.0394
-70.1362
-61.818
-53.429
-45.1036
-37.1701
-30.0655
-23.9132
-18.7284
-14.4605
-11.0163
-8.28178
-6.1387
-4.47534
-3.19243
-2.20557
-1.44546
-0.856731
-0.396329
-0.0320826
0.259034
-104.144
-104.166
-103.956
-103.346
-102.093
-99.9165
-96.5618
-91.882
-85.8798
-78.719
-70.7203
-62.3084
-53.8384
-45.4348
-37.4316
-30.2781
-24.0876
-18.8724
-14.58
-11.1157
-8.36445
-6.20735
-4.53212
-3.23909
-2.24359
-1.47611
-0.881079
-0.415098
-0.0450162
0.260189
-105.264
-105.379
-105.301
-104.847
-103.744
-101.673
-98.3383
-93.591
-87.444
-80.08
-71.8513
-63.2151
-54.5574
-45.9751
-37.807
-30.5429
-24.2766
-19.0101
-14.6838
-11.1971
-8.43063
-6.26259
-4.57884
-3.27864
-2.27678
-1.50347
-0.903018
-0.431814
-0.0561511
0.258775
-107.066
-107.334
-107.475
-107.282
-106.431
-104.538
-101.251
-96.4052
-90.0154
-82.2976
-73.6691
-64.6438
-55.6499
-46.7672
-38.3404
-30.9036
-24.5229
-19.1829
-14.8108
-11.2959
-8.5117
-6.33142
-4.63817
-3.32969
-2.32012
-1.53945
-0.931939
-0.453937
-0.0715584
0.25234
-109.628
-110.135
-110.615
-110.836
-110.389
-108.783
-105.587
-100.603
-93.8378
-85.5683
-76.3236
-66.7059
-57.1806
-47.8435
-39.0571
-31.3762
-24.8352
-19.3941
-14.9607
-11.4094
-8.60313
-6.40849
-4.70453
-3.38688
-2.36873
-1.57978
-0.964302
-0.478678
-0.0890973
0.243234
-113.081
-113.947
-114.937
-115.784
-115.95
-114.784
-111.728
-106.531
-99.1856
-90.0932
-79.9541
-69.4956
-59.1967
-49.2182
-39.9727
-31.9735
-25.224
-19.6525
-15.1409
-11.5438
-8.71039
-6.49839
-4.78171
-3.45329
-2.42512
-1.62654
-1.00182
-0.507478
-0.109925
0.230863
-117.616
-118.992
-120.711
-122.46
-123.5
-122.951
-120.068
-114.508
-106.274
-96.003
-84.6315
-73.0403
-61.7007
-50.8776
-41.0814
-32.6944
-25.6905
-19.961
-15.3549
-11.7025
-8.83616
-6.60307
-4.87097
-3.52962
-2.48958
-1.67976
-1.04441
-0.540232
-0.133903
0.215416
-123.442
-125.486
-128.189
-131.164
-133.383
-133.624
-130.87
-124.695
-115.151
-103.279
-90.3053
-77.2517
-64.6174
-52.7824
-42.352
-33.5202
-26.2254
-20.3161
-15.6026
-11.8869
-8.98235
-6.72431
-4.97373
-3.6169
-2.56284
-1.73994
-1.09245
-0.577231
-0.161254
0.196735
-130.663
-133.512
-137.457
-142.006
-145.721
-146.899
-144.122
-136.943
-125.598
-111.69
-96.7685
-81.9189
-67.7685
-54.8677
-43.727
-34.4124
-26.8067
-20.7066
-15.8791
-12.0956
-9.14904
-6.86265
-5.09054
-3.71552
-2.6451
-1.80719
-1.14599
-0.618514
-0.191997
0.174806
-139.065
-142.801
-148.222
-154.692
-160.215
-162.425
-159.371
-150.666
-137.058
-120.773
-103.606
-86.7412
-70.9679
-56.9934
-45.1136
-35.3122
-27.4002
-21.1139
-16.1751
-12.324
-9.33418
-7.01716
-5.22091
-3.82516
-2.73613
-1.8813
-1.20487
-0.66398
-0.226067
0.14968
-147.838
-152.489
-159.595
-168.318
-175.903
-179.077
-175.477
-164.832
-148.665
-129.868
-110.257
-91.2914
-73.9879
-58.9629
-46.3881
-36.1449
-27.9618
-21.513
-16.4766
-12.5645
-9.53328
-7.18514
-5.36307
-3.94459
-2.83501
-1.96161
-1.26862
-0.713303
-0.263242
0.121545
-155.376
-160.975
-169.945
-181.159
-190.806
-194.561
-190.484
-177.997
-159.437
-138.001
-115.993
-95.1053
-76.4592
-60.5469
-47.4114
-36.8271
-28.4422
-21.8746
-16.7658
-12.8059
-9.7393
-7.36182
-5.51372
-4.07143
-2.94005
-2.04692
-1.33641
-0.765924
-0.303143
0.0907149
-159.402
-166.098
-177.043
-190.678
-202.549
-207.031
-202.781
-188.54
-167.76
-143.922
-119.917
-97.6029
-78.0142
-61.5208
-48.0481
-37.2773
-28.7916
-22.1675
-17.0227
-13.0348
-9.94274
-7.54043
-5.66793
-4.20211
-3.04866
-2.13537
-1.40695
-0.820967
-0.345181
0.0576591
-157.888
-166.21
-179.89
-195.957
-209.479
-214.908
-210.09
-194.153
-171.6
-146.341
-121.283
-98.2997
-78.3501
-61.7003
-48.1863
-37.4261
-28.9651
-22.3613
-17.2258
-13.2358
-10.1324
-7.71275
-5.8197
-4.33228
-3.15769
-2.22473
-1.47865
-0.877305
-0.388552
0.0230469
-149.125
-160.766
-178.038
-195.954
-210.424
-215.787
-209.878
-193.166
-170.121
-144.668
-119.664
-96.9161
-77.2909
-60.9749
-47.7537
-37.2229
-28.9255
-22.4279
-17.3536
-13.3924
-10.2962
-7.87012
-5.96298
-4.45785
-3.26451
-2.31336
-1.55056
-0.934455
-0.433033
-0.0128848
67.2573
67.3279
67.4927
67.7413
68.0594
68.4364
68.864
69.333
69.8335
70.3548
70.8856
71.4136
71.9243
72.4007
72.8222
73.1633
73.392
73.468
73.3392
72.9374
72.1709
70.9135
68.9844
66.114
61.8766
55.5503
45.768
29.5603
-2.43902
-94.9575
66.5921
66.6536
66.7967
67.0117
67.2851
67.6064
67.9667
68.3565
68.765
69.1809
69.5918
69.984
70.3416
70.6455
70.8724
70.9938
70.9736
70.7662
70.3124
69.5342
68.3267
66.5438
63.9757
60.3074
55.0412
47.339
35.6826
17.3795
-10.0412
-50.576
65.8894
65.9414
66.062
66.2425
66.4699
66.7341
67.0256
67.3344
67.6494
67.9583
68.248
68.5034
68.7073
68.8388
68.8725
68.7772
68.5137
68.0323
67.2692
66.1408
64.5354
62.3006
59.2231
54.9972
49.1775
41.1222
29.9689
14.7279
-4.20954
-26.3075
65.1507
65.1929
65.2907
65.4358
65.6165
65.8226
66.0445
66.2717
66.4926
66.6944
66.863
66.9827
67.0347
66.997
66.8426
66.5385
66.0435
65.3061
64.2606
62.8228
60.8825
58.295
54.8676
50.3447
44.3937
36.6058
26.5348
13.6659
-2.38998
-22.2464
64.3779
64.4103
64.4848
64.5942
64.7277
64.8755
65.0277
65.1734
65.3008
65.3965
65.4461
65.4328
65.3373
65.1366
64.803
64.3025
63.5937
62.6251
61.3326
59.6358
57.4333
54.5971
50.9668
46.3437
40.4896
33.1288
23.9602
12.6213
-1.26027
-17.465
63.5734
63.5959
63.6471
63.7207
63.8071
63.8968
63.9799
64.0452
64.0807
64.0728
64.0066
63.8651
63.6287
63.2739
62.7731
62.0927
61.1921
60.0221
58.523
56.6217
54.2297
51.2402
47.526
42.9391
37.3126
30.4662
22.2217
12.4256
1.00221
-11.5939
62.7398
62.7525
62.7806
62.8187
62.8586
62.8911
62.9064
62.8932
62.8394
62.7315
62.5545
62.2914
61.9226
61.4251
60.7718
59.9307
58.8634
57.5248
55.8612
53.8093
51.2954
48.2345
44.531
40.0807
34.7759
28.5149
21.2187
12.8554
3.45083
-6.65103
61.8805
61.8834
61.8888
61.8921
61.8864
61.8632
61.8127
61.7238
61.5844
61.3813
61.0998
60.7231
60.2322
59.6051
58.8162
57.8355
56.6284
55.1546
53.3679
51.2158
48.6396
45.575
41.9543
37.7096
32.7786
27.1133
20.6913
13.5293
5.68403
-2.57591
60.9988
60.9923
60.9756
60.9451
60.8953
60.8184
60.7047
60.5436
60.3233
60.0309
59.6522
59.1712
58.57
57.8278
56.9212
55.8232
54.5032
52.9268
51.0558
48.8482
46.2596
43.2441
39.757
35.758
31.2167
26.1182
20.4708
14.3145
7.72092
0.903222
60.0989
60.0833
60.0452
59.9822
59.8902
59.7621
59.5887
59.3596
59.0637
58.6887
58.2212
57.6463
56.9472
56.1053
55.0995
53.9063
52.4996
50.851
48.9301
46.7052
44.1442
41.2166
37.8956
34.1612
30.0038
25.4289
20.4615
15.1506
9.569
3.87928
59.185
59.1607
59.1023
59.0085
58.8765
58.7002
58.4708
58.1786
57.8131
57.3629
56.8157
56.1576
55.3739
54.4478
53.3611
52.0939
50.6249
48.9315
46.9906
44.7794
42.2765
39.4635
36.327
32.861
29.0695
24.9693
20.5926
15.9891
11.2248
6.42251
58.2618
58.2293
58.1518
58.029
57.8596
57.6384
57.3573
57.0074
56.5788
56.0613
55.4437
54.7138
53.8584
52.8633
51.7133
50.392
48.8827
47.1682
45.2321
43.059
40.6361
37.9544
35.0101
31.8064
28.3553
24.6792
20.8118
16.7993
12.6983
8.60218
57.3343
57.2942
57.1989
57.0491
56.8452
56.5828
56.2547
55.8526
55.3678
54.791
54.1126
53.3219
52.4077
51.3582
50.1611
48.8037
47.2733
45.5578
43.6462
41.5294
39.2013
36.6597
33.9074
30.9533
27.8136
24.5125
21.0824
17.5641
14.005
10.4758
56.4077
56.3606
56.2489
56.0745
55.8392
55.5395
55.169
54.7206
54.1864
53.5586
52.8288
51.988
51.0272
49.9369
48.7076
47.3298
45.7946
44.0943
42.2223
40.1747
37.9502
35.5514
32.9854
30.2643
27.4061
24.4344
21.3789
18.2746
15.1605
12.0903
55.4876
55.4341
55.3076
55.1109
54.8472
54.5142
54.1064
53.6175
53.041
52.37
51.5979
50.7173
49.7211
48.6022
47.3536
45.9689
44.4425
42.7699
40.9487
38.9784
36.8615
34.6038
32.2148
29.7082
27.1019
24.4183
21.6834
18.9267
16.18
13.4844
54.5795
54.5203
54.3805
54.164
53.8752
53.513
53.0728
52.5492
51.9369
51.2305
50.4245
49.5135
48.4922
47.3555
46.0988
44.7183
43.2112
41.576
39.813
37.9245
35.9156
33.7939
31.5704
29.259
26.8769
24.4442
21.9835
19.5195
17.0779
14.69
53.6894
53.6251
53.4737
53.2397
52.9291
52.5416
52.0737
51.521
50.8793
50.1445
49.3126
48.3797
47.3422
46.197
44.9416
43.5743
42.0946
40.5033
38.8029
36.9977
35.0944
33.1016
31.0308
28.8956
26.7118
24.4972
22.2712
20.0543
17.867
15.7338
52.8232
52.7545
52.5929
52.3439
52.0145
51.6056
51.1145
50.538
49.8728
49.1162
48.2655
47.3181
46.2722
45.1262
43.8795
42.5323
41.0858
39.5426
37.9067
36.184
34.3818
32.5095
30.5782
28.6008
26.5916
24.5662
22.5412
20.5332
18.5591
16.6376
51.987
51.9145
51.7442
51.4824
51.1372
50.7105
50.2006
49.605
48.9217
48.1491
47.2857
46.3303
45.2823
44.1419
42.9097
41.5875
40.1779
38.685
37.1137
35.4707
33.7639
32.0026
30.1976
28.3607
26.5048
24.6433
22.7903
20.9595
19.1644
17.42
51.1869
51.1112
50.9336
50.6611
50.3029
49.8617
49.3367
48.7265
48.0299
47.2463
46.3755
45.4173
44.3726
43.2425
42.029
40.7351
39.3646
37.9222
36.4139
34.8466
33.2284
31.5685
29.8769
28.1645
26.4425
24.7227
23.0168
21.3364
19.6923
18.0962
50.4292
50.3508
50.1672
49.8859
49.5171
49.0644
48.5278
47.9067
47.2009
46.4107
45.5367
44.5802
43.5426
42.4263
41.2344
39.9707
38.6396
37.2468
35.7985
34.302
32.7652
31.1969
29.6064
28.0034
26.398
24.8003
23.2203
21.6674
20.1506
18.6793
49.7201
49.6395
49.4509
49.1625
48.7853
48.3237
47.7784
47.1497
46.4381
45.6447
44.7712
43.8194
42.7919
41.6918
40.523
39.2898
37.9976
36.6522
35.2602
33.8288
32.3657
30.8792
29.378
27.8707
26.3663
24.8735
23.4007
21.9559
20.5465
19.1799
49.0662
48.9837
48.791
48.4968
48.1129
47.6446
47.0931
46.4594
45.7448
44.951
44.0805
43.1358
42.1201
41.0374
39.8921
38.689
37.4339
36.1329
34.7926
33.4201
32.0229
30.6088
29.1856
27.7613
26.3437
24.9404
23.5587
22.2052
20.8861
19.6073
48.4739
48.3898
48.1936
47.8945
47.5054
47.0321
46.4765
45.8399
45.1243
44.3322
43.4664
42.5301
41.5273
40.4622
39.3398
38.1653
36.9447
35.6842
34.3905
33.0705
31.7313
30.3802
29.0245
27.6713
26.3277
25.0002
23.6951
22.4182
21.1745
19.969
47.9501
47.8645
47.6649
47.3616
46.9682
46.4912
45.9329
45.295
44.58
43.7907
42.9306
42.0035
41.0135
39.9655
38.8645
37.7163
36.5269
35.3026
34.0499
32.7756
31.4865
30.1894
28.8911
27.598
26.3164
25.0523
23.811
22.5975
21.4161
20.2711
47.5022
47.4147
47.2113
46.9038
46.5069
46.0273
45.4675
44.8294
44.1158
43.3301
42.4761
41.5579
40.5801
39.5476
38.466
37.3411
36.1789
34.9858
33.7682
32.5327
31.2857
30.0338
28.7831
27.5396
26.3091
25.0968
23.9076
22.7457
21.6149
20.5188
47.1382
47.0479
46.8389
46.5262
46.1258
45.6442
45.0834
44.4456
43.734
42.9522
42.1041
41.1942
40.2273
39.2086
38.1436
37.0384
35.899
34.7318
33.543
32.3391
31.1262
29.9106
28.6981
27.4943
26.3044
25.1331
23.985
22.8637
21.7728
20.7151
46.8679
46.7726
46.5558
46.238
45.8351
45.3519
44.7902
44.1526
43.4427
42.6641
41.821
40.918
39.9599
38.9522
37.9005
36.8107
35.6892
34.542
33.3755
32.1958
31.009
29.821
28.6373
27.4633
26.3038
25.1633
24.0458
22.9549
21.8936
20.8645
46.7038
46.5863
46.3535
46.0315
45.6284
45.1451
44.5836
43.9473
43.2396
42.4643
41.6256
40.728
39.7766
38.7769
37.7346
36.6558
35.5467
34.4133
33.262
32.0989
30.9298
29.7605
28.5963
27.4424
26.3033
25.1835
24.0865
23.0158
21.9743
20.9643
46.7093
46.5244
46.2635
45.9361
45.5312
45.046
44.4834
43.8472
43.1407
42.3674
41.5315
40.6373
39.69
38.6951
37.6582
36.5854
35.483
34.3569
33.2136
32.0589
30.8988
29.7388
28.5844
27.4405
26.3115
25.2018
24.1149
23.0541
22.0222
21.0214
-244.516
-219.374
-172.77
-82.7485
-90.2365
-93.0226
-52.2775
-70.918
-84.9231
-46.1691
-62.59
-74.7358
-34.7603
-46.7851
-56.3388
-24.478
-33.6642
-41.2257
-16.7392
-23.8848
-29.7705
-10.554
-16.1398
-20.7406
-5.48309
-9.92147
-13.5913
-1.31725
-4.90669
-7.89051
2.13135
-0.816476
-3.28304
5.01101
2.55543
0.485255
7.43247
5.35959
3.59797
9.4807
7.70915
6.1912
11.2218
9.69029
8.36717
12.7079
11.3694
10.2037
13.98
12.7982
11.761
15.0712
14.0175
13.0861
16.0082
15.06
14.216
16.8126
15.9516
15.1804
17.5023
16.7136
16.0032
18.0918
17.3632
16.7036
18.593
17.9143
17.2971
19.0158
18.3783
17.7963
19.3679
18.7642
18.2111
19.656
19.0795
18.5498
19.8838
19.3284
18.8171
20.0568
19.5171
19.0194
20.172
19.643
19.1545
20.2381
19.7151
19.2312
-129.948
-151.781
-173.747
-191.739
-205.536
-210.252
-202.933
-185.821
-163.239
-138.76
-114.942
-93.3718
-74.7827
-59.3044
-46.7163
-36.6373
-28.6455
-22.3435
-17.3866
-13.4893
-10.4223
-8.00376
-6.0915
-4.57444
-3.36615
-2.39932
-1.62149
-0.991724
-0.478267
-0.0499753
-107.354
-140.843
-165.751
-183.455
-194.916
-196.82
-187.927
-171.376
-150.649
-128.544
-107.125
-87.6845
-70.8275
-56.6711
-45.0426
-35.6314
-28.0869
-22.0734
-17.2949
-13.5022
-10.4915
-8.09891
-6.19406
-4.67372
-3.45647
-2.47817
-1.68827
-1.04692
-0.522856
-0.0873601
-104.156
-131.009
-151.682
-165.879
-173.067
-172.308
-164.069
-150.34
-133.281
-114.935
-96.9329
-80.3474
-65.7292
-53.2437
-42.8142
-34.2355
-27.2526
-21.6078
-17.0644
-13.4165
-10.491
-8.14501
-6.26237
-4.74938
-3.53083
-2.54658
-1.74859
-1.09854
-0.565885
-0.124468
-89.7181
-108.561
-125.22
-137.122
-142.718
-142.418
-136.772
-126.876
-114.102
-99.9351
-85.6495
-72.1431
-59.9394
-49.2673
-40.1535
-32.5028
-26.1592
-20.945
-16.6855
-13.2204
-10.4091
-8.13168
-6.28778
-4.79447
-3.58379
-2.60041
-1.79938
-1.14435
-0.605867
-0.160366
-68.2877
-82.4512
-96.4506
-107.3
-113.148
-114.159
-111.04
-104.561
-95.6249
-85.2538
-74.3928
-63.7737
-53.8816
-44.9862
-37.1943
-30.5016
-24.8369
-20.0949
-16.1576
-12.9083
-10.2385
-8.05155
-6.26362
-4.80336
-3.61081
-2.63611
-1.83799
-1.18249
-0.641567
-0.194343
-50.4529
-61.2521
-72.5993
-81.9939
-87.7912
-89.8989
-88.7791
-84.9861
-79.1119
-71.8343
-63.8372
-55.7035
-47.8637
-40.5973
-34.0574
-28.3021
-23.3242
-19.0757
-15.4871
-12.4801
-9.97584
-7.89997
-6.18501
-4.77149
-3.60794
-2.65045
-1.86188
-1.21105
-0.671703
-0.225647
-36.8355
-45.0846
-54.0489
-61.9082
-67.3601
-70.1499
-70.4339
-68.5583
-64.9266
-59.9986
-54.2614
-48.1639
-42.0682
-36.2367
-30.8392
-25.9691
-21.6616
-17.9112
-14.6864
-11.9409
-9.62182
-7.67519
-6.04909
-4.69569
-3.57214
-2.64074
-1.86884
-1.22835
-0.695109
-0.253601
-26.2708
-32.7426
-39.8905
-46.4365
-51.3803
-54.4189
-55.5497
-54.9571
-52.9096
-49.717
-45.7187
-41.2487
-36.5989
-31.9999
-27.618
-23.5617
-19.891
-16.629
-13.7723
-11.2998
-9.18059
-7.37824
-5.85506
-4.57425
-3.50135
-2.60498
-1.85709
-1.23297
-0.71075
-0.277604
-18.0379
-23.273
-29.0734
-34.5368
-38.9098
-41.9202
-43.5092
-43.7478
-42.7981
-40.8642
-38.1792
-34.9863
-31.513
-27.9524
-24.4556
-21.1317
-18.0524
-15.258
-12.7643
-10.5694
-8.65926
-7.0126
-5.60409
-4.40694
-3.39463
-2.54189
-1.82536
-1.22376
-0.71778
-0.297152
-11.5441
-15.8779
-20.6649
-25.2569
-29.0895
-31.9422
-33.7434
-34.4986
-34.2954
-33.2634
-31.5603
-29.3591
-26.8323
-24.1351
-21.3978
-18.7222
-16.1822
-13.8266
-11.6834
-9.76385
-8.06715
-6.58385
-5.29911
-4.19496
-3.25209
-2.45103
-1.77292
-1.2
-0.715575
-0.31186
-6.33908
-9.99365
-14.0099
-17.9112
-21.2708
-23.9169
-25.7839
-26.8452
-27.141
-26.7495
-25.7742
-24.336
-22.562
-20.574
-18.4798
-16.3693
-14.3129
-12.362
-10.5507
-8.89901
-7.41529
-6.0993
-4.94466
-3.94086
-3.07495
-2.33273
-1.69965
-1.16133
-0.703762
-0.321473
-2.11093
-5.24141
-8.66253
-12.0153
-14.9727
-17.4059
-19.2558
-20.4857
-21.1081
-21.1665
-20.7265
-19.8707
-18.6908
-17.2797
-15.7241
-14.1004
-12.472
-10.8885
-9.38659
-7.99077
-6.71559
-5.56745
-4.54648
-3.6483
-2.86535
-2.18814
-1.60601
-1.10784
-0.682236
-0.325877
1.36216
-1.35576
-4.30979
-7.22416
-9.84499
-12.0743
-13.8638
-15.1755
-16.0064
-16.3775
-16.3285
-15.9143
-15.1998
-14.2542
-13.1454
-11.9364
-10.682
-9.42795
-8.21009
-7.0549
-5.98047
-4.99763
-4.11133
-3.32193
-2.62636
-2.01912
-1.49305
-1.04002
-0.651172
-0.325104
4.2422
1.85441
-0.727731
-3.2888
-5.62899
-7.67181
-9.38008
-10.7195
-11.6783
-12.2637
-12.4981
-12.4167
-12.0644
-11.4916
-10.7505
-9.89151
-8.96078
-7.99856
-7.03827
-6.10628
-5.22221
-4.39956
-3.64657
-2.96715
-2.36175
-1.82818
-1.36235
-0.958794
-0.611009
-0.319321
6.64946
4.52947
2.24726
-0.0262601
-2.13173
-4.00868
-5.62854
-6.96237
-7.99462
-8.72419
-9.16211
-9.32996
-9.25787
-8.98191
-8.54118
-7.97524
-7.32189
-6.61557
-5.8862
-5.15867
-4.45269
-3.78303
-3.15997
-2.58987
-2.07585
-1.61841
-1.21597
-0.865424
-0.56244
-0.308827
8.67468
6.77443
4.73689
2.69957
0.791236
-0.939831
-2.47167
-3.78049
-4.84972
-5.67367
-6.25614
-6.60937
-6.7529
-6.71185
-6.51497
-6.19263
-5.77513
-5.29115
-4.7667
-4.22439
-3.68303
-3.15759
-2.65937
-2.19632
-1.77345
-1.39329
-1.05634
-0.761515
-0.50639
-0.294038
10.3873
8.66915
6.83316
4.99141
3.24932
1.64575
0.197847
-1.07529
-2.1575
-3.04075
-3.7244
-4.21445
-4.52292
-4.6668
-4.66673
-4.54559
-4.32714
-4.03478
-3.69054
-3.31434
-2.92346
-2.53235
-2.15256
-1.79288
-1.45957
-1.15665
-0.886258
-0.648948
-0.443982
-0.275473
11.8413
10.2752
8.60658
6.92792
5.32656
3.83427
2.46419
1.23184
0.152198
-0.765781
-1.51885
-2.10895
-2.54284
-2.83154
-2.98948
-3.03355
-2.982
-2.85356
-2.66648
-2.43787
-2.18316
-1.91579
-1.64702
-1.38589
-1.13939
-0.912549
-0.708725
-0.529818
-0.376506
-0.253734
13.079
11.6407
10.112
8.57009
7.08829
5.6928
4.39379
3.20382
2.13648
1.2008
0.401426
-0.260981
-0.789585
-1.1911
-1.47527
-1.65425
-1.74181
-1.75262
-1.70153
-1.60294
-1.47029
-1.31573
-1.14983
-0.981523
-0.818063
-0.66512
-0.52691
-0.406378
-0.305375
-0.229487
14.134
12.8036
11.3924
9.96567
8.58572
7.2744
6.03944
4.89124
3.84195
2.90017
2.0712
1.35728
0.757692
0.268779
-0.115731
-0.404315
-0.607136
-0.735483
-0.801209
-0.816209
-0.791969
-0.739208
-0.667618
-0.585696
-0.500676
-0.418536
-0.344064
-0.280983
-0.232092
-0.203444
15.033
13.794
12.4818
11.1524
9.85922
8.62088
7.44319
6.3349
5.30662
4.36639
3.51973
2.76981
2.1175
1.56127
1.09742
0.720257
0.422478
0.195568
0.0302305
-0.0832001
-0.154367
-0.192564
-0.206479
-0.204005
-0.192132
-0.176906
-0.163451
-0.15604
-0.158213
-0.176343
15.7976
14.6361
13.4073
12.1601
10.9408
9.76551
8.63875
7.56761
6.56136
5.62751
4.77153
3.99707
3.306
2.69828
2.17204
1.72368
1.34815
1.03914
0.78951
0.591513
0.437176
0.318559
0.228003
0.158312
0.102883
0.055771
0.0117042
-0.0339577
-0.0853148
-0.148936
16.4451
15.3491
14.1906
13.0126
11.8561
10.735
9.65285
8.61556
7.63111
6.70645
5.84688
5.05627
4.33708
3.69026
3.11526
2.61005
2.17127
1.79442
1.47405
1.20409
0.978014
0.789115
0.630726
0.496375
0.379923
0.275643
0.178248
0.0828803
-0.0149706
-0.121968
16.9895
15.9486
14.8489
13.7289
12.6254
11.5504
10.5069
9.49982
8.53598
7.62184
6.76243
5.96167
5.22237
4.54614
3.93333
3.38307
2.89329
2.46086
2.08177
1.75126
1.46406
1.21457
0.997019
0.805643
0.634793
0.479024
0.333129
0.19214
0.0512647
-0.0961741
17.4418
16.4466
15.3956
14.3237
13.2644
12.2282
11.2177
10.2369
9.29181
8.3884
7.53142
6.72473
5.9713
5.27318
4.63135
4.04577
3.51532
3.03795
2.61074
2.23004
1.8916
1.59077
1.32256
1.08188
0.86354
0.662412
0.473424
0.29158
0.111898
-0.072254
17.8108
16.8529
15.8416
14.8089
13.7855
12.7813
11.7982
10.8396
9.91096
9.01765
8.1642
7.35437
6.59121
5.87702
5.21322
4.60033
4.03798
3.52489
3.05901
2.63754
2.25708
1.91374
1.60323
1.32101
1.06234
0.822398
0.596267
0.378977
0.165432
-0.0509094
18.1023
17.1738
16.1937
15.1919
14.1972
13.2184
12.2573
11.3169
10.402
9.51758
8.66796
7.85679
7.08713
6.36143
5.68139
5.04795
4.46122
3.92055
3.4245
2.97096
2.55716
2.17982
1.83523
1.51931
1.22771
0.955862
0.699037
0.452313
0.210531
-0.0327429
18.3221
17.4156
16.4587
15.4798
14.5063
13.5466
12.6021
11.6755
10.7711
9.89369
9.04736
8.23567
7.46168
6.72792
6.03627
5.38794
4.78341
4.22241
3.70399
3.22649
2.78765
2.38465
2.01418
1.67255
1.35571
1.05932
0.778798
0.509302
0.245662
-0.018415
18.4696
17.5776
16.6363
15.6729
14.7139
13.7671
12.834
11.9171
11.0203
10.1481
9.30444
8.49277
7.7162
6.97729
6.27806
5.61989
5.00349
4.42887
3.89536
3.40166
2.94581
2.52531
2.13715
1.77788
1.44367
1.13037
0.833503
0.548324
0.269735
-0.00823
18.5509
17.6646
16.7307
15.7749
14.8229
13.8822
12.9542
12.0414
11.1476
10.2774
9.43457
8.62255
7.84436
7.10259
6.39928
5.73591
5.1133
4.53161
3.99034
3.48832
3.0238
2.59443
2.19734
1.82923
1.48636
1.16466
0.859749
0.56693
0.281243
-0.00267918
)
;

boundaryField
{
    inlet
    {
        type            zeroGradient;
    }
    outlet
    {
        type            fixedValue;
        value           uniform 0;
    }
    flap
    {
        type            zeroGradient;
    }
    upperWall
    {
        type            zeroGradient;
    }
    lowerWall
    {
        type            zeroGradient;
    }
    frontAndBack
    {
        type            empty;
    }
}


// ************************************************************************* //
