/*--------------------------------*- C++ -*----------------------------------*\
  =========                 |
  \\      /  F ield         | OpenFOAM: The Open Source CFD Toolbox
   \\    /   O peration     | Website:  https://openfoam.org
    \\  /    A nd           | Version:  dev
     \\/     M anipulation  |
\*---------------------------------------------------------------------------*/
FoamFile
{
    version     2.0;
    format      ascii;
    class       volScalarField;
    location    "6";
    object      p;
}
// * * * * * * * * * * * * * * * * * * * * * * * * * * * * * * * * * * * * * //

dimensions      [0 2 -2 0 0 0 0];

internalField   nonuniform List<scalar> 
2790
(
146.878
146.786
147.053
147.624
148.404
149.361
150.493
151.8
153.277
154.918
156.717
158.668
160.762
162.987
165.327
167.763
170.267
172.806
175.338
177.812
180.17
182.348
184.278
185.899
187.159
188.033
188.469
188.524
188.575
188.788
146.675
146.693
146.985
147.553
148.33
149.284
150.412
151.712
153.181
154.814
156.604
158.545
160.628
162.842
165.171
167.597
170.092
172.626
175.156
177.634
180.002
182.198
184.152
185.801
187.085
187.959
188.356
188.411
188.543
188.828
146.477
146.564
146.876
147.433
148.197
149.138
150.251
151.533
152.981
154.589
156.351
158.26
160.308
162.484
164.772
167.154
169.606
172.097
174.589
177.036
179.386
181.579
183.551
185.241
186.592
187.568
188.161
188.516
188.832
189.13
146.252
146.37
146.694
147.243
147.992
148.917
150.01
151.268
152.687
154.262
155.985
157.851
159.849
161.97
164.198
166.516
168.901
171.324
173.751
176.141
178.448
180.62
182.602
184.342
185.796
186.948
187.816
188.487
189.04
189.559
145.991
146.123
146.456
146.997
147.729
148.633
149.701
150.928
152.31
153.841
155.515
157.324
159.26
161.311
163.463
165.698
167.996
170.331
172.673
174.986
177.231
179.366
181.349
183.139
184.71
186.052
187.182
188.145
188.956
189.703
145.69
145.828
146.163
146.695
147.407
148.285
149.321
150.51
151.847
153.327
154.942
156.684
158.545
160.513
162.574
164.712
166.907
169.136
171.373
173.589
175.751
177.829
179.791
181.612
183.275
184.776
186.123
187.328
188.348
189.266
145.348
145.487
145.818
146.337
147.026
147.874
148.873
150.018
151.304
152.724
154.271
155.937
157.712
159.584
161.542
163.567
165.643
167.749
169.862
171.958
174.013
176.004
177.912
179.722
181.428
183.029
184.523
185.902
187.066
188.113
144.963
145.1
145.424
145.927
146.59
147.404
148.361
149.457
150.684
152.037
153.508
155.087
156.766
158.532
160.372
162.271
164.212
166.176
168.144
170.096
172.013
173.881
175.688
177.43
179.109
180.728
182.283
183.755
185.005
186.155
144.537
144.67
144.984
145.467
146.101
146.877
147.788
148.829
149.992
151.271
152.657
154.142
155.714
157.362
159.073
160.831
162.621
164.424
166.223
168.002
169.746
171.444
173.092
174.692
176.254
177.789
179.297
180.768
182.039
183.277
144.07
144.198
144.499
144.959
145.562
146.296
147.157
148.138
149.232
150.43
151.725
153.107
154.563
156.084
157.653
159.257
160.878
162.501
164.107
165.68
167.209
168.683
170.101
171.469
172.802
174.121
175.441
176.779
177.98
179.284
143.565
143.687
143.972
144.407
144.975
145.666
146.473
147.389
148.408
149.521
150.718
151.989
153.323
154.706
156.123
157.559
158.996
160.417
161.804
163.139
164.407
165.597
166.704
167.732
168.696
169.625
170.556
171.555
172.517
173.835
143.023
143.137
143.405
143.814
144.345
144.988
145.738
146.587
147.527
148.549
149.643
150.798
152.001
153.238
154.493
155.75
156.988
158.189
159.331
160.393
161.355
162.197
162.905
163.471
163.898
164.208
164.451
164.76
165.142
166.316
142.446
142.553
142.802
143.182
143.674
144.268
144.958
145.736
146.594
147.521
148.508
149.541
150.607
151.692
152.777
153.843
154.87
155.834
156.709
157.468
158.081
158.516
158.738
158.713
158.41
157.813
156.939
155.948
155.001
155.507
141.837
141.935
142.165
142.514
142.966
143.508
144.136
144.841
145.613
146.443
147.319
148.227
149.152
150.079
150.987
151.856
152.661
153.375
153.966
154.398
154.628
154.605
154.267
153.535
152.312
150.483
147.922
144.622
140.677
138.645
141.197
141.287
141.497
141.815
142.224
142.714
143.278
143.907
144.592
145.322
146.084
146.864
147.645
148.411
149.138
149.805
150.383
150.839
151.135
151.225
151.052
150.541
149.596
148.081
145.803
142.471
137.63
130.617
120.163
107.953
0.907059
0.887562
0.822795
0.734934
0.645395
0.564294
0.494492
0.435745
0.386707
0.345671
0.310891
0.280804
0.254138
0.229904
0.207365
0.18599
0.165375
0.145295
0.125696
0.10668
0.0884664
0.0713374
0.0556298
0.0417774
0.0299717
0.0202016
0.0123933
0.00647112
0.00244753
-0.000236482
0.862579
0.84093
0.780224
0.699478
0.617354
0.542662
0.478027
0.42336
0.377514
0.338939
0.306022
0.277325
0.251697
0.22825
0.206289
0.185267
0.164832
0.144793
0.125123
0.105954
0.0875521
0.0702967
0.0546301
0.0408608
0.0291582
0.0194918
0.011808
0.0059856
0.00223949
0.000693689
0.813223
0.787601
0.729471
0.655496
0.5815
0.514314
0.456012
0.406541
0.364881
0.329592
0.299171
0.272324
0.248055
0.225597
0.204334
0.183781
0.16361
0.143657
0.123938
0.104636
0.0860705
0.0686598
0.0528732
0.0391053
0.0275112
0.0179427
0.0101743
0.00455496
0.00136342
0.00080754
0.765517
0.735713
0.679333
0.611194
0.544842
0.484889
0.432815
0.38854
0.351129
0.319204
0.291339
0.266389
0.243531
0.222125
0.201632
0.181617
0.16178
0.141991
0.122312
0.102973
0.0843316
0.0668373
0.0510116
0.0373557
0.0259926
0.0166536
0.00904056
0.00351632
0.000433207
-0.000335024
0.732117
0.698118
0.643214
0.579243
0.518475
0.463638
0.415929
0.375318
0.340947
0.311441
0.285377
0.261759
0.23991
0.219272
0.199351
0.179743
0.160166
0.140517
0.120908
0.101597
0.0829605
0.0654576
0.0496462
0.0361505
0.024983
0.0156403
0.00788022
0.00258076
0.000208959
-0.000535099
0.724658
0.685305
0.631104
0.568402
0.509616
0.456362
0.409948
0.37046
0.337097
0.308395
0.282917
0.259716
0.238169
0.217762
0.198014
0.17852
0.158996
0.139361
0.119795
0.100554
0.0820037
0.0645694
0.0488358
0.0356276
0.0251054
0.0162872
0.00853359
0.0024522
-0.000771878
-0.000960731
0.75388
0.706496
0.649926
0.583593
0.521164
0.464729
0.415782
0.374395
0.339678
0.310036
0.28382
0.260006
0.237988
0.21721
0.197173
0.17747
0.157832
0.138216
0.118912
0.100053
0.081948
0.0647888
0.0489852
0.0352142
0.0240834
0.0153631
0.00819384
0.00243519
-0.000984696
-0.00104871
0.825667
0.767629
0.700415
0.623599
0.551105
0.48649
0.431181
0.384977
0.346872
0.315188
0.28751
0.2622
0.238995
0.217347
0.196684
0.176559
0.156699
0.136992
0.117451
0.0985524
0.0805565
0.0636831
0.0482579
0.0348039
0.0238516
0.0151591
0.00796572
0.00199092
-0.00177469
-0.00125525
0.939968
0.860962
0.773818
0.679487
0.592045
0.516321
0.452968
0.400226
0.355919
0.318987
0.288107
0.261633
0.237843
0.215792
0.194791
0.174395
0.154458
0.135018
0.1161
0.0977723
0.0800201
0.0629863
0.0471944
0.033483
0.0225343
0.0141371
0.00728612
0.00131368
-0.00254109
-0.00142913
1.07582
0.963725
0.848082
0.733146
0.629737
0.540007
0.466089
0.406938
0.359646
0.320721
0.288041
0.260142
0.235629
0.21327
0.192027
0.171343
0.151246
0.132035
0.113795
0.0962372
0.0788935
0.0616693
0.0452569
0.030991
0.0199886
0.0121103
0.00594358
0.000343268
-0.00326132
-0.00156809
1.19284
1.04797
0.902555
0.763134
0.64404
0.546855
0.468253
0.405609
0.356123
0.31619
0.282965
0.254779
0.230446
0.208534
0.187534
0.166699
0.146433
0.127613
0.110475
0.094184
0.0774738
0.0598166
0.0421994
0.0268383
0.0156942
0.00874807
0.00387182
-0.000820214
-0.00385268
-0.0016603
1.28288
1.08753
0.911832
0.755232
0.627046
0.526958
0.449052
0.388454
0.341431
0.303739
0.27194
0.244747
0.221757
0.201451
0.181429
0.160498
0.139765
0.121311
0.105819
0.0915997
0.0759706
0.0575954
0.0378964
0.0205646
0.00907307
0.00368052
0.00104236
-0.00204553
-0.00425447
-0.00169239
1.28408
1.02102
0.824573
0.670944
0.554666
0.468646
0.402789
0.351586
0.312982
0.282156
0.254316
0.229222
0.208789
0.191768
0.173891
0.152809
0.130858
0.112504
0.0994805
0.0886886
0.0749312
0.055448
0.0323215
0.0116147
-0.000623993
-0.00352129
-0.00246913
-0.003089
-0.00439864
-0.00165342
1.02702
0.703598
0.568808
0.482035
0.410576
0.364443
0.327794
0.294338
0.270411
0.252144
0.230779
0.207762
0.190803
0.179737
0.16609
0.144556
0.119602
0.100408
0.0910125
0.0859195
0.0753963
0.0542325
0.0255952
-0.000736491
-0.0144722
-0.0134462
-0.00643021
-0.00347579
-0.00417337
-0.00153541
0.326745
-0.0532694
0.0469058
0.174178
0.187768
0.222189
0.236927
0.220035
0.211381
0.214484
0.204085
0.181319
0.167573
0.166299
0.160306
0.137094
0.105128
0.0827738
0.0788524
0.0835694
0.0787925
0.0552028
0.0179466
-0.0175081
-0.0340924
-0.0270034
-0.010374
-0.00230719
-0.00337003
-0.00133589
140.518
140.599
140.788
141.072
141.437
141.872
142.37
142.922
143.517
144.143
144.788
145.436
146.07
146.669
147.212
147.671
148.014
148.206
148.2
147.939
147.353
146.344
144.779
142.465
139.103
134.197
126.828
115.08
92.9322
33.1917
139.791
139.862
140.028
140.278
140.597
140.975
141.404
141.875
142.377
142.897
143.421
143.933
144.415
144.845
145.197
145.444
145.55
145.474
145.163
144.553
143.559
142.069
139.923
136.89
132.612
126.504
117.535
103.971
84.4462
55.9815
139.022
139.083
139.226
139.44
139.711
140.03
140.388
140.776
141.183
141.594
141.995
142.37
142.698
142.957
143.119
143.154
143.025
142.685
142.079
141.136
139.765
137.845
135.212
131.635
126.789
120.219
111.333
99.4929
85.2458
68.5976
138.211
138.262
138.381
138.558
138.781
139.04
139.326
139.63
139.94
140.241
140.519
140.756
140.931
141.019
140.994
140.823
140.465
139.874
138.992
137.746
136.044
133.77
130.771
126.852
121.763
115.213
106.905
96.5036
83.9464
68.7927
137.361
137.402
137.496
137.636
137.81
138.008
138.222
138.441
138.654
138.846
139.001
139.101
139.125
139.048
138.841
138.471
137.899
137.075
135.943
134.432
132.457
129.912
126.666
122.563
117.424
111.048
103.234
93.7399
82.3965
69.4109
136.475
136.505
136.575
136.677
136.801
136.938
137.079
137.214
137.331
137.414
137.449
137.415
137.293
137.056
136.677
136.121
135.35
134.317
132.968
131.237
129.047
126.308
122.914
118.746
113.674
107.562
100.288
91.7524
81.9454
71.2793
135.554
135.573
135.619
135.683
135.757
135.834
135.903
135.955
135.977
135.955
135.872
135.71
135.448
135.06
134.519
133.793
132.844
131.628
130.095
128.188
125.84
122.978
119.519
115.375
110.46
104.695
98.0245
90.4378
81.978
72.9808
134.602
134.611
134.632
134.658
134.684
134.701
134.7
134.671
134.6
134.476
134.28
133.996
133.601
133.073
132.385
131.505
130.399
129.028
127.347
125.307
122.854
119.928
116.469
112.418
107.721
102.338
96.2558
89.4938
82.102
74.3528
133.622
133.621
133.618
133.608
133.586
133.544
133.475
133.366
133.208
132.985
132.683
132.283
131.767
131.11
130.289
129.274
128.035
126.537
124.741
122.607
120.092
117.152
113.744
109.83
105.381
100.382
94.8401
88.7883
82.2806
75.5447
132.619
132.608
132.581
132.536
132.467
132.369
132.234
132.05
131.807
131.492
131.09
130.584
129.955
129.183
128.244
127.114
125.764
124.165
122.286
120.093
117.554
114.638
111.316
107.566
103.376
98.7471
93.6961
88.2628
82.5002
76.5934
131.597
131.576
131.527
131.447
131.334
131.182
130.984
130.729
130.407
130.005
129.511
128.907
128.178
127.303
126.263
125.036
123.597
121.923
119.987
117.765
115.232
112.368
109.156
105.585
101.653
97.3713
92.7623
87.8654
82.7289
77.5011
130.561
130.531
130.46
130.347
130.192
129.989
129.731
129.409
129.013
128.533
127.954
127.263
126.444
125.481
124.356
123.049
121.542
119.814
117.845
115.618
113.116
110.324
107.236
103.848
100.166
96.2047
91.9891
87.5556
82.9462
78.2802
129.517
129.478
129.386
129.243
129.047
128.796
128.483
128.099
127.636
127.082
126.428
125.659
124.763
123.725
122.529
121.16
119.603
117.841
115.86
113.646
111.191
108.486
105.528
102.322
98.8757
95.2067
91.3393
87.3061
83.1428
78.9458
128.469
128.423
128.312
128.139
127.906
127.611
127.246
126.806
126.281
125.663
124.941
124.105
123.143
122.042
120.79
119.374
117.782
116.003
114.025
111.841
109.444
106.833
104.008
100.977
97.7503
94.3454
90.7852
87.098
83.3142
79.5116
127.425
127.371
127.242
127.043
126.776
126.439
126.028
125.536
124.957
124.281
123.501
122.607
121.589
120.437
119.142
117.693
116.08
114.297
112.335
110.191
107.862
105.348
102.654
99.7885
96.7636
93.5958
90.3059
86.9183
83.4585
79.9898
126.391
126.329
126.184
125.96
125.662
125.288
124.836
124.298
123.669
122.944
122.113
121.17
120.108
118.916
117.589
116.118
114.497
112.72
110.784
108.687
106.429
104.013
101.446
98.7352
95.8942
92.9384
89.886
86.7581
83.5759
80.3912
125.373
125.305
125.145
124.899
124.572
124.165
123.675
123.097
122.426
121.657
120.785
119.802
118.703
117.482
116.132
114.649
113.029
111.268
109.365
107.32
105.135
102.815
100.367
97.7992
95.1249
92.3577
89.5139
86.6112
83.6677
80.7258
124.378
124.305
124.131
123.865
123.513
123.077
122.554
121.941
121.234
120.429
119.521
118.506
117.379
116.136
114.773
113.287
111.675
109.936
108.07
106.079
103.967
101.739
99.4022
96.9661
94.4418
91.842
89.181
86.474
83.7361
81.0024
123.414
123.335
123.15
122.866
122.492
122.03
121.479
120.836
120.098
119.263
118.327
117.287
116.139
114.882
113.513
112.03
110.431
108.719
106.893
104.957
102.915
100.774
98.5407
96.2237
93.8337
91.3821
88.8812
86.3441
83.7837
81.2288
122.488
122.404
122.209
121.909
121.516
121.032
120.456
119.788
119.025
118.165
117.206
116.148
114.986
113.721
112.351
110.876
109.295
107.612
105.827
103.945
101.971
99.9109
97.7719
95.5625
93.2921
90.971
88.6101
86.2205
83.8132
81.4123
121.607
121.519
121.315
121.002
120.592
120.089
119.493
118.803
118.019
117.14
116.165
115.093
113.922
112.654
111.288
109.824
108.264
106.611
104.867
103.037
101.127
99.141
97.0877
94.9746
92.8102
90.6038
88.3648
86.1029
83.8277
81.5591
120.779
120.688
120.476
120.151
119.727
119.208
118.595
117.889
117.088
116.194
115.206
114.125
112.95
111.682
110.323
108.873
107.335
105.713
104.009
102.228
100.376
98.458
96.4817
94.4541
92.3831
90.2767
88.1436
85.992
83.8303
81.6752
120.012
119.919
119.699
119.365
118.929
118.397
117.77
117.05
116.236
115.331
114.334
113.247
112.071
110.807
109.456
108.022
106.507
104.914
103.248
101.512
99.7132
97.8566
95.9487
93.9963
92.0067
89.9872
87.9453
85.8885
83.824
81.7657
119.315
119.219
118.994
118.651
118.204
117.661
117.024
116.292
115.469
114.555
113.553
112.463
111.288
110.03
108.69
107.272
105.778
104.214
102.582
100.887
99.1362
97.3336
95.4856
93.5988
91.6795
89.7346
87.7707
85.7946
83.8126
81.8365
118.696
118.597
118.367
118.016
117.561
117.009
116.362
115.622
114.792
113.872
112.867
111.776
110.604
109.352
108.023
106.62
105.148
103.609
102.008
100.35
98.6409
96.8852
95.0889
93.258
91.3986
89.5168
87.6187
85.7103
83.7973
81.8897
118.164
118.063
117.826
117.468
117.006
116.447
115.794
115.048
114.212
113.289
112.281
111.192
110.023
108.778
107.46
106.072
104.618
103.102
101.528
99.9022
98.2285
96.5126
94.7598
92.9759
91.1664
89.3371
87.4935
85.6412
83.7854
81.9345
117.73
117.624
117.381
117.015
116.546
115.981
115.322
114.571
113.731
112.806
111.798
110.711
109.546
108.308
106.999
105.624
104.186
102.689
101.138
99.5385
97.8943
96.2108
94.4934
92.7473
90.9778
89.1904
87.3901
85.5821
83.7713
81.9644
117.404
117.293
117.04
116.668
116.194
115.624
114.961
114.207
113.364
112.438
111.43
110.344
109.183
107.951
106.65
105.286
103.861
102.38
100.848
99.2685
97.6475
95.9896
94.2997
92.5831
90.8448
89.0899
87.3233
85.5498
83.7741
82.0024
117.202
117.067
116.797
116.419
115.943
115.371
114.705
113.949
113.106
112.179
111.172
110.089
108.931
107.703
106.409
105.052
103.636
102.166
100.647
99.0819
97.4766
95.8358
94.1644
92.4674
90.7497
89.016
87.2713
85.52
83.7666
82.016
117.183
116.985
116.687
116.302
115.823
115.248
114.579
113.821
112.977
112.051
111.045
109.962
108.808
107.583
106.294
104.942
103.533
102.071
100.56
99.0047
97.4098
95.7801
94.1205
92.4358
90.7309
89.0105
87.2793
85.5416
83.8018
82.0642
-50.5675
-30.323
-11.144
35.6124
28.1763
16.1604
51.0894
39.0018
27.7924
52.5151
42.0916
34.0482
56.8553
48.5668
41.8091
61.2435
54.3342
48.4426
64.5177
58.6361
53.587
67.1148
62.0898
57.7807
69.3043
64.972
61.2631
71.1525
67.3738
64.1468
72.7066
69.3764
66.5396
74.016
71.0537
68.5354
75.1213
72.4637
70.2077
76.0548
73.6518
71.6141
76.8429
74.6547
72.8003
77.5076
75.5019
73.8027
78.0671
76.2174
74.6502
78.5366
76.8209
75.3666
78.9291
77.3288
75.9714
79.2557
77.7549
76.4807
79.5258
78.111
76.9082
79.7482
78.4073
77.2658
79.9295
78.652
77.5627
80.0777
78.8542
77.8091
80.1954
79.0171
78.0092
80.2943
79.1534
78.1756
80.3658
79.2548
78.3017
80.4385
79.3502
78.4143
80.4724
79.4005
78.4785
80.5415
79.4836
78.5682
-2.78442
-2.6739
-1.20237
-0.061962
-0.0304885
0.0626043
0.127604
0.107345
0.122413
0.18141
0.191256
0.15444
0.13418
0.147075
0.157586
0.132001
0.0866311
0.0572241
0.0621412
0.0840172
0.0892106
0.0614317
0.0102058
-0.0402532
-0.0623391
-0.0459906
-0.0135077
0.00219493
-0.00147424
-0.0010571
2.39425
-0.545409
1.03914
0.511305
-0.816268
-0.585256
0.037423
0.0844296
0.0991614
0.200532
0.185765
0.0910246
0.0564047
0.117388
0.178802
0.146742
0.0699858
0.0197979
0.034086
0.0850799
0.108258
0.0735176
0.000497371
-0.0734247
-0.104982
-0.0740223
-0.0143772
0.0136201
0.00280712
-0.000733976
13.532
5.15927
2.37126
-0.0689656
-0.407533
0.966203
1.15414
-0.108372
-0.494147
-0.146492
0.203471
0.100962
0.0414198
0.161109
0.244825
0.163331
0.0195815
-0.069914
-0.0304603
0.0901612
0.156277
0.107112
-0.000839945
-0.112062
-0.162429
-0.113295
-0.00995149
0.0387826
0.0126988
-0.000483654
23.2942
13.4159
7.54767
3.77663
2.03542
1.46618
0.292874
-0.383916
-0.0516268
1.12042
1.0477
-0.033502
-0.424716
-0.235151
0.208879
0.2548
0.0179284
-0.133385
-0.0535877
0.160658
0.24484
0.14794
-0.0176936
-0.187181
-0.270927
-0.195798
-7.14116e-05
0.0876895
0.034172
-0.000674551
32.4633
22.6965
15.3782
10.0878
6.45355
3.98256
2.12458
1.12077
0.841193
0.855428
0.354058
-0.232798
-0.330377
0.514082
1.05338
0.49409
-0.117511
-0.469151
-0.427742
0.0347128
0.334851
0.228702
-0.00850025
-0.245392
-0.363905
-0.220055
0.0398598
0.176871
0.0755555
-0.00207141
40.441
31.5126
23.6251
17.1945
12.2712
8.63007
5.96216
4.08397
2.81566
1.9175
1.15187
0.55692
0.315335
0.550158
0.552869
0.30212
-0.17384
-0.493624
-0.233592
0.593121
0.77528
0.296104
-0.0568566
-0.384671
-0.619324
-0.555773
0.00520423
0.304433
0.140805
-0.00708149
46.9514
39.1434
31.3662
24.4759
18.8529
14.3973
10.8793
8.13021
6.03814
4.46775
3.24766
2.28469
1.63276
1.29244
1.01302
0.668112
0.191008
-0.123796
-0.00922673
0.363829
0.495915
0.303358
-0.0291212
-0.409536
-0.666075
-0.39584
0.375322
0.574232
0.219295
-0.0200015
52.2536
45.5201
38.2607
31.4306
25.5494
20.6072
16.4709
13.0523
10.2854
8.07268
6.28453
4.83714
3.72704
2.92822
2.30322
1.70362
1.11147
0.694892
0.581671
0.665894
0.679061
0.463993
0.0929076
-0.281699
-0.481997
-0.280547
0.181831
0.412524
0.314974
-0.0610169
56.5788
50.7602
44.1743
37.7004
31.8836
26.7743
22.308
18.4495
15.1691
12.4108
10.098
8.17136
6.60107
5.34617
4.31289
3.40491
2.60875
1.99707
1.62577
1.42977
1.23054
0.899645
0.482237
0.105301
-0.0963248
-0.0130999
0.257845
0.406798
0.271451
-0.299909
60.1084
55.0393
49.1354
43.1501
37.597
32.5539
27.9918
23.9063
20.2989
17.1505
14.4238
12.08
10.0864
8.40444
6.97432
5.73749
4.67291
3.80124
3.13858
2.63753
2.18695
1.70309
1.20295
0.766689
0.483562
0.408184
0.468476
0.448776
0.183014
-0.5153
63.0071
58.5466
53.2655
47.7969
42.6012
37.7616
33.2654
29.124
25.3583
21.9736
18.9577
16.2902
13.9483
11.9045
10.122
8.56291
7.2049
6.04549
5.08098
4.27616
3.56372
2.88853
2.24918
1.68926
1.26195
0.990572
0.81664
0.592545
0.181186
-0.59103
65.408
61.4436
56.7049
51.7257
46.9115
42.3408
38.0069
33.9268
30.1301
26.6354
23.4461
20.5565
17.9556
15.6277
13.5511
11.7017
10.0608
8.61837
7.36308
6.2687
5.29288
4.39805
3.57502
2.84335
2.22969
1.73876
1.32377
0.883999
0.317018
-0.520721
67.4107
63.8548
59.5793
55.0402
50.5943
46.3121
42.1875
38.2376
34.4941
30.9816
27.7125
24.6909
21.9152
19.3793
17.072
14.9795
13.0886
11.3884
9.86706
8.5048
7.27392
6.14843
5.11681
4.18398
3.35906
2.63671
1.98018
1.32058
0.586563
-0.329852
69.0904
65.8744
61.9926
57.8401
53.7326
49.7325
45.8322
42.0464
38.4056
34.936
31.6544
28.5707
25.6896
23.0119
20.534
18.2494
16.1501
14.2279
12.4726
10.87
9.40162
8.04902
6.80078
5.65387
4.6073
3.65105
2.75654
1.87676
0.964549
-0.0543806
70.5051
67.5744
64.0278
60.2114
56.4074
52.6704
48.9913
45.3814
41.8682
38.4774
35.2274
32.1311
29.197
26.4304
23.8328
21.4029
19.1372
17.0305
15.0759
13.2633
11.5804
10.0139
8.55353
7.19268
5.92535
4.74002
3.61445
2.51643
1.41548
0.265676
71.7
69.0102
65.7497
62.2249
58.6896
55.1923
51.722
48.2866
44.9105
41.6174
38.4259
35.3497
32.3996
29.5835
26.9064
24.3705
21.9756
19.7197
17.5986
15.606
13.7334
11.9715
10.3115
8.74563
7.26607
5.86134
4.51393
3.20116
1.9028
0.5947
72.7106
70.2255
67.21
63.9378
60.6391
57.357
54.0791
50.8102
47.5713
44.3839
41.2655
38.23
35.289
32.4519
29.7256
27.1147
24.6217
22.2468
19.9885
17.8432
15.8055
13.8686
12.0254
10.2685
8.58953
6.97792
5.41939
3.897
2.39586
0.906984
73.5658
71.2548
68.4498
65.3966
62.3054
59.2149
56.1116
52.9978
49.8909
46.8103
43.772
40.7893
37.8737
35.0353
32.2822
29.6204
27.0542
24.5856
22.2151
19.9413
17.7609
15.6693
13.6608
11.7288
9.8654
8.06083
6.30294
4.57789
2.87282
1.18801
74.2888
72.1264
69.5024
66.6391
63.7293
60.8083
57.862
54.8901
51.9073
48.9305
45.9741
43.0504
40.1705
37.3444
34.5807
31.8863
29.2665
26.7249
24.2632
21.8817
19.5789
17.3516
15.1956
13.105
11.0727
9.08966
7.14496
5.22613
3.3204
1.43271
74.8992
72.8636
70.3952
67.6962
64.9448
62.1731
59.3666
56.5231
53.6548
50.7762
47.9001
45.0377
42.1992
39.3944
36.6317
33.9185
31.2607
28.6627
26.1274
23.6562
21.2488
18.9035
16.6168
14.3838
12.1981
10.0513
7.93295
5.83112
3.73211
1.6424
75.4129
73.4854
71.1508
68.5938
65.98
63.3391
60.6562
57.9277
55.1634
52.3759
49.5764
46.7747
43.9803
41.2021
38.4484
35.7266
33.0429
30.4021
27.8079
25.2624
22.7664
20.3188
17.9172
15.5575
13.2335
10.9376
8.65945
6.38705
4.1056
1.82126
75.8438
74.0084
71.7882
69.3536
66.8588
64.3318
61.7574
59.1307
56.4597
53.7553
51.027
48.2835
45.5334
42.7847
40.0453
37.3223
34.6218
31.9492
29.3082
26.7017
24.1308
21.5955
19.0937
16.622
14.1747
11.7442
9.3207
6.89157
4.44115
1.97423
76.203
74.4455
72.3231
69.9932
67.6008
65.172
62.6918
60.1545
57.5661
54.9361
52.2727
49.5836
46.876
44.1576
41.4354
38.7163
36.0061
33.3101
30.6325
27.9761
25.3428
22.7327
20.1445
17.5748
15.0185
12.4683
9.91402
7.34307
4.73899
2.10477
76.5016
74.8095
72.7697
70.5288
68.2235
65.8787
63.4795
61.0194
58.5031
55.9386
53.3332
50.6934
48.0256
45.3366
42.6329
39.9207
37.2059
34.4933
31.7872
29.0907
26.4057
23.7326
21.0705
18.4163
15.7651
13.1095
10.4397
7.74259
5.00132
2.21664
76.7456
75.1078
73.137
70.9707
68.7385
66.4644
64.1338
61.7393
59.2846
56.7768
54.2219
51.6257
48.9937
46.332
43.6465
40.943
38.2267
35.5027
32.7748
30.0462
27.319
24.5937
21.8694
19.1434
16.4108
13.6645
10.8943
8.08721
5.22609
2.30943
76.9468
75.3532
73.4391
71.334
69.162
66.9463
64.6723
62.3324
59.9293
57.469
54.957
52.3981
49.7973
47.1599
44.4912
41.7967
39.0812
36.3494
33.6052
30.8515
28.0904
25.3225
22.5471
19.7615
16.9609
14.138
11.2829
8.38229
5.41895
2.38828
77.1021
75.5434
73.6741
71.6176
69.4934
67.3241
65.0954
62.7991
60.4374
58.0156
55.5383
53.01
50.4349
47.8179
45.1638
42.4776
39.7639
37.027
34.2706
31.4977
28.7102
25.9087
23.0926
20.2591
17.4035
14.5185
11.5942
8.61701
5.56997
2.44619
77.2337
75.7007
73.8654
71.8458
69.7578
67.6235
65.4291
63.1661
60.8359
58.4434
55.9928
53.488
50.9329
48.3319
45.6894
43.01
40.2982
37.5579
34.7928
32.0057
29.1984
26.3716
23.5244
20.6543
17.7565
14.8236
11.8454
8.80848
5.69546
2.49571
77.3147
75.7978
73.9849
71.9903
69.9267
67.8159
65.6444
63.4035
61.0946
58.7218
56.2892
53.8003
51.2587
48.6685
46.034
43.3595
40.6491
37.9069
35.1361
32.3396
29.5192
26.6754
23.8075
20.9127
17.9862
15.0205
12.0054
8.92695
5.76777
2.51561
77.4036
75.8878
74.0871
72.1076
70.0576
67.9594
65.8
63.5709
61.273
58.9103
56.4867
54.0056
51.4704
48.8852
46.254
43.581
40.8704
38.126
35.3511
32.5485
29.7199
26.8661
23.986
21.0771
18.1343
15.1503
12.1143
9.01152
5.82207
2.52207
)
;

boundaryField
{
    inlet
    {
        type            zeroGradient;
    }
    outlet
    {
        type            fixedValue;
        value           uniform 0;
    }
    flap
    {
        type            zeroGradient;
    }
    upperWall
    {
        type            zeroGradient;
    }
    lowerWall
    {
        type            zeroGradient;
    }
    frontAndBack
    {
        type            empty;
    }
}


// ************************************************************************* //
