/*--------------------------------*- C++ -*----------------------------------*\
  =========                 |
  \\      /  F ield         | OpenFOAM: The Open Source CFD Toolbox
   \\    /   O peration     | Website:  https://openfoam.org
    \\  /    A nd           | Version:  dev
     \\/     M anipulation  |
\*---------------------------------------------------------------------------*/
FoamFile
{
    version     2.0;
    format      ascii;
    class       surfaceVectorField;
    location    "6";
    object      Uf;
}
// * * * * * * * * * * * * * * * * * * * * * * * * * * * * * * * * * * * * * //

dimensions      [0 1 -1 0 0 0 0];

internalField   nonuniform List<vector> 
5457
(
(9.92088 0 0.0251095)
(9.97125 0 0.0387456)
(9.82402 0 0.0328266)
(9.92859 0 0.0485848)
(9.70961 0 0.0393118)
(9.85548 0 0.0587677)
(9.57544 0 0.0460113)
(9.7568 0 0.0705928)
(9.42138 0 0.0529486)
(9.63754 0 0.0830128)
(9.24755 0 0.0601659)
(9.49862 0 0.0959359)
(9.05363 0 0.0678107)
(9.33931 0 0.109612)
(8.83893 0 0.0760343)
(9.15875 0 0.124288)
(8.60253 0 0.0849701)
(8.9561 0 0.140167)
(8.34327 0 0.0947449)
(8.73039 0 0.157433)
(8.05986 0 0.105487)
(8.48041 0 0.17627)
(7.75081 0 0.117328)
(8.20478 0 0.196858)
(7.41457 0 0.130396)
(7.90196 0 0.219363)
(7.04951 0 0.144811)
(7.57032 0 0.243925)
(6.65404 0 0.160674)
(7.2082 0 0.270635)
(6.22672 0 0.178046)
(6.814 0 0.299504)
(5.76643 0 0.19693)
(6.38634 0 0.330418)
(5.27258 0 0.217236)
(5.92418 0 0.363088)
(4.74538 0 0.238738)
(5.42711 0 0.39698)
(4.18621 0 0.261035)
(4.89566 0 0.431241)
(3.59798 0 0.283491)
(4.33165 0 0.464624)
(2.98556 0 0.305205)
(3.73861 0 0.495429)
(2.35612 0 0.325071)
(3.12228 0 0.521516)
(1.71911 0 0.34255)
(2.49107 0 0.54056)
(1.08435 0 0.361883)
(1.85586 0 0.551675)
(0.451837 0 0.348684)
(1.24548 0 0.563022)
(-0.145838 0 0.102464)
(0.608917 0 0.544881)
(-0.42362 0 -0.207096)
(0.0946644 0 0.25937)
(-0.402156 0 -0.361259)
(-0.133671 0 -0.0205261)
(-0.119681 0 -0.393887)
(9.99641 0 0.051672)
(9.99705 0 0.0405042)
(9.95879 0 0.0708609)
(9.97851 0 0.0674538)
(9.89824 0 0.0879861)
(9.93377 0 0.089869)
(9.81659 0 0.105984)
(9.86453 0 0.113554)
(9.71359 0 0.124921)
(9.77438 0 0.138514)
(9.58909 0 0.144853)
(9.66436 0 0.164645)
(9.44275 0 0.166089)
(9.53398 0 0.192331)
(9.27391 0 0.188967)
(9.3825 0 0.22203)
(9.08167 0 0.213783)
(9.2092 0 0.254148)
(8.86491 0 0.240816)
(9.01317 0 0.289064)
(8.62231 0 0.270338)
(8.79332 0 0.327153)
(8.3524 0 0.302608)
(8.54837 0 0.368788)
(8.05357 0 0.337859)
(8.27684 0 0.414319)
(7.72413 0 0.376265)
(7.97718 0 0.46405)
(7.36238 0 0.417906)
(7.64772 0 0.518194)
(6.96673 0 0.462713)
(7.28683 0 0.576812)
(6.53584 0 0.510392)
(6.89296 0 0.639733)
(6.06883 0 0.560339)
(6.46482 0 0.706435)
(5.56559 0 0.611527)
(6.0016 0 0.775918)
(5.0271 0 0.662391)
(5.50326 0 0.846532)
(4.45588 0 0.710714)
(4.97089 0 0.915814)
(3.8565 0 0.753545)
(4.40718 0 0.980314)
(3.23619 0 0.7872)
(3.81704 0 1.03546)
(2.60582 0 0.807504)
(3.20846 0 1.07549)
(1.98279 0 0.810468)
(2.59339 0 1.09315)
(1.40528 0 0.776897)
(1.9962 0 1.07708)
(0.929751 0 0.6464)
(1.4195 0 0.978409)
(0.439854 0 0.384338)
(0.937572 0 0.716796)
(0.0591715 0 -0.118615)
(0.443791 0 0.343523)
(0.17492 0 -0.335932)
(9.98903 0 0.0594302)
(9.99481 0 0.0458769)
(9.95434 0 0.0894755)
(9.97368 0 0.0848532)
(9.8973 0 0.11803)
(9.92984 0 0.119172)
(9.82047 0 0.147897)
(9.86357 0 0.153974)
(9.72417 0 0.17942)
(9.77736 0 0.190406)
(9.60822 0 0.212774)
(9.67227 0 0.228635)
(9.47235 0 0.248391)
(9.5481 0 0.269127)
(9.31608 0 0.286773)
(9.40432 0 0.312495)
(9.13869 0 0.328396)
(9.24035 0 0.359324)
(8.93925 0 0.373721)
(9.0555 0 0.410173)
(8.71665 0 0.423206)
(8.8489 0 0.465598)
(8.46961 0 0.477296)
(8.61952 0 0.526153)
(8.19668 0 0.5364)
(8.36616 0 0.592373)
(7.89633 0 0.600844)
(8.08753 0 0.664739)
(7.56692 0 0.670812)
(7.7822 0 0.74362)
(7.20684 0 0.746259)
(7.44874 0 0.829192)
(6.81457 0 0.826786)
(7.08569 0 0.921323)
(6.38888 0 0.911487)
(6.69171 0 1.01941)
(5.92904 0 0.998763)
(6.26572 0 1.12218)
(5.43514 0 1.0861)
(5.80712 0 1.22743)
(4.90855 0 1.16983)
(5.31608 0 1.33175)
(4.35243 0 1.2449)
(4.79398 0 1.4302)
(3.77259 0 1.30455)
(4.24398 0 1.51588)
(3.17873 0 1.33984)
(3.67182 0 1.57943)
(2.58663 0 1.33812)
(3.08633 0 1.60775)
(2.01987 0 1.27297)
(2.50293 0 1.58158)
(1.48695 0 1.09541)
(1.92874 0 1.46425)
(0.9583 0 0.769172)
(1.38525 0 1.21041)
(0.47988 0 0.202452)
(0.829545 0 0.801039)
(0.433732 0 0.13408)
(9.98515 0 0.071613)
(9.99367 0 0.0531471)
(9.95039 0 0.113629)
(9.97088 0 0.102289)
(9.89437 0 0.154131)
(9.92691 0 0.147952)
(9.81882 0 0.195571)
(9.86185 0 0.193719)
(9.72442 0 0.238809)
(9.77746 0 0.241275)
(9.61113 0 0.284322)
(9.67467 0 0.291161)
(9.47875 0 0.332718)
(9.55343 0 0.343953)
(9.32695 0 0.384672)
(9.41336 0 0.400369)
(9.15524 0 0.440845)
(9.25401 0 0.461137)
(8.96292 0 0.501882)
(9.07485 0 0.526959)
(8.74917 0 0.568427)
(8.87521 0 0.598535)
(8.51305 0 0.641112)
(8.65431 0 0.676562)
(8.25347 0 0.720531)
(8.41123 0 0.761721)
(7.96927 0 0.807192)
(8.145 0 0.854638)
(7.65918 0 0.90144)
(7.85455 0 0.955821)
(7.32193 0 1.00335)
(7.53876 0 1.06557)
(6.95621 0 1.11258)
(7.19647 0 1.18385)
(6.56085 0 1.22814)
(6.82653 0 1.31008)
(6.13489 0 1.34817)
(6.4279 0 1.44292)
(5.67785 0 1.4696)
(5.99967 0 1.57991)
(5.19 0 1.58778)
(5.54134 0 1.71709)
(4.67287 0 1.69603)
(5.05306 0 1.84854)
(4.1298 0 1.78515)
(4.53597 0 1.96584)
(3.56666 0 1.84253)
(3.99273 0 2.05731)
(2.99206 0 1.85073)
(3.4276 0 2.10714)
(2.41585 0 1.78249)
(2.84764 0 2.09448)
(1.84055 0 1.60046)
(2.25623 0 1.98873)
(1.25939 0 1.27843)
(1.66032 0 1.75304)
(0.666776 0 0.789538)
(1.02397 0 1.36776)
(0.523037 0 0.787147)
(9.98337 0 0.0844061)
(9.99316 0 0.0612904)
(9.94821 0 0.136835)
(9.96959 0 0.119925)
(9.89315 0 0.188029)
(9.92575 0 0.176238)
(9.81907 0 0.240166)
(9.862 0 0.232695)
(9.72663 0 0.294464)
(9.77964 0 0.291083)
(9.6159 0 0.351655)
(9.6794 0 0.35227)
(9.48672 0 0.412466)
(9.56128 0 0.416973)
(9.33879 0 0.477672)
(9.42497 0 0.486004)
(9.17171 0 0.548047)
(9.2701 0 0.5602)
(8.98493 0 0.624351)
(9.09621 0 0.640383)
(8.77779 0 0.707341)
(8.90275 0 0.727364)
(8.54954 0 0.797762)
(8.68908 0 0.821954)
(8.29936 0 0.896325)
(8.45445 0 0.92494)
(8.02635 0 1.00365)
(8.19808 0 1.03705)
(7.72958 0 1.12021)
(7.91913 0 1.15891)
(7.40806 0 1.24617)
(7.6167 0 1.29093)
(7.06077 0 1.38128)
(7.28986 0 1.43315)
(6.6867 0 1.52459)
(6.93763 0 1.58511)
(6.28485 0 1.67419)
(6.55899 0 1.74551)
(5.85438 0 1.82679)
(6.15287 0 1.91189)
(5.39471 0 1.97726)
(5.71822 0 2.08017)
(4.90575 0 2.11806)
(5.25408 0 2.2441)
(4.38825 0 2.23861)
(4.75973 0 2.39461)
(3.84394 0 2.32455)
(4.23495 0 2.5192)
(3.27544 0 2.35695)
(3.67989 0 2.60124)
(2.6854 0 2.31059)
(3.09572 0 2.6197)
(2.07269 0 2.155)
(2.48169 0 2.54732)
(1.42938 0 1.86739)
(1.83992 0 2.35372)
(0.742613 0 1.41956)
(1.13136 0 2.02452)
(0.543306 0 1.51449)
(9.98264 0 0.097496)
(9.99299 0 0.0697916)
(9.94744 0 0.159772)
(9.96925 0 0.137581)
(9.89354 0 0.221344)
(9.92597 0 0.203923)
(9.82134 0 0.284088)
(9.86381 0 0.270684)
(9.73134 0 0.349343)
(9.78386 0 0.339578)
(9.62367 0 0.418014)
(9.68665 0 0.411692)
(9.4982 0 0.490933)
(9.57219 0 0.487897)
(9.35466 0 0.568969)
(9.44022 0 0.569099)
(9.1927 0 0.652999)
(9.29044 0 0.656228)
(9.01184 0 0.743893)
(9.12243 0 0.750209)
(8.81152 0 0.842513)
(8.93572 0 0.851953)
(8.59109 0 0.949707)
(8.72974 0 0.962363)
(8.34986 0 1.06628)
(8.50383 0 1.08232)
(8.08707 0 1.19296)
(8.25729 0 1.21265)
(7.80193 0 1.33031)
(7.98938 0 1.35405)
(7.4936 0 1.4786)
(7.6993 0 1.50703)
(7.16119 0 1.63769)
(7.38617 0 1.67177)
(6.80372 0 1.80676)
(7.04903 0 1.84792)
(6.42011 0 1.98398)
(6.68675 0 2.03437)
(6.00913 0 2.16615)
(6.29801 0 2.22885)
(5.5694 0 2.34812)
(5.88119 0 2.42749)
(5.09946 0 2.52222)
(5.43433 0 2.62427)
(4.59774 0 2.67757)
(4.95511 0 2.8103)
(4.06269 0 2.7995)
(4.44084 0 2.97323)
(3.4927 0 2.86911)
(3.88851 0 3.09663)
(2.88582 0 2.86292)
(3.29522 0 3.1599)
(2.23801 0 2.75392)
(2.65689 0 3.1379)
(1.54244 0 2.52102)
(1.97484 0 3.00319)
(0.793647 0 2.13133)
(1.20724 0 2.74059)
(0.556735 0 2.29182)
(9.9825 0 0.110624)
(9.99302 0 0.0783599)
(9.94771 0 0.182321)
(9.96954 0 0.155034)
(9.89523 0 0.253813)
(9.92722 0 0.230881)
(9.82524 0 0.326761)
(9.86697 0 0.307503)
(9.73814 0 0.402549)
(9.78978 0 0.386516)
(9.63404 0 0.482227)
(9.69606 0 0.469141)
(9.51286 0 0.566751)
(9.5858 0 0.55639)
(9.37439 0 0.657086)
(9.45881 0 0.649263)
(9.21829 0 0.754207)
(9.31482 0 0.74878)
(9.04415 0 0.859079)
(9.15347 0 0.855956)
(8.85146 0 0.972658)
(8.97435 0 0.971795)
(8.63964 0 1.09588)
(8.77692 0 1.09729)
(8.40804 0 1.22964)
(8.56059 0 1.23342)
(8.15596 0 1.37475)
(8.32471 0 1.38108)
(7.88265 0 1.53187)
(8.06854 0 1.54108)
(7.58728 0 1.70139)
(7.79126 0 1.71406)
(7.2689 0 1.88331)
(7.49197 0 1.90032)
(6.92643 0 2.07699)
(7.16955 0 2.09972)
(6.55851 0 2.28087)
(6.82266 0 2.31141)
(6.16347 0 2.49207)
(6.44959 0 2.53351)
(5.73913 0 2.70585)
(6.04809 0 2.76267)
(5.28273 0 2.915)
(5.61524 0 2.99348)
(4.79083 0 3.10917)
(5.14724 0 3.21786)
(4.25929 0 3.27421)
(4.63938 0 3.42428)
(3.68338 0 3.39186)
(4.08605 0 3.59716)
(3.05804 0 3.43968)
(3.48131 0 3.71654)
(2.37773 0 3.39179)
(2.81836 0 3.75812)
(1.6379 0 3.22616)
(2.09915 0 3.69397)
(0.839128 0 2.90084)
(1.27891 0 3.50447)
(0.573357 0 3.11369)
(9.98273 0 0.123579)
(9.99316 0 0.0868157)
(9.94873 0 0.204305)
(9.97027 0 0.172089)
(9.89794 0 0.285247)
(9.92927 0 0.25697)
(9.83051 0 0.367959)
(9.87124 0 0.342981)
(9.74671 0 0.453844)
(9.79716 0 0.431671)
(9.64669 0 0.544069)
(9.70735 0 0.524343)
(9.53039 0 0.639699)
(9.60181 0 0.622126)
(9.39763 0 0.741792)
(9.48039 0 0.726117)
(9.24814 0 0.851407)
(9.34287 0 0.837416)
(9.08154 0 0.9696)
(9.18895 0 0.957124)
(8.89738 0 1.09742)
(9.01826 0 1.08633)
(8.69511 0 1.23588)
(8.83031 0 1.22613)
(8.47414 0 1.38598)
(8.62456 0 1.37758)
(8.23378 0 1.54863)
(8.40038 0 1.54168)
(7.97324 0 1.72461)
(8.15703 0 1.71938)
(7.69162 0 1.91445)
(7.89365 0 1.91144)
(7.38786 0 2.11836)
(7.60921 0 2.11837)
(7.06063 0 2.33598)
(7.30243 0 2.3403)
(6.70821 0 2.56614)
(6.97166 0 2.57678)
(6.32837 0 2.8065)
(6.61472 0 2.82645)
(5.9181 0 3.05307)
(6.22872 0 3.08672)
(5.47345 0 3.29955)
(5.80974 0 3.35319)
(4.9893 0 3.53667)
(5.35265 0 3.619)
(4.45933 0 3.75142)
(4.85087 0 3.87401)
(3.87621 0 3.92647)
(4.29641 0 4.10395)
(3.23232 0 4.03986)
(3.68054 0 4.28969)
(2.52082 0 4.06498)
(2.9935 0 4.40677)
(1.73837 0 3.97612)
(2.23736 0 4.42457)
(0.889468 0 3.71874)
(1.36335 0 4.31627)
(0.598748 0 3.98487)
(9.98321 0 0.136201)
(9.99339 0 0.0950383)
(9.95032 0 0.225567)
(9.97131 0 0.188585)
(9.90151 0 0.31549)
(9.93193 0 0.282043)
(9.83694 0 0.407496)
(9.87644 0 0.376953)
(9.75684 0 0.503004)
(9.8058 0 0.474832)
(9.66136 0 0.603267)
(9.72031 0 0.57704)
(9.55047 0 0.709449)
(9.61996 0 0.684804)
(9.42405 0 0.822691)
(9.50466 0 0.799305)
(9.28185 0 0.944136)
(9.37423 0 0.921724)
(9.12357 0 1.07492)
(9.22845 0 1.05324)
(8.94881 0 1.21618)
(9.06697 0 1.19503)
(8.75707 0 1.36904)
(8.8894 0 1.34827)
(8.54778 0 1.53458)
(8.69522 0 1.51411)
(8.32027 0 1.71384)
(8.48384 0 1.6937)
(8.07372 0 1.90774)
(8.25452 0 1.8881)
(7.80715 0 2.11703)
(8.00638 0 2.09827)
(7.51934 0 2.34217)
(7.73827 0 2.32497)
(7.20869 0 2.58317)
(7.44875 0 2.5687)
(6.87312 0 2.83941)
(7.13587 0 2.82947)
(6.50979 0 3.10929)
(6.79703 0 3.10666)
(6.11489 0 3.38982)
(6.42869 0 3.39864)
(5.68332 0 3.67604)
(6.02605 0 3.70232)
(5.20838 0 3.96023)
(5.58269 0 4.01251)
(4.68165 0 4.231)
(5.09021 0 4.32099)
(4.09317 0 4.47232)
(4.53815 0 4.6154)
(3.4324 0 4.66254)
(3.91457 0 4.87787)
(2.69003 0 4.77313)
(3.20556 0 5.08357)
(1.86177 0 4.77236)
(2.41117 0 5.19793)
(0.954135 0 4.58967)
(1.4762 0 5.18425)
(0.639156 0 4.91939)
(9.98386 0 0.148366)
(9.99368 0 0.102941)
(9.95235 0 0.245966)
(9.97261 0 0.20439)
(9.90579 0 0.344392)
(9.9351 0 0.305963)
(9.84438 0 0.44519)
(9.88241 0 0.409262)
(9.76833 0 0.549802)
(9.81552 0 0.515807)
(9.67781 0 0.659549)
(9.73472 0 0.627)
(9.57282 0 0.775676)
(9.64 0 0.744146)
(9.45329 0 0.899406)
(9.53131 0 0.868504)
(9.31903 0 1.03196)
(9.40855 0 1.00133)
(9.1698 0 1.17454)
(9.27153 0 1.14386)
(9.00524 0 1.32839)
(9.12001 0 1.29737)
(8.82494 0 1.49471)
(8.95363 0 1.46312)
(8.62837 0 1.6747)
(8.77196 0 1.64236)
(8.41487 0 1.86954)
(8.57445 0 1.83636)
(8.18363 0 2.08033)
(8.3604 0 2.04635)
(7.93362 0 2.30806)
(8.12892 0 2.2735)
(7.6635 0 2.55351)
(7.87883 0 2.51889)
(7.37145 0 2.81719)
(7.60856 0 2.78341)
(7.05507 0 3.09913)
(7.31599 0 3.0677)
(6.71102 0 3.39867)
(6.99821 0 3.37198)
(6.3348 0 3.7141)
(6.65119 0 3.69581)
(5.92024 0 4.04212)
(6.26939 0 4.03769)
(5.45914 0 4.37709)
(5.84527 0 4.39455)
(4.94091 0 4.7099)
(5.36873 0 4.76075)
(4.35254 0 5.02654)
(4.82662 0 5.12676)
(3.67939 0 5.30616)
(4.20297 0 5.47706)
(2.90732 0 5.51813)
(3.47769 0 5.78744)
(2.02751 0 5.62293)
(2.64483 0 6.01943)
(1.04502 0 5.52935)
(1.63757 0 6.12381)
(0.704399 0 5.94292)
(9.98465 0 0.159978)
(9.99402 0 0.11046)
(9.95473 0 0.265376)
(9.97409 0 0.219395)
(9.91065 0 0.371813)
(9.93868 0 0.328606)
(9.85267 0 0.480875)
(9.88905 0 0.439768)
(9.78101 0 0.594035)
(9.82619 0 0.554423)
(9.69582 0 0.71267)
(9.75039 0 0.674014)
(9.59717 0 0.838096)
(9.66168 0 0.799905)
(9.48503 0 0.971604)
(9.56004 0 0.933422)
(9.35929 0 1.11448)
(9.44545 0 1.07588)
(9.21975 0 1.26801)
(9.31778 0 1.2286)
(9.06615 0 1.43351)
(9.17686 0 1.3929)
(8.89813 0 1.61227)
(9.02243 0 1.57014)
(8.71524 0 1.80563)
(8.85412 0 1.76168)
(8.51688 0 2.01489)
(8.67148 0 1.9689)
(8.30228 0 2.24136)
(8.47387 0 2.19321)
(8.07042 0 2.48631)
(8.26047 0 2.43601)
(7.81991 0 2.75091)
(8.03014 0 2.69872)
(7.54885 0 3.0362)
(7.78132 0 2.98269)
(7.25465 0 3.343)
(7.51185 0 3.28924)
(6.93369 0 3.67173)
(7.21869 0 3.61952)
(6.58093 0 4.02221)
(6.89763 0 3.97443)
(6.18945 0 4.39318)
(6.54272 0 4.35439)
(5.74974 0 4.78167)
(6.14568 0 4.75887)
(5.24905 0 5.18178)
(5.69501 0 5.18562)
(4.67084 0 5.58285)
(5.17498 0 5.62929)
(3.99477 0 5.96656)
(4.56494 0 6.07885)
(3.19826 0 6.30168)
(3.83614 0 6.51359)
(2.26161 0 6.54058)
(2.97061 0 6.89399)
(1.1805 0 6.56493)
(1.87895 0 7.15768)
(0.812703 0 7.09915)
(9.98554 0 0.170959)
(9.9944 0 0.117544)
(9.95739 0 0.283693)
(9.97572 0 0.233514)
(9.91601 0 0.397627)
(9.94259 0 0.349861)
(9.8617 0 0.514402)
(9.89624 0 0.468342)
(9.79469 0 0.635523)
(9.83765 0 0.590528)
(9.71518 0 0.762416)
(9.76714 0 0.717896)
(9.62326 0 0.896453)
(9.68477 0 0.851861)
(9.51896 0 1.03899)
(9.59057 0 0.993803)
(9.40223 0 1.19136)
(9.48458 0 1.14509)
(9.27296 0 1.35493)
(9.36676 0 1.3071)
(9.13096 0 1.53107)
(9.23701 0 1.48122)
(8.97598 0 1.72118)
(9.09517 0 1.66886)
(8.80766 0 1.92669)
(8.94099 0 1.87149)
(8.62549 0 2.14908)
(8.77411 0 2.09062)
(8.4288 0 2.38984)
(8.59403 0 2.32781)
(8.21664 0 2.65052)
(8.40005 0 2.58471)
(7.98772 0 2.93272)
(8.19117 0 2.86305)
(7.7402 0 3.23807)
(7.96597 0 3.16467)
(7.4715 0 3.56819)
(7.72246 0 3.49156)
(7.178 0 3.92473)
(7.45777 0 3.84587)
(6.85455 0 4.30918)
(7.16784 0 4.22992)
(6.49388 0 4.72269)
(6.84687 0 4.64616)
(6.08572 0 5.16558)
(6.48649 0 5.09705)
(5.61563 0 5.63636)
(6.07468 0 5.58454)
(5.06352 0 6.12986)
(5.59397 0 6.10913)
(4.40209 0 6.63377)
(5.01949 0 6.66761)
(3.59595 0 7.12114)
(4.31237 0 7.24852)
(2.60412 0 7.54046)
(3.43542 0 7.82008)
(1.39415 0 7.74016)
(2.2562 0 8.31479)
(1.00246 0 8.46463)
(9.9865 0 0.181248)
(9.9948 0 0.124153)
(9.96027 0 0.300825)
(9.97747 0 0.246674)
(9.92177 0 0.421724)
(9.94676 0 0.369638)
(9.87134 0 0.545638)
(9.90388 0 0.494874)
(9.80924 0 0.674109)
(9.84978 0 0.62399)
(9.73568 0 0.808599)
(9.78479 0 0.758491)
(9.65082 0 0.950527)
(9.70904 0 0.899829)
(9.55473 0 1.10129)
(9.6226 0 1.04943)
(9.44744 0 1.26229)
(9.52557 0 1.2087)
(9.32893 0 1.43494)
(9.41801 0 1.37907)
(9.19911 0 1.62065)
(9.29991 0 1.56196)
(9.05782 0 1.82093)
(9.17121 0 1.75886)
(8.90483 0 2.03728)
(9.0318 0 1.9713)
(8.73978 0 2.27134)
(8.88145 0 2.2009)
(8.56214 0 2.52478)
(8.71984 0 2.44938)
(8.37114 0 2.79945)
(8.54646 0 2.71858)
(8.16568 0 3.09731)
(8.36054 0 3.01053)
(7.94418 0 3.42056)
(8.16097 0 3.32752)
(7.70434 0 3.77166)
(7.94613 0 3.67216)
(7.44287 0 4.15344)
(7.71363 0 4.04751)
(7.15504 0 4.56916)
(7.46003 0 4.45727)
(6.83395 0 5.02254)
(7.18032 0 4.90591)
(6.46956 0 5.51771)
(6.8671 0 5.39896)
(6.04698 0 6.0588)
(6.50931 0 5.94313)
(5.54398 0 6.64882)
(6.08999 0 6.5463)
(4.92693 0 7.28703)
(5.58299 0 7.21687)
(4.14478 0 7.96137)
(4.94228 0 7.96158)
(3.12148 0 8.63337)
(4.10896 0 8.77555)
(1.75601 0 9.12742)
(2.87804 0 9.62059)
(1.36445 0 10.1845)
(9.98754 0 0.190794)
(9.99523 0 0.130257)
(9.96333 0 0.316699)
(9.97932 0 0.258817)
(9.92786 0 0.444011)
(9.95115 0 0.387858)
(9.88148 0 0.574476)
(9.91188 0 0.519272)
(9.82449 0 0.709664)
(9.86244 0 0.654699)
(9.75713 0 0.851069)
(9.80318 0 0.795666)
(9.67959 0 1.00015)
(9.73426 0 0.943657)
(9.59203 0 1.15833)
(9.65584 0 1.10012)
(9.49453 0 1.32705)
(9.56807 0 1.26651)
(9.38718 0 1.50776)
(9.4711 0 1.44426)
(9.26998 0 1.70194)
(9.36502 0 1.63485)
(9.14292 0 1.91113)
(9.24989 0 1.83979)
(9.00591 0 2.13693)
(9.12575 0 2.06069)
(8.85874 0 2.38108)
(8.99254 0 2.29924)
(8.70111 0 2.64543)
(8.85015 0 2.55725)
(8.53251 0 2.93203)
(8.69832 0 2.83675)
(8.35216 0 3.2432)
(8.53662 0 3.14)
(8.15889 0 3.58162)
(8.36436 0 3.46962)
(7.95095 0 3.95049)
(8.18048 0 3.82873)
(7.72581 0 4.35368)
(7.98338 0 4.22115)
(7.47971 0 4.79606)
(7.77071 0 4.65165)
(7.20709 0 5.2838)
(7.53897 0 5.12646)
(6.89956 0 5.82489)
(7.28292 0 5.65377)
(6.54415 0 6.42968)
(6.99457 0 6.24472)
(6.12012 0 7.11157)
(6.66118 0 6.91483)
(5.59272 0 7.8877)
(6.26219 0 7.68632)
(4.90046 0 8.77788)
(5.75714 0 8.59269)
(3.92636 0 9.8013)
(5.08674 0 9.6851)
(2.43274 0 10.8561)
(3.97874 0 11.0489)
(2.14565 0 12.5673)
(9.98862 0 0.199558)
(9.99567 0 0.135832)
(9.96652 0 0.331253)
(9.98124 0 0.269899)
(9.9342 0 0.464407)
(9.95571 0 0.404461)
(9.89203 0 0.600807)
(9.92017 0 0.541462)
(9.84031 0 0.74205)
(9.87553 0 0.682566)
(9.77933 0 0.889651)
(9.82217 0 0.82932)
(9.70933 0 1.04509)
(9.76029 0 0.983223)
(9.63052 0 1.20983)
(9.69011 0 1.14575)
(9.54309 0 1.38532)
(9.61187 0 1.31835)
(9.4472 0 1.57304)
(9.52579 0 1.50249)
(9.34298 0 1.77449)
(9.43209 0 1.69966)
(9.23055 0 1.99126)
(9.33095 0 1.91141)
(9.10998 0 2.225)
(9.22256 0 2.13935)
(8.98129 0 2.47753)
(9.10707 0 2.38522)
(8.84441 0 2.7508)
(8.9846 0 2.65092)
(8.69916 0 3.04705)
(8.85519 0 2.93855)
(8.54519 0 3.36882)
(8.71882 0 3.25053)
(8.3819 0 3.71915)
(8.57533 0 3.58968)
(8.20832 0 4.10175)
(8.42438 0 3.95944)
(8.02299 0 4.52129)
(8.26538 0 4.36407)
(7.82374 0 4.9838)
(8.09744 0 4.80904)
(7.60726 0 5.49732)
(7.91919 0 5.30158)
(7.36852 0 6.07291)
(7.72865 0 5.85157)
(7.0996 0 6.72623)
(7.52293 0 6.47292)
(6.78733 0 7.48044)
(7.29779 0 7.18622)
(6.40815 0 8.37229)
(7.04775 0 8.02385)
(5.91502 0 9.46617)
(6.76257 0 9.04227)
(5.19533 0 10.9083)
(6.46122 0 10.3571)
(3.88352 0 13.1779)
(6.18845 0 12.3034)
(5.25668 0 16.3709)
(0.185201 0 -0.109211)
(0.108635 0 -0.181393)
(0.359673 0 -0.0916193)
(0.263839 0 -0.166849)
(0.501284 0 -0.0687922)
(0.416551 0 -0.132226)
(0.609861 0 -0.0486944)
(0.543353 0 -0.0989854)
(0.690378 0 -0.0326858)
(0.64067 0 -0.0716708)
(0.748335 0 -0.0204489)
(0.71338 0 -0.0503713)
(0.788669 0 -0.0113621)
(0.76733 0 -0.0342272)
(0.81562 0 -0.00482963)
(0.807313 0 -0.0223295)
(0.832743 0 -0.000324438)
(0.837009 0 -0.0138522)
(0.842939 0 0.00261272)
(0.859293 0 -0.00805352)
(0.848494 0 0.00436985)
(0.876426 0 -0.00428432)
(0.851159 0 0.00525819)
(0.890132 0 -0.00200673)
(0.852257 0 0.00551891)
(0.901688 0 -0.000807406)
(0.852772 0 0.00534901)
(0.91203 0 -0.000369422)
(0.853408 0 0.00492522)
(0.921848 0 -0.000446068)
(0.854628 0 0.00439795)
(0.931625 0 -0.000834482)
(0.856596 0 0.00388871)
(0.941647 0 -0.00131537)
(0.859207 0 0.00350335)
(0.952002 0 -0.00170302)
(0.862106 0 0.00332986)
(0.962584 0 -0.00184698)
(0.864762 0 0.00342267)
(0.973121 0 -0.00165165)
(0.866566 0 0.00376927)
(0.983226 0 -0.00109566)
(0.867024 0 0.00425794)
(0.992452 0 -0.00027128)
(0.865728 0 0.00476321)
(1.00037 0 0.000750237)
(0.862519 0 0.0052206)
(1.00666 0 0.00181367)
(0.857389 0 0.00559762)
(1.01118 0 0.00283125)
(0.850392 0 0.00587293)
(1.01391 0 0.00377045)
(0.841644 0 0.00604237)
(1.01496 0 0.0046025)
(0.831204 0 0.00601644)
(1.01414 0 0.00536296)
(0.819898 0 0.00524259)
(1.01165 0 0.00567086)
(1.00811 0 0.00428054)
(0.17171 0 -0.26266)
(0.0908007 0 -0.349572)
(0.334992 0 -0.227422)
(0.234745 0 -0.322996)
(0.47064 0 -0.17768)
(0.36849 0 -0.258883)
(0.578744 0 -0.133133)
(0.480764 0 -0.197541)
(0.66397 0 -0.0973998)
(0.568857 0 -0.147533)
(0.731143 0 -0.0698974)
(0.637416 0 -0.108752)
(0.784397 0 -0.0492738)
(0.691309 0 -0.0794181)
(0.827146 0 -0.0342139)
(0.734347 0 -0.0577486)
(0.862155 0 -0.0235504)
(0.76941 0 -0.0421736)
(0.891603 0 -0.0162642)
(0.798725 0 -0.0313133)
(0.917133 0 -0.0114957)
(0.824004 0 -0.0239734)
(0.939939 0 -0.00856677)
(0.84649 0 -0.0191795)
(0.960896 0 -0.00696854)
(0.86704 0 -0.0162151)
(0.980661 0 -0.00630656)
(0.886264 0 -0.0145583)
(0.99972 0 -0.00624937)
(0.904618 0 -0.0138039)
(1.01839 0 -0.00651125)
(0.922432 0 -0.0136137)
(1.03689 0 -0.00684377)
(0.939927 0 -0.0136747)
(1.05529 0 -0.00702836)
(0.957231 0 -0.0137092)
(1.07357 0 -0.00688923)
(0.974375 0 -0.013489)
(1.09159 0 -0.00631677)
(0.991306 0 -0.0128586)
(1.10913 0 -0.00529497)
(1.0079 0 -0.0117486)
(1.12582 0 -0.00391305)
(1.02397 0 -0.0101637)
(1.14125 0 -0.00231298)
(1.03924 0 -0.00818618)
(1.15518 0 -0.000636825)
(1.05347 0 -0.00605924)
(1.16755 0 0.00101785)
(1.06661 0 -0.00399377)
(1.17834 0 0.0026527)
(1.07868 0 -0.00204184)
(1.18741 0 0.00418918)
(1.0897 0 -0.00017056)
(1.19444 0 0.00531413)
(1.09967 0 0.00175297)
(1.19993 0 0.00526776)
(1.10834 0 0.00291278)
(1.11716 0 0.00265183)
(0.145318 0 -0.416308)
(0.0709182 0 -0.491902)
(0.279075 0 -0.361346)
(0.191906 0 -0.450909)
(0.388182 0 -0.285159)
(0.293218 0 -0.360757)
(0.474436 0 -0.217389)
(0.378424 0 -0.276176)
(0.54248 0 -0.163268)
(0.444065 0 -0.208101)
(0.596456 0 -0.121673)
(0.495154 0 -0.155663)
(0.639746 0 -0.0904584)
(0.535483 0 -0.116153)
(0.675048 0 -0.0675873)
(0.567824 0 -0.0869981)
(0.704534 0 -0.0512686)
(0.594268 0 -0.0660269)
(0.729901 0 -0.0399345)
(0.616474 0 -0.0513499)
(0.752385 0 -0.0322591)
(0.635736 0 -0.0413135)
(0.772811 0 -0.0272131)
(0.652931 0 -0.03456)
(0.791767 0 -0.0240507)
(0.668555 0 -0.030152)
(0.809693 0 -0.022219)
(0.68296 0 -0.0274265)
(0.82691 0 -0.0212816)
(0.696429 0 -0.0258715)
(0.843644 0 -0.0208657)
(0.709181 0 -0.0250653)
(0.860043 0 -0.0206362)
(0.721376 0 -0.0246321)
(0.876175 0 -0.0203025)
(0.733127 0 -0.0242338)
(0.892035 0 -0.0196432)
(0.744493 0 -0.0235918)
(0.907571 0 -0.0185256)
(0.755485 0 -0.0225205)
(0.922695 0 -0.0169038)
(0.766078 0 -0.0209329)
(0.9373 0 -0.0148119)
(0.776223 0 -0.0188232)
(0.951292 0 -0.012403)
(0.785863 0 -0.0162865)
(0.964636 0 -0.00992006)
(0.794954 0 -0.0136013)
(0.977447 0 -0.00752757)
(0.803499 0 -0.0110644)
(0.98987 0 -0.00519531)
(0.811628 0 -0.00873565)
(1.00188 0 -0.00294803)
(0.819385 0 -0.00648762)
(1.0135 0 -0.00104945)
(0.82703 0 -0.00421819)
(1.02414 0 0.000259275)
(0.833919 0 -0.00242277)
(0.841343 0 -0.00095637)
(0.116117 0 -0.53587)
(0.0508729 0 -0.605631)
(0.214813 0 -0.460068)
(0.143206 0 -0.545293)
(0.291467 0 -0.3613)
(0.205844 0 -0.432331)
(0.350702 0 -0.275478)
(0.260679 0 -0.330179)
(0.396892 0 -0.207816)
(0.300017 0 -0.249216)
(0.433237 0 -0.15616)
(0.330152 0 -0.187251)
(0.462163 0 -0.117529)
(0.353386 0 -0.140698)
(0.485498 0 -0.0892706)
(0.371343 0 -0.106332)
(0.504742 0 -0.0691221)
(0.385249 0 -0.0815948)
(0.521084 0 -0.0550969)
(0.396175 0 -0.0642577)
(0.535345 0 -0.045486)
(0.405072 0 -0.052312)
(0.547928 0 -0.0389963)
(0.412478 0 -0.0440348)
(0.55913 0 -0.0347454)
(0.418464 0 -0.0383883)
(0.569194 0 -0.0320828)
(0.423167 0 -0.0346507)
(0.578313 0 -0.0304964)
(0.426749 0 -0.0322633)
(0.58665 0 -0.0295532)
(0.429367 0 -0.0307706)
(0.594333 0 -0.0288678)
(0.431173 0 -0.0297654)
(0.601444 0 -0.0281089)
(0.432314 0 -0.028873)
(0.608024 0 -0.0270302)
(0.43293 0 -0.0277829)
(0.614101 0 -0.0254865)
(0.433123 0 -0.0263003)
(0.619705 0 -0.023421)
(0.432948 0 -0.024336)
(0.624834 0 -0.0208673)
(0.43242 0 -0.0218642)
(0.629425 0 -0.0180224)
(0.431512 0 -0.0189441)
(0.633504 0 -0.0152042)
(0.430228 0 -0.0159073)
(0.637315 0 -0.0125551)
(0.428526 0 -0.0131677)
(0.641076 0 -0.00996733)
(0.426397 0 -0.0107623)
(0.644535 0 -0.00752948)
(0.423846 0 -0.00830725)
(0.647337 0 -0.00570507)
(0.421964 0 -0.00565773)
(0.649747 0 -0.00410405)
(0.417316 0 -0.00363151)
(0.41008 0 -0.00140332)
(0.082017 0 -0.622914)
(0.0296632 0 -0.685962)
(0.141457 0 -0.525745)
(0.0878066 0 -0.602136)
(0.182287 0 -0.40915)
(0.107006 0 -0.470454)
(0.211812 0 -0.311034)
(0.129689 0 -0.357095)
(0.233533 0 -0.234725)
(0.140069 0 -0.268551)
(0.249558 0 -0.17683)
(0.146721 0 -0.201179)
(0.261229 0 -0.133595)
(0.149907 0 -0.150602)
(0.269434 0 -0.101921)
(0.150274 0 -0.11313)
(0.275051 0 -0.0792959)
(0.148215 0 -0.0861388)
(0.278819 0 -0.0635028)
(0.144327 0 -0.0672341)
(0.28125 0 -0.0524753)
(0.139355 0 -0.0541872)
(0.282233 0 -0.0446844)
(0.13352 0 -0.0447749)
(0.281849 0 -0.0392607)
(0.126483 0 -0.0381059)
(0.280205 0 -0.0355572)
(0.11837 0 -0.0334705)
(0.277439 0 -0.0330604)
(0.10932 0 -0.0303247)
(0.273719 0 -0.0313362)
(0.0994969 0 -0.0282248)
(0.269226 0 -0.0299939)
(0.0891016 0 -0.0267635)
(0.264116 0 -0.0286912)
(0.0783536 0 -0.0255392)
(0.258495 0 -0.0271735)
(0.0674211 0 -0.024202)
(0.252454 0 -0.0252862)
(0.056366 0 -0.0225432)
(0.246078 0 -0.0229405)
(0.0451284 0 -0.0204641)
(0.239398 0 -0.020121)
(0.0335705 0 -0.0179038)
(0.232291 0 -0.0170442)
(0.021582 0 -0.0148298)
(0.224706 0 -0.0142759)
(0.00923723 0 -0.0116199)
(0.217056 0 -0.012211)
(-0.00430809 0 -0.00894575)
(0.209514 0 -0.0102835)
(-0.0197214 0 -0.00669822)
(0.201663 0 -0.00739274)
(-0.0352999 0 -0.0041767)
(0.191002 0 -0.00354256)
(-0.0481894 0 -0.000181486)
(0.17698 0 -0.000343821)
(-0.0591908 0 0.00340171)
(-0.0713853 0 0.00386149)
(0.042644 0 -0.672483)
(0.00606356 0 -0.727729)
(0.058473 0 -0.554169)
(0.0242351 0 -0.617273)
(0.0611314 0 -0.424736)
(-0.00249262 0 -0.472937)
(0.0592167 0 -0.319571)
(-0.0147525 0 -0.35535)
(0.0539352 0 -0.238536)
(-0.0356408 0 -0.26385)
(0.0465949 0 -0.177388)
(-0.0556555 0 -0.194799)
(0.0376858 0 -0.131717)
(-0.0758797 0 -0.143042)
(0.0274093 0 -0.0982083)
(-0.0962709 0 -0.104616)
(0.0160774 0 -0.0743479)
(-0.117065 0 -0.0769715)
(0.0040002 0 -0.0576907)
(-0.137998 0 -0.0576948)
(-0.00922276 0 -0.0459937)
(-0.158524 0 -0.0439895)
(-0.0231227 0 -0.0376264)
(-0.17858 0 -0.0343083)
(-0.0377936 0 -0.0316374)
(-0.198598 0 -0.0273197)
(-0.0531494 0 -0.0274634)
(-0.21856 0 -0.0224473)
(-0.0690261 0 -0.0246519)
(-0.238486 0 -0.0191968)
(-0.0851981 0 -0.0228144)
(-0.258392 0 -0.0171577)
(-0.101434 0 -0.0215605)
(-0.278242 0 -0.0159149)
(-0.117624 0 -0.0204984)
(-0.297969 0 -0.0149771)
(-0.133803 0 -0.0193139)
(-0.317635 0 -0.0138963)
(-0.150096 0 -0.0178162)
(-0.337654 0 -0.0124099)
(-0.166671 0 -0.0158499)
(-0.358494 0 -0.0103988)
(-0.183679 0 -0.0131726)
(-0.380039 0 -0.00781901)
(-0.201303 0 -0.00960022)
(-0.401456 0 -0.00462712)
(-0.220476 0 -0.00551389)
(-0.421503 0 -0.00078273)
(-0.241976 0 -0.00192679)
(-0.439821 0 0.00291958)
(-0.264066 0 0.000827898)
(-0.457717 0 0.0052048)
(-0.284146 0 0.00369577)
(-0.474898 0 0.00638789)
(-0.29908 0 0.00642411)
(-0.489542 0 0.00749019)
(-0.308688 0 0.00696396)
(-0.498976 0 0.00822086)
(-0.50496 0 0.00728913)
(-0.00562733 0 -0.677744)
(-0.0224927 0 -0.722217)
(-0.0345851 0 -0.540174)
(-0.0497789 0 -0.589581)
(-0.071315 0 -0.404462)
(-0.122586 0 -0.438641)
(-0.108139 0 -0.298505)
(-0.174689 0 -0.321779)
(-0.144055 0 -0.217791)
(-0.229288 0 -0.23188)
(-0.178324 0 -0.157547)
(-0.278963 0 -0.165015)
(-0.210946 0 -0.112839)
(-0.324315 0 -0.115359)
(-0.242323 0 -0.0803794)
(-0.365749 0 -0.0786188)
(-0.272504 0 -0.0577347)
(-0.404467 0 -0.0525558)
(-0.301226 0 -0.0421203)
(-0.441504 0 -0.0350078)
(-0.328492 0 -0.0309703)
(-0.477511 0 -0.0229615)
(-0.354734 0 -0.0228775)
(-0.510283 0 -0.0145484)
(-0.379958 0 -0.017196)
(-0.540276 0 -0.00877489)
(-0.404331 0 -0.013443)
(-0.568124 0 -0.00495101)
(-0.428072 0 -0.0111483)
(-0.594448 0 -0.00255742)
(-0.451365 0 -0.00986139)
(-0.619763 0 -0.00121729)
(-0.474345 0 -0.00905023)
(-0.644374 0 -0.000559824)
(-0.497248 0 -0.00806419)
(-0.668374 0 -3.53836e-05)
(-0.520654 0 -0.00635829)
(-0.691721 0 0.0010129)
(-0.54531 0 -0.00386442)
(-0.714455 0 0.00292507)
(-0.571234 0 -0.000975789)
(-0.736874 0 0.00534317)
(-0.597207 0 0.0019366)
(-0.759114 0 0.00758118)
(-0.621247 0 0.00479028)
(-0.780536 0 0.00928965)
(-0.641135 0 0.00738011)
(-0.799793 0 0.0104583)
(-0.656282 0 0.00912304)
(-0.815339 0 0.011279)
(-0.668535 0 0.00978705)
(-0.827737 0 0.0118077)
(-0.679382 0 0.00993356)
(-0.838689 0 0.0120946)
(-0.688922 0 0.00992405)
(-0.848432 0 0.0123907)
(-0.696845 0 0.00935851)
(-0.856386 0 0.0121951)
(-0.860857 0 0.011102)
(-0.05625 0 -0.632983)
(-0.0582622 0 -0.667124)
(-0.136945 0 -0.483667)
(-0.135123 0 -0.512411)
(-0.217293 0 -0.350029)
(-0.257274 0 -0.363619)
(-0.293396 0 -0.248994)
(-0.354771 0 -0.252399)
(-0.362874 0 -0.173927)
(-0.446724 0 -0.170036)
(-0.424997 0 -0.119179)
(-0.528959 0 -0.111023)
(-0.479902 0 -0.0788783)
(-0.60149 0 -0.0687674)
(-0.529197 0 -0.0489453)
(-0.664813 0 -0.0377761)
(-0.574963 0 -0.0274007)
(-0.717535 0 -0.0155316)
(-0.618771 0 -0.0129096)
(-0.762803 0 -0.000406033)
(-0.659549 0 -0.00391219)
(-0.802781 0 0.00848723)
(-0.696033 0 0.00143957)
(-0.838123 0 0.0129238)
(-0.728607 0 0.00473849)
(-0.869663 0 0.0151743)
(-0.758297 0 0.00677935)
(-0.898288 0 0.0163616)
(-0.786067 0 0.0079498)
(-0.924814 0 0.0169064)
(-0.812569 0 0.00849628)
(-0.949881 0 0.0169191)
(-0.838062 0 0.00872433)
(-0.973823 0 0.016474)
(-0.862378 0 0.00908774)
(-0.996677 0 0.0158282)
(-0.885007 0 0.00998387)
(-1.01827 0 0.0154277)
(-0.905565 0 0.0114146)
(-1.03832 0 0.0157108)
(-0.924343 0 0.0129648)
(-1.0569 0 0.0167461)
(-0.942 0 0.0141569)
(-1.07454 0 0.0180505)
(-0.958696 0 0.0147929)
(-1.09151 0 0.0189547)
(-0.973951 0 0.0149864)
(-1.10733 0 0.0190811)
(-0.98711 0 0.0149592)
(-1.12119 0 0.0185411)
(-0.998044 0 0.0148646)
(-1.13269 0 0.0176999)
(-1.00725 0 0.0147309)
(-1.14226 0 0.0169393)
(-1.01509 0 0.0143554)
(-1.15052 0 0.0164165)
(-1.02206 0 0.0135076)