/*--------------------------------*- C++ -*----------------------------------*\
  =========                 |
  \\      /  F ield         | OpenFOAM: The Open Source CFD Toolbox
   \\    /   O peration     | Website:  https://openfoam.org
    \\  /    A nd           | Version:  dev
     \\/     M anipulation  |
\*---------------------------------------------------------------------------*/
FoamFile
{
    version     2.0;
    format      ascii;
    class       volScalarField;
    location    "6.1";
    object      p;
}
// * * * * * * * * * * * * * * * * * * * * * * * * * * * * * * * * * * * * * //

dimensions      [0 2 -2 0 0 0 0];

internalField   nonuniform List<scalar> 
2790
(
146.866
146.773
147.041
147.612
148.392
149.349
150.481
151.788
153.265
154.905
156.705
158.656
160.75
162.974
165.315
167.751
170.255
172.794
175.326
177.8
180.158
182.336
184.266
185.887
187.147
188.021
188.457
188.512
188.563
188.776
146.663
146.681
146.973
147.541
148.318
149.272
150.4
151.7
153.169
154.802
156.592
158.533
160.616
162.829
165.159
167.584
170.08
172.614
175.144
177.622
179.99
182.185
184.14
185.789
187.073
187.947
188.344
188.399
188.531
188.816
146.465
146.552
146.863
147.421
148.185
149.126
150.239
151.521
152.969
154.577
156.339
158.248
160.296
162.472
164.76
167.142
169.594
172.085
174.577
177.024
179.374
181.567
183.539
185.229
186.58
187.556
188.149
188.504
188.82
189.118
146.24
146.358
146.682
147.231
147.98
148.905
149.998
151.256
152.675
154.25
155.973
157.839
159.837
161.958
164.186
166.504
168.889
171.312
173.739
176.129
178.436
180.608
182.59
184.33
185.784
186.936
187.804
188.475
189.028
189.547
145.979
146.111
146.444
146.985
147.717
148.621
149.689
150.916
152.298
153.829
155.503
157.312
159.248
161.299
163.45
165.686
167.984
170.319
172.661
174.974
177.219
179.354
181.337
183.127
184.698
186.04
187.17
188.133
188.944
189.691
145.678
145.816
146.151
146.683
147.395
148.273
149.308
150.498
151.835
153.315
154.93
156.672
158.533
160.501
162.562
164.7
166.895
169.124
171.361
173.577
175.739
177.817
179.779
181.6
183.263
184.764
186.111
187.316
188.336
189.254
145.335
145.475
145.806
146.325
147.014
147.862
148.861
150.006
151.292
152.712
154.259
155.925
157.7
159.572
161.529
163.555
165.631
167.737
169.85
171.946
174.001
175.992
177.9
179.71
181.416
183.017
184.511
185.89
187.054
188.101
144.951
145.088
145.412
145.915
146.578
147.392
148.349
149.445
150.672
152.025
153.496
155.075
156.754
158.52
160.36
162.259
164.2
166.164
168.132
170.084
172.001
173.869
175.676
177.418
179.097
180.716
182.27
183.743
184.993
186.143
144.525
144.658
144.972
145.454
146.089
146.865
147.776
148.817
149.98
151.259
152.645
154.129
155.702
157.35
159.061
160.819
162.609
164.412
166.211
167.99
169.734
171.432
173.08
174.68
176.242
177.777
179.285
180.756
182.027
183.265
144.058
144.186
144.487
144.947
145.55
146.284
147.145
148.126
149.22
150.418
151.713
153.094
154.551
156.071
157.641
159.245
160.866
162.489
164.095
165.668
167.197
168.671
170.089
171.457
172.79
174.109
175.429
176.767
177.968
179.272
143.553
143.674
143.96
144.395
144.963
145.654
146.461
147.377
148.396
149.509
150.706
151.977
153.311
154.693
156.111
157.547
158.984
160.405
161.792
163.127
164.394
165.584
166.692
167.72
168.684
169.613
170.544
171.543
172.505
173.823
143.011
143.125
143.393
143.802
144.333
144.976
145.726
146.575
147.515
148.537
149.631
150.786
151.989
153.226
154.481
155.737
156.976
158.177
159.319
160.381
161.343
162.185
162.893
163.459
163.886
164.196
164.439
164.748
165.13
166.304
142.434
142.541
142.79
143.17
143.662
144.256
144.946
145.724
146.582
147.509
148.496
149.529
150.595
151.68
152.765
153.831
154.858
155.822
156.697
157.456
158.069
158.503
158.726
158.701
158.398
157.801
156.927
155.936
154.989
155.495
141.825
141.923
142.153
142.502
142.953
143.496
144.124
144.829
145.601
146.431
147.307
148.214
149.14
150.066
150.975
151.844
152.649
153.363
153.954
154.386
154.616
154.593
154.255
153.523
152.3
150.471
147.91
144.611
140.666
138.633
141.185
141.275
141.485
141.803
142.211
142.701
143.265
143.895
144.58
145.31
146.072
146.852
147.633
148.398
149.126
149.793
150.37
150.826
151.123
151.213
151.04
150.529
149.584
148.069
145.791
142.459
137.618
130.606
120.151
107.942
0.887031
0.867413
0.802255
0.713886
0.623918
0.54261
0.472901
0.414551
0.366171
0.325991
0.292205
0.263191
0.237552
0.21451
0.193256
0.173158
0.153821
0.13503
0.116717
0.0989596
0.0819579
0.0659812
0.0513076
0.0384117
0.0274073
0.0182761
0.0109837
0.00549556
0.00188656
-0.000393067
0.842289
0.820531
0.759484
0.67828
0.595762
0.520887
0.456364
0.402114
0.356941
0.319229
0.287305
0.259696
0.235292
0.213041
0.19228
0.172511
0.153357
0.134609
0.116228
0.0983259
0.0811347
0.0650099
0.0504152
0.0375817
0.026662
0.0176155
0.0104395
0.00502886
0.00168836
0.000491237
0.792639
0.766909
0.708464
0.634064
0.559701
0.492365
0.434224
0.385226
0.344292
0.309906
0.280513
0.25479
0.231721
0.210472
0.19043
0.171132
0.152242
0.133587
0.115166
0.0971346
0.0797773
0.0634956
0.0487718
0.035952
0.0251286
0.0161355
0.00879489
0.00362402
0.000846595
0.000614988
0.744619
0.714697
0.658006
0.589451
0.522749
0.462686
0.410837
0.367111
0.33049
0.299509
0.272697
0.248895
0.227231
0.20704
0.187784
0.169036
0.150487
0.132003
0.113632
0.0955676
0.0781286
0.0617514
0.0469918
0.0343104
0.0237149
0.0149261
0.00772351
0.00261998
-7.38443e-05
-0.000497996
0.710934
0.676805
0.62157
0.557165
0.496044
0.441127
0.393708
0.353722
0.320205
0.291674
0.266677
0.244232
0.223575
0.204158
0.185487
0.167169
0.148888
0.130555
0.112264
0.0942301
0.0767845
0.0603737
0.0456335
0.0331462
0.0227054
0.0138885
0.00653371
0.00171875
-0.000253371
-0.00067134
0.703289
0.663787
0.609224
0.546042
0.486881
0.433564
0.387484
0.348683
0.316224
0.288507
0.264049
0.242105
0.221742
0.202566
0.184082
0.165922
0.147695
0.129381
0.111125
0.093156
0.0757656
0.0593829
0.0447495
0.0326649
0.0229461
0.0145119
0.00707938
0.00135975
-0.0013178
-0.00111025
0.732491
0.684942
0.62801
0.561154
0.49831
0.441784
0.393168
0.352482
0.3187
0.290048
0.264859
0.242231
0.221426
0.201889
0.183127
0.164899
0.146584
0.128324
0.110325
0.0927636
0.0757495
0.0595003
0.0445647
0.0317688
0.0216266
0.0135481
0.00675128
0.00137765
-0.00155503
-0.00122246
0.804375
0.746273
0.678772
0.601462
0.5285
0.463725
0.408707
0.363209
0.326139
0.295567
0.268877
0.244653
0.222616
0.202174
0.182726
0.163616
0.144948
0.126543
0.108514
0.0910638
0.0743199
0.0584506
0.04389
0.0313054
0.0211973
0.0131277
0.00639657
0.000879493
-0.00238787
-0.00144871
0.918778
0.839942
0.752697
0.658043
0.570167
0.494183
0.430983
0.378699
0.335117
0.299126
0.269414
0.24412
0.221526
0.200708
0.18095
0.161722
0.142995
0.124804
0.10721
0.0901633
0.0735577
0.0575081
0.0425975
0.0297429
0.0196023
0.0118598
0.00555018
0.000113759
-0.00320091
-0.00164273
1.05478
0.942982
0.827172
0.71189
0.608388
0.518555
0.444722
0.386
0.33935
0.301255
0.26958
0.242787
0.219446
0.198301
0.178279
0.158782
0.139872
0.121863
0.104855
0.0884912
0.072234
0.0559606
0.0404047
0.0269595
0.0167327
0.00953628
0.00398848
-0.000986727
-0.0039849
-0.00180595
1.17268
1.02764
0.882201
0.742575
0.623125
0.525854
0.447388
0.385127
0.336235
0.297082
0.264792
0.237665
0.214482
0.19378
0.174002
0.154362
0.135258
0.117571
0.101546
0.0863235
0.0705995
0.0538304
0.0370303
0.0224557
0.0120694
0.00583467
0.00165252
-0.00231996
-0.00466324
-0.00192944
1.26364
1.06794
0.892003
0.735268
0.606864
0.506675
0.428863
0.368573
0.322056
0.285051
0.254107
0.22792
0.20606
0.186959
0.16816
0.148421
0.128819
0.111427
0.0969315
0.0836467
0.0688816
0.0513029
0.0323585
0.0157727
0.00502877
0.000383584
-0.00148367
-0.00375417
-0.00517925
-0.00200174
1.26615
1.00275
0.805737
0.651699
0.535168
0.449052
0.383266
0.332314
0.294136
0.263903
0.236834
0.212701
0.193397
0.177604
0.16097
0.141077
0.120214
0.102831
0.0906693
0.0806571
0.0676212
0.0488204
0.0263655
0.00635432
-0.00514331
-0.007249
-0.0053439
-0.00504654
-0.00546933
-0.00201349
1.01122
0.686626
0.550913
0.463488
0.391725
0.345527
0.308947
0.275688
0.252107
0.234328
0.213634
0.191532
0.175729
0.165959
0.153605
0.133266
0.109354
0.0910174
0.0823185
0.077821
0.0678524
0.0472362
0.0191679
-0.00653089
-0.0195306
-0.0176567
-0.00969514
-0.00572257
-0.0054266
-0.00195788
0.312741
-0.0691786
0.0295674
0.155868
0.169283
0.20387
0.218712
0.201903
0.193514
0.196998
0.187144
0.16526
0.152762
0.152937
0.148343
0.126356
0.0953893
0.0737626
0.0703305
0.0754162
0.0709998
0.0478041
0.0109946
-0.0239075
-0.0397638
-0.0317539
-0.0140675
-0.0048804
-0.0048464
-0.00183296
140.506
140.587
140.775
141.06
141.425
141.86
142.358
142.909
143.505
144.131
144.776
145.424
146.058
146.657
147.2
147.659
148.002
148.194
148.187
147.927
147.34
146.331
144.767
142.453
139.091
134.185
126.816
115.069
92.9209
33.1826
139.779
139.85
140.016
140.266
140.585
140.963
141.392
141.863
142.365
142.885
143.409
143.921
144.403
144.832
145.185
145.432
145.538
145.461
145.151
144.541
143.547
142.057
139.911
136.878
132.599
126.492
117.523
103.959
84.434
55.9689
139.01
139.071
139.214
139.427
139.699
140.018
140.376
140.764
141.171
141.582
141.983
142.358
142.686
142.944
143.107
143.142
143.013
142.673
142.067
141.124
139.753
137.833
135.2
131.623
126.777
120.206
111.321
99.4802
85.2325
68.5832
138.199
138.25
138.369
138.546
138.769
139.028
139.314
139.618
139.928
140.229
140.507
140.744
140.919
141.007
140.982
140.811
140.453
139.862
138.98
137.733
136.032
133.758
130.759
126.839
121.751
115.201
106.892
96.4905
83.9328
68.7783
137.349
137.39
137.484
137.624
137.798
137.996
138.21
138.429
138.642
138.834
138.989
139.089
139.113
139.036
138.829
138.459
137.886
137.063
135.931
134.42
132.445
129.899
126.653
122.551
117.412
111.035
103.221
93.7266
82.3829
69.3966
136.463
136.493
136.563
136.664
136.789
136.926
137.067
137.202
137.319
137.402
137.437
137.403
137.281
137.044
136.665
136.109
135.338
134.305
132.955
131.224
129.035
126.296
122.902
118.734
113.661
107.549
100.275
91.7392
81.9317
71.2651
135.542
135.561
135.606
135.671
135.745
135.822
135.891
135.943
135.965
135.943
135.86
135.698
135.435
135.048
134.507
133.781
132.831
131.615
130.083
128.176
125.828
122.966
119.506
115.363
110.448
104.682
98.0116
90.4246
81.9644
72.9669
134.589
134.599
134.619
134.646
134.672
134.689
134.688
134.658
134.588
134.464
134.268
133.984
133.589
133.061
132.373
131.493
130.387
129.016
127.335
125.295
122.841
119.915
116.457
112.405
107.708
102.326
96.2428
89.4806
82.0886
74.339
133.61
133.609
133.605
133.596
133.574
133.532
133.463
133.354
133.196
132.973
132.671
132.271
131.754
131.098
130.276
129.262
128.023
126.524
124.729
122.595
120.08
117.14
113.731
109.817
105.368
100.37
94.8272
88.7753
82.2674
75.5312
132.607
132.596
132.569
132.524
132.455
132.357
132.222
132.038
131.795
131.48
131.078
130.572
129.943
129.171
128.232
127.102
125.752
124.153
122.273
120.081
117.542
114.626
111.304
107.554
103.364
98.7344
93.6833
88.2498
82.4871
76.5801
131.585
131.564
131.515
131.435
131.322
131.17
130.971
130.716
130.394
129.993
129.498
128.895
128.165
127.291
126.251
125.024
123.585
121.91
119.975
117.752
115.22
112.356
109.144
105.572
101.641
97.3587
92.7495
87.8526
82.7159
77.488
130.549
130.519
130.448
130.335
130.18
129.977
129.719
129.397
129.001
128.52
127.942
127.251
126.432
125.469
124.344
123.037
121.53
119.802
117.833
115.606
113.103
110.312
107.224
103.836
100.154
96.1922
91.9765
87.5429
82.9334
78.2673
129.505
129.466
129.374
129.231
129.035
128.784
128.471
128.087
127.624
127.07
126.416
125.647
124.751
123.713
122.517
121.148
119.591
117.829
115.847
113.634
111.179
108.473
105.516
102.309
98.8633
95.1942
91.3268
87.2935
83.1302
78.9331
128.457
128.41
128.3
128.127
127.894
127.599
127.234
126.794
126.269
125.651
124.929
124.093
123.131
122.03
120.778
119.362
117.77
115.99
114.013
111.828
109.432
106.821
103.996
100.965
97.7379
94.333
90.7727
87.0855
83.3017
79.4991
127.413
127.359
127.23
127.03
126.763
126.427
126.016
125.524
124.944
124.269
123.489
122.595
121.577
120.425
119.13
117.681
116.068
114.285
112.323
110.179
107.849
105.336
102.642
99.7763
96.7513
93.5835
90.2936
86.906
83.4461
79.9774
126.379
126.317
126.172
125.948
125.65
125.276
124.823
124.286
123.657
122.931
122.101
121.158
120.095
118.904
117.577
116.106
114.485
112.708
110.772
108.675
106.417
104.001
101.434
98.723
95.882
92.9262
89.8738
86.7458
83.5637
80.379
125.361
125.293
125.133
124.887
124.56
124.153
123.663
123.085
122.414
121.645
120.773
119.79
118.691
117.47
116.12
114.637
113.017
111.256
109.353
107.308
105.123
102.803
100.354
97.7871
95.1128
92.3456
89.5018
86.5991
83.6556
80.7137
124.366
124.292
124.119
123.853
123.501
123.065
122.542
121.929
121.222
120.416
119.509
118.494
117.367
116.124
114.761
113.275
111.663
109.924
108.058
106.067
103.955
101.727
99.3902
96.954
94.4297
91.83
89.169
86.462
83.7241
80.9904
123.402
123.323
123.138
122.854
122.48
122.018
121.467
120.824
120.086
119.25
118.314
117.275
116.127
114.87
113.501
112.017
110.419
108.706
106.881
104.945
102.903
100.762
98.5286
96.2117
93.8217
91.3701
88.8692
86.3321
83.7717
81.217
122.476
122.392
122.197
121.897
121.504
121.02
120.444
119.776
119.012
118.153
117.194
116.136
114.974
113.709
112.339
110.864
109.283
107.6
105.815
103.933
101.959
99.8989
97.7599
95.5505
93.2802
90.9591
88.5982
86.2086
83.8014
81.4005
121.595
121.507
121.303
120.99
120.58
120.077
119.481
118.791
118.007
117.128
116.153
115.08
113.91
112.642
111.276
109.812
108.252
106.599
104.855
103.025
101.115
99.129
97.0757
94.9627
92.7983
90.5919
88.3529
86.0911
83.8159
81.5474
120.767
120.676
120.464
120.139
119.715
119.196
118.583
117.877
117.076
116.182
115.194
114.113
112.938
111.67
110.311
108.861
107.323
105.701
103.997
102.216
100.364
98.4461
96.4698
94.4422
92.3712
90.2649
88.1318
85.9803
83.8187
81.6636
120
119.906
119.687
119.353
118.917
118.385
117.758
117.038
116.224
115.319
114.322
113.235
112.059
110.795
109.444
108.01
106.495
104.902
103.236
101.5
99.7013
97.8447
95.9368
93.9845
91.995
89.9755
87.9336
85.8768
83.8124
81.7542
119.303
119.207
118.982
118.639
118.192
117.649
117.011
116.28
115.457
114.543
113.541
112.451
111.276
110.018
108.678
107.26
105.766
104.202
102.57
100.876
99.1244
97.3218
95.4738
93.587
91.6678
89.7229
87.7591
85.783
83.801
81.825
118.684
118.585
118.354
118.004
117.549
116.997
116.35
115.61
114.78
113.86
112.855
111.764
110.592
109.34
108.011
106.608
105.136
103.597
101.996
100.338
98.6291
96.8734
95.0771
93.2462
91.3869
89.5051
87.6071
85.6987
83.7858
81.8783
118.152
118.051
117.814
117.456
116.994
116.435
115.782
115.036
114.2
113.277
112.27
111.18
110.011
108.766
107.448
106.06
104.606
103.09
101.516
99.8903
98.2167
96.5008
94.7481
92.9642
91.1548
89.3255
87.4819
85.6296
83.7739
81.9231
117.718
117.612
117.369
117.003
116.534
115.969
115.31
114.559
113.719
112.794
111.786
110.699
109.534
108.296
106.987
105.612
104.174
102.677
101.127
99.5267
97.8825
96.1991
94.4817
92.7356
90.9662
89.1788
87.3786
85.5707
83.7598
81.953
117.392
117.281
117.028
116.656
116.182
115.612
114.949
114.195
113.352
112.426
111.418
110.332
109.172
107.939
106.639
105.274
103.849
102.368
100.836
99.2567
97.6357
95.9778
94.288
92.5714
90.8332
89.0783
87.3117
85.5383
83.7627
81.9911
117.19
117.055
116.785
116.407
115.931
115.359
114.693
113.937
113.094
112.167
111.16
110.077
108.919
107.691
106.397
105.04
103.624
102.155
100.635
99.0701
97.4649
95.8241
94.1527
92.4557
90.738
89.0045
87.2598
85.5086
83.7552
82.0047
117.171
116.973
116.675
116.29
115.811
115.236
114.567
113.809
112.965
112.039
111.033
109.95
108.796
107.571
106.282
104.93
103.521
102.059
100.548
98.9929
97.398
95.7683
94.1088
92.4242
90.7193
88.999
87.2678
85.5301
83.7904
82.0529
-50.5708
-30.3253
-11.1503
35.5987
28.1601
16.1391
51.0734
38.9844
27.7732
52.4997
42.0755
34.0313
56.8403
48.5512
41.7929
61.2287
54.319
48.4269
64.5032
58.6213
53.5719
67.1007
62.0755
57.7662
69.2905
64.958
61.249
71.139
67.3601
64.1331
72.6934
69.363
66.5262
74.003
71.0406
68.5223
75.1086
72.4509
70.1949
76.0422
73.6392
71.6015
76.8305
74.6423
72.7879
77.4953
75.4897
73.7904
78.055
76.2053
74.6381
78.5246
76.8089
75.3547
78.9173
77.317
75.9596
79.2439
77.7432
76.469
79.5142
78.0994
76.8966
79.7366
78.3958
77.2543
79.9179
78.6405
77.5513
80.0662
78.8428
77.7977
80.184
79.0058
77.9979
80.283
79.1421
78.1643
80.3545
79.2435
78.2904
80.4272
79.339
78.4031
80.4612
79.3892
78.4674
80.5302
79.4724
78.557
-2.80096
-2.69149
-1.2204
-0.0803242
-0.0484082
0.0452454
0.110188
0.0897381
0.10511
0.164414
0.174547
0.138549
0.119658
0.134245
0.146356
0.122034
0.0776022
0.0487438
0.0538603
0.0758063
0.081135
0.0535842
0.00265995
-0.0473577
-0.068736
-0.0513662
-0.0176748
-0.000741294
-0.0032189
-0.0016419
2.37208
-0.563893
1.02227
0.492551
-0.836146
-0.603556
0.0208162
0.067162
0.0822791
0.183576
0.168659
0.0745352
0.0415204
0.104915
0.168468
0.137665
0.0617742
0.0119428
0.0260665
0.0767774
0.0998461
0.0651531
-0.00774027
-0.0813729
-0.112252
-0.080115
-0.0190407
0.0103118
0.000767022
-0.00141867
13.5118
5.13986
2.35013
-0.0912163
-0.427693
0.954708
1.14192
-0.127181
-0.51152
-0.162885
0.186509
0.0843095
0.0270866
0.150505
0.236065
0.155521
0.0126672
-0.0765739
-0.0379064
0.0818397
0.147435
0.0981891
-0.00979542
-0.120921
-0.170685
-0.120197
-0.0151509
0.0350861
0.0103734
-0.00127646
23.2761
13.3969
7.52734
3.7565
2.01725
1.45134
0.274814
-0.401477
-0.0650384
1.10626
1.02951
-0.0521579
-0.442022
-0.248725
0.20222
0.248688
0.012352
-0.138779
-0.0610809
0.152268
0.23548
0.138439
-0.0274001
-0.197106
-0.280468
-0.203935
-0.00576887
0.0837364
0.0316346
-0.00156642
32.4462
22.6787
15.3598
10.0696
6.43597
3.96547
2.10694
1.10419
0.825946
0.837477
0.334261
-0.253652
-0.347231
0.511223
1.05001
0.485369
-0.122613
-0.471134
-0.430453
0.0245499
0.323328
0.218371
-0.018959
-0.256452
-0.374756
-0.228832
0.033481
0.172502
0.0727527
-0.00304863
40.4248
31.4959
23.608
17.1773
12.254
8.61317
5.9455
4.06745
2.79891
1.89946
1.13323
0.538792
0.301195
0.543252
0.547101
0.297072
-0.175693
-0.493697
-0.24042
0.580854
0.764965
0.286341
-0.0673498
-0.396731
-0.632461
-0.567557
-0.00167054
0.300015
0.137649
-0.00813239
46.936
39.1276
31.35
24.4595
18.8364
14.381
10.8631
8.11388
6.02165
4.451
3.23101
2.26919
1.62019
1.2839
1.00721
0.663906
0.188338
-0.126414
-0.0162389
0.353932
0.484867
0.293069
-0.040543
-0.423341
-0.68113
-0.406795
0.369703
0.568844
0.215518
-0.0211562
52.2388
45.505
38.2453
31.415
25.5337
20.5915
16.4552
13.0367
10.2697
8.05716
6.26943
4.82321
3.71533
2.91949
2.29697
1.69865
1.10718
0.6902
0.574577
0.656271
0.668038
0.453004
0.0807699
-0.29576
-0.496521
-0.291982
0.173666
0.406673
0.311101
-0.0621487
56.5645
50.7457
44.1596
37.6855
31.8686
26.7593
22.293
18.4346
15.1544
12.3963
10.0841
8.15854
6.58998
5.33725
4.30583
3.39892
2.60321
1.99114
1.61826
1.42024
1.21973
0.888263
0.469835
0.0916671
-0.109942
-0.024487
0.24946
0.401027
0.267764
-0.301067
60.0945
55.0254
49.1213
43.1359
37.5827
32.5396
27.9776
23.8922
20.285
17.1369
14.4109
12.068
10.0757
8.39528
6.96653
5.73058
4.66635
3.79436
3.13059
2.62808
2.17635
1.69172
1.19078
0.753831
0.470981
0.397392
0.460314
0.443093
0.179525
-0.516364
62.9937
58.5331
53.2519
47.7832
42.5875
37.7479
33.2518
29.1105
25.3451
21.9608
18.9455
16.2787
13.9378
11.8951
10.1136
8.55525
7.19752
6.03788
5.07263
4.2668
3.55343
2.87753
2.23762
1.6774
1.25053
0.980653
0.808931
0.587131
0.177967
-0.591974
65.3949
61.4304
56.6916
51.7124
46.8982
42.3277
37.9939
33.9139
30.1175
26.6231
23.4344
20.5453
17.9452
15.6182
13.5423
11.6934
10.0529
8.61027
7.35453
6.25948
5.28299
4.38763
3.56427
2.83256
2.21944
1.72979
1.31667
0.878967
0.314055
-0.521604
67.3978
63.8419
59.5664
55.0273
50.5814
46.2993
42.1749
38.2252
34.482
30.9698
27.7011
24.68
21.9049
19.3696
17.0629
14.9709
13.0802
11.38
9.85842
8.49576
7.26447
6.13865
5.1069
4.17421
3.34988
2.62865
1.97371
1.31594
0.583809
-0.330722
69.0778
65.8618
61.9801
57.8275
53.7201
49.7201
45.8199
42.0344
38.3938
34.9245
31.6433
28.56
25.6794
23.0022
20.5247
18.2405
16.1415
14.2193
12.4639
10.8612
9.39259
8.03986
6.79165
5.64501
4.59904
3.6438
2.75067
1.87249
0.961968
-0.0552619
70.4927
67.562
64.0154
60.1991
56.3952
52.6583
48.9794
45.3696
41.8566
38.4661
35.2165
32.1205
29.1869
26.4206
23.8234
21.3939
19.1284
17.0219
15.0673
13.2547
11.5718
10.0053
8.54507
7.18458
5.91787
4.73345
3.60909
2.51248
1.41304
0.264772
71.6878
68.9981
65.7376
62.2128
58.6777
55.1804
51.7103
48.2751
44.8991
41.6063
38.4151
35.3392
32.3895
29.5738
26.897
24.3614
21.9668
19.711
17.5901
15.5976
13.7251
11.9634
10.3036
8.73816
7.25922
5.85534
4.509
3.19749
1.90049
0.593775
72.6986
70.2135
67.1981
63.926
60.6274
57.3453
54.0676
50.7989
47.5601
44.373
41.2548
38.2196
35.2789
32.4421
29.7161
27.1056
24.6128
22.2382
19.9801
17.835
15.7975
13.8608
12.018
10.2615
8.58317
6.97236
5.41481
3.89356
2.39365
0.906043
73.5539
71.243
68.4381
65.385
62.2938
59.2034
56.1003
52.9866
49.8799
46.7995
43.7615
40.779
37.8637
35.0256
32.2728
29.6113
27.0453
24.577
22.2068
19.9332
17.7531
15.6618
13.6537
11.7222
9.85943
8.05562
6.29864
4.57463
2.8707
1.18707
74.2771
72.1147
69.4908
66.6275
63.7179
60.797
57.8508
54.8791
51.8965
48.9199
45.9637
43.0402
40.1605
37.3347
34.5713
31.8772
29.2577
26.7163
24.255
21.8738
19.5713
17.3444
15.1888
13.0987
11.067
9.08474
7.14089
5.22304
3.31837
1.43178
74.8875
72.852
70.3837
67.6848
64.9334
62.1619
59.3555
56.5122
53.644
50.7656
47.8898
45.0276
42.1894
39.3848
36.6224
33.9094
31.2519
28.6542
26.1193
23.6484
21.2414
18.8965
16.6102
14.3778
12.1927
10.0466
7.92907
5.82815
3.73015
1.64149
75.4013
73.474
71.1393
68.5825
65.9688
63.328
60.6453
57.9169
55.1528
52.3654
49.5661
46.7647
43.9705
41.1925
38.4392
35.7177
33.0342
30.3937
27.7999
25.2548
22.7591
20.3119
17.9108
15.5516
13.2283
10.933
8.65572
6.3842
4.10371
1.82037
75.8323
73.997
71.7769
69.3424
66.8477
64.3208
61.7465
59.12
56.4492
53.7449
51.0168
48.2736
45.5236
42.7752
40.0361
37.3133
34.6132
31.9409
29.3002
26.6941
24.1237
21.5887
19.0875
16.6163
14.1696
11.7399
9.31709
6.88881
4.43931
1.97337
76.1916
74.4342
72.3118
69.982
67.5897
65.161
62.681
60.1438
57.5556
54.9258
52.2626
49.5737
46.8664
44.1482
41.4263
38.7074
35.9975
33.3019
30.6246
27.9686
25.3357
22.7261
20.1383
17.5692
15.0136
12.464
9.91051
7.34039
4.7372
2.10394
76.4902
74.7982
72.7585
70.5177
68.2125
65.8678
63.4688
61.0088
58.4927
55.9284
53.3232
50.6836
48.016
45.3272
42.6238
39.9119
37.1973
34.4851
31.7794
29.0832
26.3987
23.7261
21.0645
18.4108
15.7602
13.1054
10.4363
7.73997
4.99958
2.21583
76.7343
75.0966
73.1259
70.9596
68.7276
66.4536
64.1231
61.7288
59.2743
56.7666
54.2119
51.6159
48.9841
46.3227
43.6374
40.9342
38.2183
35.4945
32.767
30.0388
27.312
24.5872
21.8634
19.138
16.4061
13.6604
10.8909
8.08464
5.22439
2.30864
76.9356
75.3421
73.4281
71.3231
69.1512
66.9355
64.6617
62.3219
59.919
57.4589
54.947
52.3883
49.7877
47.1506
44.4822
41.788
39.0728
36.3413
33.5974
30.8442
28.0835
25.3161
22.5412
19.7562
16.9561
14.134
11.2796
8.37977
5.41728
2.38752
77.0909
75.5323
73.663
71.6067
69.4826
67.3134
65.0848
62.7887
60.4271
58.0054
55.5284
53.0002
50.4254
47.8086
45.1548
42.4689
39.7555
37.0189
34.2629
31.4904
28.7033
25.9024
23.0867
20.2538
17.3988
14.5145
11.5909
8.61452
5.56833
2.44544
77.2225
75.6896
73.8544
71.8349
69.747
67.6128
65.4185
63.1556
60.8256
58.4333
55.9829
53.4783
50.9234
48.3226
45.6804
43.0013
40.2898
37.5499
34.7852
31.9984
29.1916
26.3652
23.5186
20.6491
17.7518
14.8196
11.8422
8.80601
5.69383
2.49498
77.3035
75.7867
73.9739
71.9794
69.9159
67.8052
65.6338
63.3931
61.0843
58.7117
56.2793
53.7906
51.2492
48.6593
46.025
43.3508
40.6408
37.8989
35.1285
32.3324
29.5124
26.6691
23.8017
20.9074
17.9815
15.0166
12.0022
8.92449
5.76615
2.51489
77.3924
75.8767
74.0761
72.0967
70.0468
67.9487
65.7895
63.5605
61.2627
58.9002
56.4768
53.9959
51.461
48.876
46.245
43.5723
40.862
38.1179
35.3434
32.5412
29.7131
26.8598
23.9802
21.0718
18.1297
15.1464
12.1111
9.00906
5.82045
2.52134
)
;

boundaryField
{
    inlet
    {
        type            zeroGradient;
    }
    outlet
    {
        type            fixedValue;
        value           uniform 0;
    }
    flap
    {
        type            zeroGradient;
    }
    upperWall
    {
        type            zeroGradient;
    }
    lowerWall
    {
        type            zeroGradient;
    }
    frontAndBack
    {
        type            empty;
    }
}


// ************************************************************************* //
