/*--------------------------------*- C++ -*----------------------------------*\
  =========                 |
  \\      /  F ield         | OpenFOAM: The Open Source CFD Toolbox
   \\    /   O peration     | Website:  https://openfoam.org
    \\  /    A nd           | Version:  dev
     \\/     M anipulation  |
\*---------------------------------------------------------------------------*/
FoamFile
{
    version     2.0;
    format      ascii;
    class       volVectorField;
    location    "6.1";
    object      U;
}
// * * * * * * * * * * * * * * * * * * * * * * * * * * * * * * * * * * * * * //

dimensions      [0 1 -1 0 0 0 0];

internalField   nonuniform List<vector> 
2790
(
(9.94399 0 0.0205231)
(9.87572 0 0.0295875)
(9.77521 0 0.0359892)
(9.64944 0 0.0425558)
(9.50409 0 0.0493851)
(9.34007 0 0.056428)
(9.15655 0 0.0638156)
(8.95263 0 0.0717114)
(8.72748 0 0.0802551)
(8.4801 0 0.0895736)
(8.20929 0 0.0997939)
(7.91366 0 0.111046)
(7.5917 0 0.123462)
(7.24179 0 0.137167)
(6.86234 0 0.152275)
(6.4518 0 0.168874)
(6.00888 0 0.187002)
(5.53268 0 0.206624)
(5.02296 0 0.227596)
(4.48044 0 0.249618)
(3.90714 0 0.272183)
(3.30681 0 0.294532)
(2.68527 0 0.315626)
(2.0506 0 0.334294)
(1.41178 0 0.350611)
(0.798019 0 0.372889)
(0.110683 0 0.32505)
(-0.469563 0 -0.114865)
(-0.45378 0 -0.297148)
(-0.231163 0 -0.423856)
(9.9985 0 0.0407027)
(9.98146 0 0.0623822)
(9.93575 0 0.0791393)
(9.86417 0 0.0966238)
(9.77098 0 0.115123)
(9.65716 0 0.134487)
(9.52207 0 0.154974)
(9.36486 0 0.176942)
(9.18473 0 0.200707)
(8.98069 0 0.226549)
(8.75154 0 0.254745)
(8.4959 0 0.285562)
(8.21222 0 0.319252)
(7.89884 0 0.356027)
(7.55406 0 0.396026)
(7.17621 0 0.43927)
(6.7638 0 0.485602)
(6.31567 0 0.534598)
(5.83126 0 0.585473)
(5.31088 0 0.636966)
(4.75615 0 0.687216)
(4.17041 0 0.733658)
(3.55929 0 0.772963)
(2.93154 0 0.801101)
(2.29994 0 0.813755)
(1.69295 0 0.807258)
(1.10715 0 0.747253)
(0.65889 0 0.547929)
(0.186437 0 0.224609)
(-0.00819866 0 -0.453733)
(9.99559 0 0.0432065)
(9.97556 0 0.0752707)
(9.9318 0 0.103345)
(9.8649 0 0.132369)
(9.77779 0 0.163057)
(9.67156 0 0.195396)
(9.54589 0 0.22974)
(9.40015 0 0.266601)
(9.23367 0 0.306468)
(9.04565 0 0.349806)
(8.8351 0 0.397072)
(8.60083 0 0.448723)
(8.34147 0 0.505195)
(8.05552 0 0.566868)
(7.74139 0 0.634017)
(7.39746 0 0.706739)
(7.02212 0 0.784847)
(6.61396 0 0.867735)
(6.17194 0 0.954207)
(5.69564 0 1.04227)
(5.18563 0 1.1289)
(4.64396 0 1.2098)
(4.07479 0 1.27917)
(3.48537 0 1.32934)
(2.88684 0 1.3501)
(2.29946 0 1.32643)
(1.73184 0 1.22078)
(1.21625 0 0.973008)
(0.701142 0 0.570148)
(0.358038 0 -0.156561)
(9.99403 0 0.0494986)
(9.97181 0 0.093205)
(9.92788 0 0.13357)
(9.86225 0 0.174207)
(9.77694 0 0.216431)
(9.67299 0 0.260658)
(9.55032 0 0.307427)
(9.4085 0 0.357412)
(9.24704 0 0.411288)
(9.06535 0 0.469703)
(8.8627 0 0.533301)
(8.63821 0 0.602724)
(8.39086 0 0.678594)
(8.11954 0 0.761478)
(7.82302 0 0.851826)
(7.50002 0 0.949882)
(7.14926 0 1.05556)
(6.76945 0 1.16825)
(6.3595 0 1.28662)
(5.9186 0 1.40828)
(5.44653 0 1.52948)
(4.944 0 1.6447)
(4.41316 0 1.74615)
(3.85826 0 1.82323)
(3.28581 0 1.86137)
(2.70639 0 1.84033)
(2.12564 0 1.72601)
(1.55425 0 1.47787)
(0.957946 0 1.0837)
(0.509424 0 0.502323)
(9.99331 0 0.0572127)
(9.96994 0 0.110957)
(9.92593 0 0.162102)
(9.86146 0 0.213345)
(9.77799 0 0.266353)
(9.67636 0 0.32191)
(9.55655 0 0.380698)
(9.41823 0 0.443484)
(9.26098 0 0.511053)
(9.08435 0 0.584167)
(8.88772 0 0.663586)
(8.6704 0 0.750063)
(8.43161 0 0.844336)
(8.17047 0 0.947087)
(7.88609 0 1.05888)
(7.57749 0 1.18008)
(7.24368 0 1.31069)
(6.88362 0 1.45019)
(6.49629 0 1.59723)
(6.08073 0 1.74934)
(5.63616 0 1.90242)
(5.16211 0 2.05033)
(4.65877 0 2.18419)
(4.1272 0 2.29175)
(3.56939 0 2.35657)
(2.98888 0 2.35733)
(2.38682 0 2.26496)
(1.76638 0 2.04764)
(1.08999 0 1.6914)
(0.536649 0 1.15414)
(9.99302 0 0.0655376)
(9.96923 0 0.1287)
(9.92556 0 0.190111)
(9.86253 0 0.25184)
(9.78129 0 0.315574)
(9.68245 0 0.382314)
(9.56602 0 0.45287)
(9.43172 0 0.528096)
(9.27922 0 0.608875)
(9.10807 0 0.69608)
(8.91779 0 0.790576)
(8.70776 0 0.893223)
(8.4773 0 1.00486)
(8.22569 0 1.12626)
(7.95216 0 1.25809)
(7.6559 0 1.40082)
(7.33604 0 1.55455)
(6.99165 0 1.71887)
(6.62169 0 1.89257)
(6.22501 0 2.07324)
(5.80028 0 2.25686)
(5.34604 0 2.43722)
(4.8607 0 2.60521)
(4.34269 0 2.74823)
(3.79038 0 2.84955)
(3.20256 0 2.8882)
(2.57655 0 2.83823)
(1.91345 0 2.67161)
(1.17274 0 2.37399)
(0.549963 0 1.89439)
(9.99297 0 0.0740736)
(9.96927 0 0.146311)
(9.92637 0 0.21748)
(9.86509 0 0.289287)
(9.78643 0 0.36335)
(9.69085 0 0.440821)
(9.57836 0 0.522654)
(9.44872 0 0.609805)
(9.30166 0 0.703249)
(9.13679 0 0.80396)
(8.95366 0 0.912896)
(8.75172 0 1.03101)
(8.53035 0 1.15922)
(8.28889 0 1.2984)
(8.02661 0 1.4493)
(7.7427 0 1.61249)
(7.43631 0 1.7882)
(7.10641 0 1.97618)
(6.75181 0 2.17542)
(6.37101 0 2.38383)
(5.9621 0 2.59776)
(5.52263 0 2.8114)
(5.04951 0 3.01617)
(4.53899 0 3.19998)
(3.98664 0 3.34669)
(3.38788 0 3.43597)
(2.73722 0 3.44331)
(2.03622 0 3.34149)
(1.24173 0 3.11356)
(0.563506 0 2.69313)
(9.99306 0 0.0825865)
(9.96981 0 0.163603)
(9.92807 0 0.244046)
(9.86885 0 0.325474)
(9.79313 0 0.40944)
(9.70127 0 0.497199)
(9.59324 0 0.589831)
(9.46889 0 0.688388)
(9.32797 0 0.793933)
(9.17016 0 0.907523)
(8.99504 0 1.03021)
(8.80212 0 1.16303)
(8.59083 0 1.30701)
(8.36053 0 1.46309)
(8.11047 0 1.63215)
(7.83982 0 1.81488)
(7.54762 0 2.01168)
(7.23268 0 2.22253)
(6.89351 0 2.44675)
(6.52817 0 2.68271)
(6.13409 0 2.92738)
(5.70784 0 3.17579)
(5.24495 0 3.42038)
(4.73976 0 3.65021)
(4.18545 0 3.85025)
(3.57472 0 4.00089)
(2.89948 0 4.0779)
(2.16207 0 4.05236)
(1.31609 0 3.90167)
(0.583206 0 3.54012)
(9.99326 0 0.0909265)
(9.97072 0 0.180405)
(9.93046 0 0.269663)
(9.87362 0 0.360235)
(9.80118 0 0.453639)
(9.71344 0 0.551201)
(9.61039 0 0.654103)
(9.4919 0 0.763487)
(9.35777 0 0.880496)
(9.20775 0 1.00627)
(9.04147 0 1.14195)
(8.8585 0 1.28866)
(8.65829 0 1.44752)
(8.44024 0 1.61959)
(8.20359 0 1.80587)
(7.94748 0 2.00721)
(7.6708 0 2.22426)
(7.37218 0 2.45729)
(7.04981 0 2.70607)
(6.70128 0 2.96959)
(6.32335 0 3.24569)
(5.91164 0 3.53056)
(5.46034 0 3.81809)
(4.96198 0 4.09901)
(4.40737 0 4.35988)
(3.78635 0 4.58211)
(3.08751 0 4.74107)
(2.31265 0 4.80443)
(1.4106 0 4.74104)
(0.614287 0 4.44187)
(9.99352 0 0.0989902)
(9.97191 0 0.196575)
(9.93341 0 0.294189)
(9.87925 0 0.393409)
(9.81041 0 0.495747)
(9.72717 0 0.602579)
(9.62954 0 0.715172)
(9.51743 0 0.834751)
(9.3907 0 0.962534)
(9.24915 0 1.09974)
(9.09247 0 1.24758)
(8.9203 0 1.40729)
(8.73215 0 1.58006)
(8.52745 0 1.7671)
(8.30546 0 1.96956)
(8.06528 0 2.18849)
(7.80575 0 2.42481)
(7.52532 0 2.67919)
(7.22193 0 2.95195)
(6.89277 0 3.24285)
(6.53403 0 3.55082)
(6.14046 0 3.87353)
(5.70502 0 4.20674)
(5.21844 0 4.54342)
(4.66893 0 4.87246)
(4.04279 0 5.17698)
(3.3236 0 5.4323)
(2.50967 0 5.60193)
(1.5418 0 5.64343)
(0.664021 0 5.41795)
(9.99384 0 0.106702)
(9.9733 0 0.211995)
(9.9368 0 0.317496)
(9.88558 0 0.424847)
(9.82064 0 0.535579)
(9.74226 0 0.651109)
(9.65046 0 0.772775)
(9.54519 0 0.901872)
(9.42639 0 1.03969)
(9.29392 0 1.18751)
(9.14755 0 1.34662)
(8.98697 0 1.51834)
(8.81178 0 1.70398)
(8.62146 0 1.90487)
(8.41535 0 2.12231)
(8.19255 0 2.3576)
(7.95191 0 2.61198)
(7.69181 0 2.88656)
(7.41007 0 3.18231)
(7.10365 0 3.4999)
(6.76834 0 3.83952)
(6.39832 0 4.20059)
(5.98552 0 4.58124)
(5.51902 0 4.97738)
(4.98429 0 5.38136)
(4.36315 0 5.77958)
(3.63176 0 6.14913)
(2.77998 0 6.45061)
(1.73333 0 6.6284)
(0.744773 0 6.50294)
(9.9942 0 0.114003)
(9.97487 0 0.22657)
(9.94056 0 0.339466)
(9.89252 0 0.454414)
(9.83174 0 0.572972)
(9.75852 0 0.696596)
(9.6729 0 0.826679)
(9.5749 0 0.964578)
(9.4645 0 1.11164)
(9.34164 0 1.2692)
(9.20618 0 1.43864)
(9.05789 0 1.62132)
(8.89647 0 1.81868)
(8.7215 0 2.03215)
(8.53241 0 2.26323)
(8.3284 0 2.51345)
(8.10838 0 2.78436)
(7.87084 0 3.07759)
(7.61363 0 3.39476)
(7.33374 0 3.73753)
(7.02691 0 4.10751)
(6.68712 0 4.50609)
(6.30583 0 4.93418)
(5.871 0 5.39152)
(5.36565 0 5.87542)
(4.76672 0 6.37829)
(4.0405 0 6.88322)
(3.16123 0 7.35344)
(2.02455 0 7.72305)
(0.880626 0 7.75684)
(9.99459 0 0.12085)
(9.97657 0 0.240219)
(9.94462 0 0.359999)
(9.89996 0 0.48199)
(9.84357 0 0.607783)
(9.77576 0 0.738868)
(9.69663 0 0.876681)
(9.60625 0 1.02263)
(9.50466 0 1.1781)
(9.39187 0 1.3445)
(9.26784 0 1.52324)
(9.13245 0 1.71577)
(8.98551 0 1.9236)
(8.82672 0 2.14829)
(8.65567 0 2.39148)
(8.47171 0 2.65494)
(8.27396 0 2.94055)
(8.06111 0 3.25037)
(7.83129 0 3.58673)
(7.5818 0 3.95223)
(7.30878 0 4.34991)
(7.00661 0 4.78324)
(6.66714 0 5.2562)
(6.27835 0 5.77306)
(5.82228 0 6.3378)
(5.27223 0 6.9525)
(4.58421 0 7.61367)
(3.70959 0 8.30086)
(2.48783 0 8.958)
(1.12427 0 9.2928)
(9.99501 0 0.127207)
(9.97838 0 0.252878)
(9.94891 0 0.379012)
(9.9078 0 0.507475)
(9.85599 0 0.639893)
(9.79383 0 0.777785)
(9.72144 0 0.92262)
(9.63895 0 1.07584)
(9.54649 0 1.23887)
(9.44415 0 1.41315)
(9.33198 0 1.60014)
(9.20998 0 1.80134)
(9.07809 0 2.01832)
(8.93619 0 2.25274)
(8.78402 0 2.50638)
(8.62121 0 2.78118)
(8.44713 0 3.07931)
(8.26085 0 3.40322)
(8.06098 0 3.75582)
(7.84546 0 4.14057)
(7.61129 0 4.56177)
(7.35403 0 5.02482)
(7.06705 0 5.53667)
(6.74025 0 6.10631)
(6.35768 0 6.74543)
(5.89373 0 7.46909)
(5.30032 0 8.29644)
(4.50828 0 9.24796)
(3.26821 0 10.3416)
(1.6046 0 11.3584)
(9.99545 0 0.133047)
(9.98027 0 0.264497)
(9.95339 0 0.396432)
(9.91596 0 0.530775)
(9.86889 0 0.669183)
(9.81254 0 0.813194)
(9.74709 0 0.964301)
(9.67273 0 1.12397)
(9.58965 0 1.29366)
(9.49804 0 1.47482)
(9.39805 0 1.66893)
(9.28981 0 1.87755)
(9.17341 0 2.10227)
(9.04891 0 2.34483)
(8.91628 0 2.60709)
(8.77544 0 2.89112)
(8.62611 0 3.19929)
(8.46787 0 3.53435)
(8.29998 0 3.8996)
(8.12131 0 4.29914)
(7.93013 0 4.7382)
(7.72391 0 5.22361)
(7.49879 0 5.7646)
(7.24887 0 6.37397)
(6.96466 0 7.07018)
(6.63062 0 7.88104)
(6.21392 0 8.85196)
(5.66513 0 10.0659)
(4.6892 0 11.7307)
(2.68663 0 14.5907)
(0.116819 0 -0.115494)
(0.273719 0 -0.10355)
(0.431312 0 -0.0798822)
(0.560465 0 -0.0575811)
(0.656899 0 -0.0393706)
(0.725687 0 -0.0252405)
(0.773186 0 -0.0145979)
(0.804736 0 -0.00682417)
(0.824521 0 -0.00136173)
(0.835874 0 0.00228564)
(0.841466 0 0.00454953)
(0.843392 0 0.00578696)
(0.843248 0 0.00625637)
(0.842186 0 0.00615774)
(0.841015 0 0.00573526)
(0.84035 0 0.005139)
(0.840549 0 0.00450914)
(0.84164 0 0.00396315)
(0.8434 0 0.00359246)
(0.845385 0 0.00346742)
(0.847016 0 0.00362333)
(0.847673 0 0.0040035)
(0.84702 0 0.00442982)
(0.844693 0 0.00486502)
(0.840545 0 0.00525394)
(0.834563 0 0.00557305)
(0.826816 0 0.00578695)
(0.817362 0 0.00591498)
(0.806556 0 0.00573966)
(0.7939 0 0.0043826)
(0.101115 0 -0.273482)
(0.255487 0 -0.253122)
(0.404169 0 -0.202268)
(0.52914 0 -0.153042)
(0.62733 0 -0.112494)
(0.703313 0 -0.0808201)
(0.762422 0 -0.0567614)
(0.808985 0 -0.0389616)
(0.846308 0 -0.026188)
(0.876944 0 -0.017339)
(0.902859 0 -0.0114572)
(0.925508 0 -0.00776164)
(0.94593 0 -0.00566898)
(0.964886 0 -0.0047371)
(0.982981 0 -0.00457024)
(1.0006 0 -0.00486649)
(1.01798 0 -0.00535213)
(1.03528 0 -0.00579201)
(1.05253 0 -0.00599206)
(1.06967 0 -0.00580751)
(1.08654 0 -0.00516181)
(1.10288 0 -0.00408788)
(1.11819 0 -0.00273136)
(1.13221 0 -0.00121258)
(1.14478 0 0.000342583)
(1.15585 0 0.00190114)
(1.16543 0 0.00353096)
(1.173 0 0.00492972)
(1.17865 0 0.00568803)
(1.18416 0 0.00474689)
(0.0809323 0 -0.433665)
(0.215271 0 -0.400949)
(0.335 0 -0.322847)
(0.435309 0 -0.247782)
(0.513647 0 -0.186298)
(0.574598 0 -0.138376)
(0.622547 0 -0.101994)
(0.66088 0 -0.0750417)
(0.692188 0 -0.0556203)
(0.718489 0 -0.0420286)
(0.741313 0 -0.0327809)
(0.761743 0 -0.0266782)
(0.780492 0 -0.02282)
(0.798054 0 -0.020551)
(0.814789 0 -0.0193951)
(0.830955 0 -0.0189404)
(0.846731 0 -0.0188344)
(0.862226 0 -0.0187663)
(0.877482 0 -0.0184808)
(0.892481 0 -0.0177972)
(0.907158 0 -0.0166211)
(0.92141 0 -0.0149356)
(0.935142 0 -0.0128172)
(0.948297 0 -0.0105243)
(0.9609 0 -0.00825749)
(0.973074 0 -0.00604685)
(0.984757 0 -0.00373847)
(0.996344 0 -0.00162603)
(1.00721 0 -5.97217e-05)
(1.01846 0 0.000828908)
(0.0612673 0 -0.562071)
(0.169642 0 -0.51225)
(0.253497 0 -0.409604)
(0.324505 0 -0.31389)
(0.378116 0 -0.236728)
(0.41957 0 -0.177042)
(0.452028 0 -0.131935)
(0.477752 0 -0.0986025)
(0.498504 0 -0.0746321)
(0.5157 0 -0.0578593)
(0.530416 0 -0.0463696)
(0.543355 0 -0.0386291)
(0.554855 0 -0.0335465)
(0.565127 0 -0.0303615)
(0.574363 0 -0.0285013)
(0.582727 0 -0.0274914)
(0.590352 0 -0.026918)
(0.597337 0 -0.0264256)
(0.603764 0 -0.0257329)
(0.609688 0 -0.0246447)
(0.615138 0 -0.0230484)
(0.620113 0 -0.0209088)
(0.624598 0 -0.018333)
(0.628602 0 -0.0156871)
(0.632215 0 -0.0131842)
(0.635615 0 -0.0107283)
(0.63889 0 -0.00815816)
(0.642065 0 -0.0059161)
(0.644309 0 -0.00461384)
(0.646917 0 -0.00286303)
(0.0408044 0 -0.660101)
(0.11772 0 -0.588779)
(0.160104 0 -0.465108)
(0.199793 0 -0.354921)
(0.22586 0 -0.267574)
(0.24538 0 -0.200526)
(0.259716 0 -0.150037)
(0.269972 0 -0.112725)
(0.277036 0 -0.0858904)
(0.281762 0 -0.0670735)
(0.284849 0 -0.0540651)
(0.286697 0 -0.0450176)
(0.287187 0 -0.0387092)
(0.286306 0 -0.0344149)
(0.284166 0 -0.0315603)
(0.280901 0 -0.0296787)
(0.276657 0 -0.0283445)
(0.271607 0 -0.0272)
(0.265946 0 -0.025971)
(0.259844 0 -0.0244674)
(0.253405 0 -0.022546)
(0.246643 0 -0.0201058)
(0.23953 0 -0.0172276)
(0.232095 0 -0.0144775)
(0.224285 0 -0.0125052)
(0.216052 0 -0.0109731)
(0.207362 0 -0.00877164)
(0.200463 0 -0.0050199)
(0.188014 0 -0.00102566)
(0.170604 0 0.00103618)
(0.0188132 0 -0.722278)
(0.0586538 0 -0.62605)
(0.0555488 0 -0.485364)
(0.0622648 0 -0.366883)
(0.0582552 0 -0.27385)
(0.0532792 0 -0.202933)
(0.0463583 0 -0.149648)
(0.0377494 0 -0.110193)
(0.0275535 0 -0.081919)
(0.0162276 0 -0.0622598)
(0.00432412 0 -0.0484627)
(-0.00825641 0 -0.0386564)
(-0.0218807 0 -0.0316664)
(-0.0365317 0 -0.0267574)
(-0.0520026 0 -0.0234124)
(-0.0680979 0 -0.0212489)
(-0.0845842 0 -0.0198587)
(-0.101205 0 -0.0188655)
(-0.117801 0 -0.0179644)
(-0.134369 0 -0.0169138)
(-0.151082 0 -0.0154586)
(-0.168222 0 -0.0132418)
(-0.185948 0 -0.00995508)
(-0.204427 0 -0.00580699)
(-0.226247 0 -0.00208072)
(-0.249874 0 0.00031891)
(-0.272426 0 0.00254467)
(-0.290592 0 0.00587262)
(-0.299998 0 0.00797405)
(-0.307114 0 0.00670009)
(-0.00643656 0 -0.741155)
(-0.00967025 0 -0.617783)
(-0.059373 0 -0.466199)
(-0.0897157 0 -0.346525)
(-0.126056 0 -0.253409)
(-0.159398 0 -0.18336)
(-0.191212 0 -0.131069)
(-0.221746 0 -0.0926171)
(-0.251523 0 -0.0655866)
(-0.280378 0 -0.0473037)
(-0.307865 0 -0.0343364)
(-0.333982 0 -0.0246448)
(-0.359193 0 -0.0177319)
(-0.383679 0 -0.0130393)
(-0.407656 0 -0.0100208)
(-0.431454 0 -0.00813767)
(-0.45519 0 -0.00693859)
(-0.479003 0 -0.00586236)
(-0.503376 0 -0.0043798)
(-0.528871 0 -0.0023309)
(-0.555568 0 7.25157e-05)
(-0.582502 0 0.00262566)
(-0.607796 0 0.00533946)
(-0.62906 0 0.00807336)
(-0.644577 0 0.00995653)
(-0.657634 0 0.0104528)
(-0.66963 0 0.0102525)
(-0.680277 0 0.0102357)
(-0.688809 0 0.0101207)
(-0.693865 0 0.00910498)
(-0.0383379 0 -0.707878)
(-0.0896716 0 -0.561357)
(-0.185341 0 -0.409723)
(-0.258796 0 -0.294551)
(-0.330545 0 -0.207276)
(-0.394921 0 -0.143121)
(-0.452092 0 -0.0960266)
(-0.502993 0 -0.0608254)
(-0.549791 0 -0.0347999)
(-0.594931 0 -0.0168551)
(-0.63964 0 -0.00541211)
(-0.678607 0 0.00135064)
(-0.71311 0 0.00557711)
(-0.744184 0 0.00826631)
(-0.772799 0 0.00993511)
(-0.799591 0 0.0109143)
(-0.82501 0 0.0114123)
(-0.849016 0 0.0117844)
(-0.871201 0 0.0124114)
(-0.891436 0 0.013411)
(-0.910226 0 0.0145572)
(-0.928282 0 0.0155045)
(-0.945701 0 0.0160561)
(-0.961858 0 0.0162189)
(-0.975918 0 0.0160861)
(-0.98777 0 0.0157273)
(-0.997929 0 0.0153054)
(-1.00679 0 0.014954)
(-1.01399 0 0.0143056)
(-1.0178 0 0.0131738)
(-0.0779012 0 -0.618597)
(-0.180425 0 -0.454407)
(-0.329239 0 -0.308797)
(-0.451293 0 -0.203922)
(-0.563434 0 -0.128065)
(-0.662792 0 -0.0731884)
(-0.749551 0 -0.034431)
(-0.824303 0 -0.00773932)
(-0.882154 0 0.00913186)
(-0.927246 0 0.0194664)
(-0.962572 0 0.0248558)
(-0.994149 0 0.0272902)
(-1.02257 0 0.0281933)
(-1.04858 0 0.0283202)
(-1.07278 0 0.0280027)
(-1.09565 0 0.0272662)
(-1.11742 0 0.0261431)
(-1.13806 0 0.0248507)
(-1.15748 0 0.0238703)
(-1.1758 0 0.023664)
(-1.19339 0 0.0242455)
(-1.21058 0 0.0250796)
(-1.22729 0 0.0254254)
(-1.24284 0 0.0248063)
(-1.25632 0 0.0232933)
(-1.26734 0 0.021366)
(-1.27631 0 0.0196762)
(-1.2839 0 0.0185039)
(-1.29 0 0.0175033)
(-1.29302 0 0.0165849)
(-0.129912 0 -0.468694)
(-0.290783 0 -0.295774)
(-0.49788 0 -0.165979)
(-0.66982 0 -0.0763106)
(-0.816073 0 -0.0167953)
(-0.927429 0 0.0158925)
(-1.01242 0 0.0337975)
(-1.07633 0 0.0426232)
(-1.12883 0 0.0470052)
(-1.17239 0 0.0489408)
(-1.2094 0 0.0494141)
(-1.24149 0 0.0487047)
(-1.26974 0 0.0471397)
(-1.29511 0 0.0453138)
(-1.31849 0 0.0435756)
(-1.34058 0 0.0418414)
(-1.36162 0 0.0398737)
(-1.38149 0 0.0377038)
(-1.40002 0 0.0358043)
(-1.41739 0 0.0347515)
(-1.43413 0 0.0346603)
(-1.45072 0 0.034943)
(-1.46708 0 0.0346185)
(-1.48238 0 0.0329462)
(-1.49548 0 0.0299636)
(-1.50579 0 0.0264873)
(-1.51371 0 0.0235578)
(-1.52019 0 0.0216259)
(-1.52535 0 0.020395)
(-1.52778 0 0.019665)
(-0.205425 0 -0.265019)
(-0.445302 0 -0.0696108)
(-0.699374 0 0.0401646)
(-0.882237 0 0.0829124)
(-1.02036 0 0.0958503)
(-1.12974 0 0.0984799)
(-1.21585 0 0.0963199)
(-1.28425 0 0.0920582)
(-1.33911 0 0.0868654)
(-1.38381 0 0.0815292)
(-1.42123 0 0.0764899)
(-1.45328 0 0.0716112)
(-1.48112 0 0.0668556)
(-1.50576 0 0.0626421)
(-1.52834 0 0.05927)
(-1.54978 0 0.056409)
(-1.57031 0 0.0534011)
(-1.58954 0 0.0500341)
(-1.6071 0 0.0469094)
(-1.62326 0 0.0449321)
(-1.6389 0 0.0443829)
(-1.65481 0 0.0444684)
(-1.671 0 0.0437404)
(-1.68634 0 0.0410531)
(-1.69927 0 0.0364237)
(-1.70889 0 0.0311384)
(-1.71569 0 0.0268318)
(-1.72101 0 0.0242207)
(-1.72524 0 0.0229058)
(-1.72719 0 0.0223683)
(-0.297498 0 0.121644)
(-0.574163 0 0.23463)
(-0.85005 0 0.247738)
(-1.04964 0 0.234283)
(-1.20171 0 0.210943)
(-1.31705 0 0.185924)
(-1.40504 0 0.163045)
(-1.47331 0 0.143339)
(-1.52697 0 0.126699)
(-1.57005 0 0.113286)
(-1.60593 0 0.102741)
(-1.63669 0 0.0938368)
(-1.66323 0 0.0858052)
(-1.68633 0 0.0790723)
(-1.70741 0 0.0741566)
(-1.72781 0 0.0704496)
(-1.74772 0 0.0666007)
(-1.76629 0 0.0619579)
(-1.78268 0 0.0573467)
(-1.79723 0 0.0542932)
(-1.81137 0 0.0534335)
(-1.82649 0 0.0536881)
(-1.8427 0 0.0528967)
(-1.85847 0 0.0492812)
(-1.8715 0 0.0427771)
(-1.8804 0 0.0353078)
(-1.88584 0 0.0294169)
(-1.88974 0 0.0262249)
(-1.89297 0 0.0250005)
(-1.89449 0 0.0246634)
(-0.361403 0 0.543179)
(-0.701142 0 0.566723)
(-1.02492 0 0.485629)
(-1.23977 0 0.402407)
(-1.3931 0 0.33201)
(-1.50373 0 0.272964)
(-1.58536 0 0.227076)
(-1.64775 0 0.192001)
(-1.69613 0 0.164102)
(-1.73433 0 0.142747)
(-1.76639 0 0.127255)
(-1.79459 0 0.114852)
(-1.81897 0 0.103485)
(-1.8396 0 0.0939382)
(-1.85828 0 0.087579)
(-1.87713 0 0.0835461)
(-1.89644 0 0.0792757)
(-1.91446 0 0.0732892)
(-1.92949 0 0.0667935)
(-1.94187 0 0.062443)
(-1.95395 0 0.0615491)
(-1.96809 0 0.0625858)
(-1.98463 0 0.0622733)
(-2.00137 0 0.05787)
(-2.01487 0 0.049136)
(-2.02296 0 0.038893)
(-2.02656 0 0.0310942)
(-2.0286 0 0.0274916)
(-2.0307 0 0.0266597)
(-2.03184 0 0.0265659)
(-0.482277 0 1.05978)
(-0.913609 0 0.970703)
(-1.27173 0 0.746358)
(-1.47021 0 0.565143)
(-1.60232 0 0.443448)
(-1.69424 0 0.347489)
(-1.75869 0 0.280517)
(-1.80849 0 0.234646)
(-1.84763 0 0.19736)
(-1.8777 0 0.167918)
(-1.90355 0 0.148261)
(-1.92828 0 0.133635)
(-1.9501 0 0.119271)
(-1.96728 0 0.106711)
(-1.98223 0 0.0993277)
(-1.99889 0 0.0961349)
(-2.01786 0 0.0922899)
(-2.03582 0 0.0847689)
(-2.04937 0 0.0754785)
(-2.05877 0 0.0691916)
(-2.06789 0 0.0685305)
(-2.08073 0 0.071228)
(-2.09802 0 0.0721853)
(-2.11653 0 0.0671971)
(-2.13107 0 0.0556889)
(-2.13819 0 0.0417344)
(-2.13916 0 0.0314867)
(-2.13863 0 0.0277676)
(-2.13944 0 0.0278888)
(-2.14029 0 0.028153)
(-0.715792 0 2.06838)
(-1.25095 0 1.6397)
(-1.63184 0 1.03902)
(-1.75866 0 0.650539)
(-1.83159 0 0.515596)
(-1.88796 0 0.403515)
(-1.92038 0 0.325475)
(-1.95168 0 0.273722)
(-1.98126 0 0.223428)
(-2.00085 0 0.181717)
(-2.01716 0 0.161307)
(-2.03747 0 0.150155)
(-2.05701 0 0.134731)
(-2.06977 0 0.117929)
(-2.07913 0 0.108542)
(-2.09277 0 0.107166)
(-2.11226 0 0.104638)
(-2.13137 0 0.0951089)
(-2.14348 0 0.0816013)
(-2.14853 0 0.0725593)
(-2.15312 0 0.0729169)
(-2.16409 0 0.0790565)
(-2.18271 0 0.0827554)
(-2.20416 0 0.0776539)
(-2.22059 0 0.0626573)
(-2.22648 0 0.0435616)
(-2.22354 0 0.0299553)
(-2.21928 0 0.0266272)
(-2.21862 0 0.0287557)
(-2.2194 0 0.0296627)
(9.9959 0 0.138442)
(9.98225 0 0.275231)
(9.95811 0 0.412513)
(9.92454 0 0.552258)
(9.88243 0 0.696142)
(9.83217 0 0.845719)
(9.774 0 1.00249)
(9.70817 0 1.16794)
(9.63494 0 1.34353)
(9.55461 0 1.53072)
(9.46743 0 1.731)
(9.37367 0 1.94593)
(9.2736 0 2.17712)
(9.16747 0 2.42634)
(9.05553 0 2.69548)
(8.93801 0 2.98668)
(8.8151 0 3.3024)
(8.68692 0 3.64553)
(8.55355 0 4.01957)
(8.41499 0 4.42893)
(8.27116 0 4.87922)
(8.12196 0 5.37792)
(7.96731 0 5.9352)
(7.80748 0 6.56541)
(7.64367 0 7.28963)
(7.48083 0 8.14044)
(7.33218 0 9.1718)
(7.2877 0 10.4772)
(7.74494 0 12.2016)
(7.92485 0 14.9198)
(9.99638 0 0.143401)
(9.98434 0 0.285085)
(9.96306 0 0.42724)
(9.93352 0 0.571867)
(9.89657 0 0.720656)
(9.85263 0 0.875165)
(9.80198 0 1.0369)
(9.74494 0 1.20734)
(9.68186 0 1.38795)
(9.61311 0 1.58017)
(9.5391 0 1.78548)
(9.46022 0 2.00543)
(9.37692 0 2.24161)
(9.28968 0 2.49575)
(9.19902 0 2.76975)
(9.10551 0 3.06571)
(9.00981 0 3.38607)
(8.91267 0 3.73367)
(8.815 0 4.11196)
(8.71798 0 4.52521)
(8.62322 0 4.97884)
(8.53307 0 5.47988)
(8.45126 0 6.03764)
(8.38403 0 6.66474)
(8.34255 0 7.37838)
(8.34887 0 8.202)
(8.4418 0 9.16575)
(8.6772 0 10.3029)
(9.3238 0 11.5584)
(9.81326 0 12.6482)
(9.99688 0 0.147838)
(9.98651 0 0.293896)
(9.96819 0 0.44039)
(9.94283 0 0.589335)
(9.91121 0 0.742427)
(9.87378 0 0.901217)
(9.83087 0 1.0672)
(9.78285 0 1.24184)
(9.73015 0 1.42656)
(9.67325 0 1.6228)
(9.61265 0 1.83199)
(9.54891 0 2.05563)
(9.48265 0 2.29526)
(9.41456 0 2.55254)
(9.34545 0 2.82929)
(9.27623 0 3.12748)
(9.20799 0 3.44941)
(9.14209 0 3.7977)
(9.08021 0 4.17548)
(9.02455 0 4.58651)
(8.97815 0 5.03538)
(8.94526 0 5.52779)
(8.93219 0 6.0707)
(8.94845 0 6.67254)
(9.00853 0 7.34273)
(9.13456 0 8.08996)
(9.35755 0 8.91611)
(9.68702 0 9.81015)
(10.2529 0 10.7208)
(10.9407 0 11.4382)
(9.9974 0 0.151699)
(9.98874 0 0.301557)
(9.97347 0 0.451796)
(9.95239 0 0.604433)
(9.92623 0 0.761156)
(9.89545 0 0.923499)
(9.86042 0 1.09294)
(9.82158 0 1.27089)
(9.77944 0 1.45876)
(9.73453 0 1.65792)
(9.68749 0 1.86976)
(9.63901 0 2.09567)
(9.58986 0 2.33713)
(9.54095 0 2.59568)
(9.49333 0 2.87296)
(9.44822 0 3.17078)
(9.40712 0 3.49115)
(9.37185 0 3.83633)
(9.34472 0 4.20889)
(9.32868 0 4.61182)
(9.32768 0 5.04853)
(9.34701 0 5.52284)
(9.39391 0 6.0389)
(9.47831 0 6.60067)
(9.6134 0 7.21095)
(9.81602 0 7.86939)
(10.109 0 8.56895)
(10.5009 0 9.29497)
(11.0588 0 10.0373)
(11.8524 0 10.6829)
(9.99792 0 0.154938)
(9.99101 0 0.307975)
(9.97884 0 0.461322)
(9.96212 0 0.616983)
(9.9415 0 0.776624)
(9.91746 0 0.941752)
(9.8904 0 1.1138)
(9.86082 0 1.29416)
(9.82928 0 1.48415)
(9.79642 0 1.68509)
(9.76294 0 1.89828)
(9.72965 0 2.12503)
(9.69748 0 2.36666)
(9.66751 0 2.62455)
(9.64099 0 2.90016)
(9.61939 0 3.19502)
(9.60451 0 3.51078)
(9.59852 0 3.84922)
(9.60411 0 4.21227)
(9.62467 0 4.60197)
(9.66453 0 5.02041)
(9.7292 0 5.46963)
(9.82577 0 5.95124)
(9.96319 0 6.46593)
(10.1525 0 7.01264)
(10.4069 0 7.58749)
(10.7436 0 8.18236)
(11.1742 0 8.78257)
(11.7219 0 9.37654)
(12.4756 0 9.88935)
(9.99845 0 0.157512)
(9.9933 0 0.313065)
(9.98427 0 0.468843)
(9.97194 0 0.626819)
(9.9569 0 0.788628)
(9.93962 0 0.955735)
(9.92055 0 1.12953)
(9.90022 0 1.31132)
(9.87925 0 1.50239)
(9.85833 0 1.70395)
(9.83826 0 1.9172)
(9.81993 0 2.14331)
(9.80439 0 2.38346)
(9.79285 0 2.63884)
(9.78669 0 2.91064)
(9.78759 0 3.20008)
(9.79751 0 3.50842)
(9.81881 0 3.83691)
(9.85436 0 4.18676)
(9.90765 0 4.55909)
(9.98297 0 4.95481)
(10.0855 0 5.3744)
(10.2217 0 5.8176)
(10.399 0 6.28294)
(10.6263 0 6.76717)
(10.9132 0 7.26453)
(11.271 0 7.76579)
(11.7077 0 8.25538)
(12.2242 0 8.7166)
(12.9006 0 9.10791)
(9.99898 0 0.159381)
(9.9956 0 0.31675)
(9.98971 0 0.474244)
(9.98176 0 0.633793)
(9.97228 0 0.796987)
(9.96173 0 0.965238)
(9.95059 0 1.13987)
(9.93942 0 1.32214)
(9.92887 0 1.51321)
(9.91968 0 1.71422)
(9.91271 0 1.92623)
(9.90893 0 2.15027)
(9.90945 0 2.38734)
(9.91556 0 2.63841)
(9.92875 0 2.90441)
(9.95076 0 3.18622)
(9.98364 0 3.48467)
(10.0298 0 3.80047)
(10.092 0 4.1342)
(10.1737 0 4.48614)
(10.2788 0 4.85619)
(10.4119 0 5.24367)
(10.5783 0 5.64699)
(10.784 0 6.06333)
(11.0353 0 6.48823)
(11.3388 0 6.91498)
(11.7004 0 7.33422)
(12.1244 0 7.73253)
(12.6047 0 8.09533)
(13.2106 0 8.40208)
(9.99951 0 0.160512)
(9.99789 0 0.318964)
(9.9951 0 0.477429)
(9.99151 0 0.637781)
(9.98753 0 0.80155)
(9.98361 0 0.970089)
(9.98027 0 1.14465)
(9.97806 0 1.3264)
(9.97767 0 1.51641)
(9.97988 0 1.7157)
(9.98556 0 1.92521)
(9.99573 0 2.1458)
(10.0115 0 2.37827)
(10.0343 0 2.62338)
(10.0655 0 2.88178)
(10.107 0 3.15401)
(10.1607 0 3.44049)
(10.2289 0 3.74147)
(10.3143 0 4.05691)
(10.42 0 4.38646)
(10.5493 0 4.72923)
(10.706 0 5.08373)
(10.8944 0 5.44754)
(11.1187 0 5.81715)
(11.3833 0 6.18767)
(11.6918 0 6.55251)
(12.0473 0 6.90341)
(12.4511 0 7.23002)
(12.8957 0 7.5212)
(13.4392 0 7.76561)
(10 0 0.160876)
(10.0001 0 0.319651)
(10.0004 0 0.478319)
(10.0011 0 0.63868)
(10.0025 0 0.8022)
(10.0051 0 0.970158)
(10.0093 0 1.14372)
(10.0158 0 1.32397)
(10.0252 0 1.51188)
(10.0383 0 1.70832)
(10.0561 0 1.91411)
(10.0795 0 2.12994)
(10.1096 0 2.35643)
(10.1478 0 2.59409)
(10.1956 0 2.84332)
(10.2547 0 3.10434)
(10.3268 0 3.37722)
(10.4142 0 3.66178)
(10.5193 0 3.95753)
(10.6445 0 4.26359)
(10.7927 0 4.57857)
(10.967 0 4.90046)
(11.1703 0 5.22645)
(11.4055 0 5.55285)
(11.6754 0 5.87488)
(11.9817 0 6.18671)
(12.3253 0 6.48144)
(12.7059 0 6.75124)
(13.1158 0 6.98776)
(13.6039 0 7.18412)
(10.0005 0 0.160453)
(10.0023 0 0.31877)
(10.0056 0 0.476852)
(10.0104 0 0.636418)
(10.017 0 0.798854)
(10.0259 0 0.965361)
(10.0374 0 1.13702)
(10.0523 0 1.3148)
(10.071 0 1.49958)
(10.0946 0 1.6921)
(10.1237 0 1.89303)
(10.1594 0 2.1029)
(10.2028 0 2.32215)
(10.2551 0 2.55107)
(10.3178 0 2.78981)
(10.3924 0 3.03834)
(10.4806 0 3.29641)
(10.5843 0 3.5635)
(10.7054 0 3.83879)
(10.8461 0 4.12104)
(11.0086 0 4.40857)
(11.1951 0 4.69911)
(11.4076 0 4.98979)
(11.6479 0 5.27702)
(11.9174 0 5.55652)
(12.2166 0 5.82328)
(12.5452 0 6.07178)
(12.9017 0 6.29612)
(13.2791 0 6.49024)
(13.7193 0 6.64997)
(10.001 0 0.159228)
(10.0044 0 0.316292)
(10.0106 0 0.472991)
(10.0194 0 0.630948)
(10.0311 0 0.791466)
(10.0459 0 0.955658)
(10.0644 0 1.12451)
(10.0872 0 1.2989)
(10.1148 0 1.47957)
(10.148 0 1.66715)
(10.1877 0 1.86217)
(10.2347 0 2.06501)
(10.2902 0 2.27593)
(10.3552 0 2.49502)
(10.4311 0 2.72224)
(10.5192 0 2.9573)
(10.621 0 3.19974)
(10.7381 0 3.4488)
(10.8721 0 3.70341)
(11.0246 0 3.96214)
(11.1972 0 4.22316)
(11.3915 0 4.48419)
(11.6087 0 4.74245)
(11.8497 0 4.99469)
(12.115 0 5.23717)
(12.4041 0 5.46581)
(12.7161 0 5.67627)
(13.0491 0 5.86418)
(13.3968 0 6.0253)
(13.7958 0 6.15712)
(10.0015 0 0.157191)
(10.0065 0 0.312202)
(10.0154 0 0.466715)
(10.028 0 0.622254)
(10.0445 0 0.780028)
(10.065 0 0.94106)
(10.0901 0 1.10624)
(10.1203 0 1.27633)
(10.1561 0 1.45199)
(10.1983 0 1.6337)
(10.2476 0 1.82187)
(10.3049 0 2.01673)
(10.3712 0 2.21839)
(10.4474 0 2.42679)
(10.5347 0 2.64168)
(10.6343 0 2.86264)
(10.7474 0 3.089)
(10.8753 0 3.31985)
(11.0191 0 3.554)
(11.1801 0 3.78994)
(11.3595 0 4.02582)
(11.558 0 4.25947)
(11.7764 0 4.48834)
(12.0149 0 4.70958)
(12.2733 0 4.92007)
(12.5508 0 5.11653)
(12.8458 0 5.29565)
(13.1565 0 5.45425)
(13.4775 0 5.58941)
(13.8411 0 5.69963)
(10.0019 0 0.154344)
(10.0084 0 0.306499)
(10.0199 0 0.458029)
(10.0361 0 0.610347)
(10.0571 0 0.764569)
(10.083 0 0.921621)
(10.1142 0 1.0823)
(10.1512 0 1.24726)
(10.1946 0 1.41704)
(10.245 0 1.59205)
(10.303 0 1.77253)
(10.3695 0 1.95861)
(10.4453 0 2.15026)
(10.5312 0 2.34729)
(10.6283 0 2.54932)
(10.7374 0 2.75579)
(10.8596 0 2.96593)
(10.9957 0 3.17875)
(11.1468 0 3.39299)
(11.3136 0 3.60716)
(11.4967 0 3.81952)
(11.6967 0 4.02803)
(11.9136 0 4.23048)
(12.1474 0 4.42443)
(12.3973 0 4.60735)
(12.6623 0 4.77665)
(12.9408 0 4.92984)
(13.2309 0 5.06466)
(13.5279 0 5.1791)
(13.861 0 5.27233)
(10.0024 0 0.15069)
(10.0102 0 0.299197)
(10.0241 0 0.446957)
(10.0438 0 0.59527)
(10.0689 0 0.745153)
(10.0997 0 0.897439)
(10.1366 0 1.05282)
(10.1799 0 1.21188)
(10.2302 0 1.37502)
(10.2879 0 1.54256)
(10.3538 0 1.71464)
(10.4283 0 1.89128)
(10.5123 0 2.07234)
(10.6065 0 2.25752)
(10.7116 0 2.44636)
(10.8283 0 2.63821)
(10.9576 0 2.83224)
(11.0999 0 3.02744)
(11.2559 0 3.22257)
(11.426 0 3.4162)
(11.6107 0 3.60674)
(11.8099 0 3.79238)
(12.0235 0 3.97121)
(12.2509 0 4.14122)
(12.4915 0 4.30037)
(12.7439 0 4.44668)
(13.0065 0 4.5783)
(13.2776 0 4.69362)
(13.5534 0 4.79132)
(13.8601 0 4.87096)
(10.0027 0 0.146244)
(10.0119 0 0.290322)
(10.0281 0 0.433542)
(10.0508 0 0.577087)
(10.0798 0 0.721878)
(10.1152 0 0.868652)
(10.1572 0 1.01801)
(10.2062 0 1.17043)
(10.2626 0 1.32625)
(10.3269 0 1.48567)
(10.3995 0 1.64876)
(10.481 0 1.81543)
(10.572 0 1.98546)
(10.673 0 2.1585)
(10.7846 0 2.334)
(10.9074 0 2.5113)
(11.0418 0 2.68954)
(11.1884 0 2.86772)
(11.3474 0 3.04468)
(11.519 0 3.2191)
(11.7033 0 3.38954)
(11.9 0 3.55447)
(12.1089 0 3.71226)
(12.3292 0 3.86128)
(12.5599 0 3.99992)
(12.7999 0 4.12669)
(13.0477 0 4.24022)
(13.3015 0 4.33941)
(13.5582 0 4.42338)
(13.842 0 4.49196)
(10.0031 0 0.141023)
(10.0134 0 0.279912)
(10.0317 0 0.417845)
(10.0573 0 0.55589)
(10.0898 0 0.694869)
(10.1293 0 0.835431)
(10.1759 0 0.978091)
(10.23 0 1.12324)
(10.2919 0 1.27112)
(10.3618 0 1.42186)
(10.4403 0 1.57546)
(10.5277 0 1.73176)
(10.6244 0 1.89049)
(10.7309 0 2.05123)
(10.8476 0 2.21342)
(10.9749 0 2.37638)
(11.113 0 2.53929)
(11.2621 0 2.70118)
(11.4225 0 2.861)
(11.594 0 3.01755)
(11.7766 0 3.1696)
(11.9697 0 3.31582)
(12.173 0 3.45488)
(12.3855 0 3.58549)
(12.6064 0 3.70639)
(12.8344 0 3.81645)
(13.0682 0 3.9147)
(13.3064 0 4.00038)
(13.5461 0 4.07294)
(13.8097 0 4.13238)
(10.0034 0 0.135051)
(10.0148 0 0.268015)