/*--------------------------------*- C++ -*----------------------------------*\
  =========                 |
  \\      /  F ield         | OpenFOAM: The Open Source CFD Toolbox
   \\    /   O peration     | Website:  https://openfoam.org
    \\  /    A nd           | Version:  dev
     \\/     M anipulation  |
\*---------------------------------------------------------------------------*/
FoamFile
{
    version     2.0;
    format      ascii;
    class       surfaceVectorField;
    location    "6.1";
    object      Uf;
}
// * * * * * * * * * * * * * * * * * * * * * * * * * * * * * * * * * * * * * //

dimensions      [0 1 -1 0 0 0 0];

internalField   nonuniform List<vector> 
5457
(
(9.92088 0 0.0251095)
(9.97125 0 0.0387456)
(9.82402 0 0.0328266)
(9.92859 0 0.0485848)
(9.70961 0 0.0393118)
(9.85548 0 0.0587677)
(9.57544 0 0.0460113)
(9.7568 0 0.0705928)
(9.42138 0 0.0529486)
(9.63754 0 0.0830128)
(9.24755 0 0.0601659)
(9.49862 0 0.0959359)
(9.05363 0 0.0678106)
(9.33931 0 0.109612)
(8.83893 0 0.0760343)
(9.15875 0 0.124288)
(8.60253 0 0.0849701)
(8.9561 0 0.140167)
(8.34327 0 0.0947448)
(8.73039 0 0.157433)
(8.05986 0 0.105487)
(8.48042 0 0.17627)
(7.75081 0 0.117328)
(8.20478 0 0.196858)
(7.41457 0 0.130396)
(7.90196 0 0.219363)
(7.04951 0 0.144811)
(7.57032 0 0.243925)
(6.65404 0 0.160674)
(7.2082 0 0.270635)
(6.22672 0 0.178046)
(6.814 0 0.299504)
(5.76643 0 0.19693)
(6.38634 0 0.330418)
(5.27258 0 0.217236)
(5.92418 0 0.363088)
(4.74538 0 0.238739)
(5.42711 0 0.396981)
(4.18621 0 0.261035)
(4.89566 0 0.431242)
(3.59797 0 0.283491)
(4.33165 0 0.464624)
(2.98556 0 0.305205)
(3.73861 0 0.495429)
(2.35612 0 0.325071)
(3.12228 0 0.521516)
(1.71911 0 0.34255)
(2.49107 0 0.54056)
(1.08435 0 0.361883)
(1.85586 0 0.551675)
(0.451835 0 0.348683)
(1.24548 0 0.563022)
(-0.145839 0 0.102464)
(0.608916 0 0.54488)
(-0.423621 0 -0.207096)
(0.0946638 0 0.25937)
(-0.402156 0 -0.361259)
(-0.133672 0 -0.0205264)
(-0.119681 0 -0.393887)
(9.99641 0 0.051672)
(9.99705 0 0.0405042)
(9.95879 0 0.0708609)
(9.97851 0 0.0674538)
(9.89824 0 0.087986)
(9.93378 0 0.089869)
(9.81659 0 0.105984)
(9.86453 0 0.113554)
(9.71359 0 0.124921)
(9.77438 0 0.138513)
(9.58909 0 0.144853)
(9.66436 0 0.164645)
(9.44275 0 0.166089)
(9.53398 0 0.192331)
(9.27391 0 0.188966)
(9.3825 0 0.22203)
(9.08167 0 0.213783)
(9.2092 0 0.254148)
(8.86491 0 0.240816)
(9.01317 0 0.289064)
(8.62231 0 0.270338)
(8.79332 0 0.327153)
(8.3524 0 0.302609)
(8.54837 0 0.368788)
(8.05357 0 0.337859)
(8.27684 0 0.414319)
(7.72413 0 0.376266)
(7.97718 0 0.46405)
(7.36238 0 0.417907)
(7.64772 0 0.518194)
(6.96673 0 0.462713)
(7.28683 0 0.576813)
(6.53584 0 0.510392)
(6.89296 0 0.639733)
(6.06883 0 0.560339)
(6.46482 0 0.706436)
(5.56559 0 0.611527)
(6.0016 0 0.775918)
(5.0271 0 0.662391)
(5.50326 0 0.846533)
(4.45588 0 0.710714)
(4.97089 0 0.915815)
(3.85649 0 0.753545)
(4.40718 0 0.980314)
(3.23619 0 0.7872)
(3.81704 0 1.03546)
(2.60581 0 0.807504)
(3.20846 0 1.07549)
(1.98279 0 0.810468)
(2.59339 0 1.09315)
(1.40528 0 0.776897)
(1.9962 0 1.07708)
(0.929749 0 0.6464)
(1.41949 0 0.978408)
(0.439853 0 0.384337)
(0.937571 0 0.716796)
(0.0591708 0 -0.118615)
(0.443789 0 0.343522)
(0.17492 0 -0.335933)
(9.98903 0 0.0594302)
(9.99481 0 0.0458769)
(9.95434 0 0.0894755)
(9.97368 0 0.0848531)
(9.8973 0 0.11803)
(9.92984 0 0.119172)
(9.82047 0 0.147897)
(9.86357 0 0.153974)
(9.72417 0 0.17942)
(9.77736 0 0.190406)
(9.60822 0 0.212774)
(9.67227 0 0.228635)
(9.47235 0 0.248391)
(9.5481 0 0.269127)
(9.31608 0 0.286773)
(9.40432 0 0.312495)
(9.13869 0 0.328396)
(9.24035 0 0.359324)
(8.93926 0 0.373721)
(9.0555 0 0.410173)
(8.71665 0 0.423206)
(8.8489 0 0.465598)
(8.46961 0 0.477296)
(8.61952 0 0.526153)
(8.19669 0 0.5364)
(8.36616 0 0.592373)
(7.89633 0 0.600844)
(8.08753 0 0.664739)
(7.56692 0 0.670813)
(7.7822 0 0.74362)
(7.20684 0 0.746259)
(7.44874 0 0.829193)
(6.81457 0 0.826786)
(7.08569 0 0.921323)
(6.38888 0 0.911487)
(6.69171 0 1.01941)
(5.92904 0 0.998763)
(6.26572 0 1.12218)
(5.43514 0 1.0861)
(5.80712 0 1.22743)
(4.90855 0 1.16983)
(5.31608 0 1.33175)
(4.35243 0 1.2449)
(4.79398 0 1.4302)
(3.77259 0 1.30455)
(4.24398 0 1.51588)
(3.17873 0 1.33984)
(3.67181 0 1.57943)
(2.58663 0 1.33812)
(3.08633 0 1.60775)
(2.01986 0 1.27297)
(2.50293 0 1.58158)
(1.48695 0 1.09541)
(1.92874 0 1.46425)
(0.958299 0 0.769171)
(1.38525 0 1.2104)
(0.479879 0 0.202451)
(0.829544 0 0.801038)
(0.433731 0 0.134079)
(9.98515 0 0.0716129)
(9.99367 0 0.0531471)
(9.95039 0 0.113629)
(9.97088 0 0.102289)
(9.89437 0 0.154131)
(9.92691 0 0.147952)
(9.81882 0 0.195571)
(9.86185 0 0.193719)
(9.72442 0 0.238809)
(9.77746 0 0.241275)
(9.61113 0 0.284322)
(9.67467 0 0.291161)
(9.47875 0 0.332718)
(9.55344 0 0.343953)
(9.32695 0 0.384672)
(9.41336 0 0.400369)
(9.15524 0 0.440845)
(9.25401 0 0.461137)
(8.96292 0 0.501882)
(9.07485 0 0.526959)
(8.74917 0 0.568427)
(8.87521 0 0.598535)
(8.51305 0 0.641112)
(8.65431 0 0.676562)
(8.25347 0 0.720531)
(8.41123 0 0.761721)
(7.96927 0 0.807192)
(8.14501 0 0.854638)
(7.65918 0 0.90144)
(7.85455 0 0.955822)
(7.32193 0 1.00335)
(7.53876 0 1.06557)
(6.95621 0 1.11258)
(7.19647 0 1.18385)
(6.56085 0 1.22814)
(6.82653 0 1.31009)
(6.13489 0 1.34817)
(6.4279 0 1.44292)
(5.67785 0 1.4696)
(5.99967 0 1.57991)
(5.19 0 1.58778)
(5.54134 0 1.71709)
(4.67287 0 1.69603)
(5.05306 0 1.84854)
(4.1298 0 1.78515)
(4.53596 0 1.96584)
(3.56666 0 1.84253)
(3.99273 0 2.05731)
(2.99205 0 1.85073)
(3.4276 0 2.10714)
(2.41585 0 1.78249)
(2.84764 0 2.09448)
(1.84055 0 1.60046)
(2.25623 0 1.98873)
(1.25939 0 1.27843)
(1.66032 0 1.75304)
(0.666776 0 0.789536)
(1.02397 0 1.36776)
(0.523037 0 0.787145)
(9.98337 0 0.0844061)
(9.99316 0 0.0612904)
(9.94821 0 0.136835)
(9.96959 0 0.119925)
(9.89315 0 0.188029)
(9.92575 0 0.176237)
(9.81907 0 0.240166)
(9.862 0 0.232695)
(9.72663 0 0.294464)
(9.77964 0 0.291083)
(9.6159 0 0.351655)
(9.6794 0 0.35227)
(9.48672 0 0.412466)
(9.56128 0 0.416973)
(9.33879 0 0.477672)
(9.42497 0 0.486004)
(9.17172 0 0.548047)
(9.2701 0 0.5602)
(8.98493 0 0.624351)
(9.09621 0 0.640383)
(8.77779 0 0.707341)
(8.90275 0 0.727364)
(8.54954 0 0.797762)
(8.68908 0 0.821954)
(8.29936 0 0.896325)
(8.45445 0 0.92494)
(8.02635 0 1.00365)
(8.19808 0 1.03706)
(7.72958 0 1.12021)
(7.91913 0 1.15892)
(7.40806 0 1.24617)
(7.6167 0 1.29093)
(7.06077 0 1.38128)
(7.28986 0 1.43315)
(6.6867 0 1.52459)
(6.93763 0 1.58511)
(6.28485 0 1.67419)
(6.55899 0 1.74551)
(5.85438 0 1.8268)
(6.15287 0 1.91189)
(5.39471 0 1.97726)
(5.71822 0 2.08017)
(4.90575 0 2.11806)
(5.25407 0 2.2441)
(4.38825 0 2.23861)
(4.75973 0 2.39461)
(3.84394 0 2.32455)
(4.23495 0 2.5192)
(3.27544 0 2.35695)
(3.67989 0 2.60124)
(2.68539 0 2.31059)
(3.09572 0 2.6197)
(2.07269 0 2.155)
(2.48169 0 2.54732)
(1.42938 0 1.86739)
(1.83992 0 2.35371)
(0.742612 0 1.41956)
(1.13136 0 2.02452)
(0.543306 0 1.51449)
(9.98264 0 0.097496)
(9.99299 0 0.0697915)
(9.94744 0 0.159772)
(9.96925 0 0.137581)
(9.89354 0 0.221344)
(9.92597 0 0.203923)
(9.82134 0 0.284088)
(9.86381 0 0.270684)
(9.73134 0 0.349343)
(9.78386 0 0.339577)
(9.62367 0 0.418013)
(9.68665 0 0.411691)
(9.4982 0 0.490932)
(9.57219 0 0.487897)
(9.35466 0 0.568969)
(9.44022 0 0.569098)
(9.1927 0 0.652999)
(9.29044 0 0.656228)
(9.01184 0 0.743893)
(9.12243 0 0.750208)
(8.81152 0 0.842513)
(8.93572 0 0.851952)
(8.5911 0 0.949707)
(8.72974 0 0.962363)
(8.34986 0 1.06628)
(8.50383 0 1.08232)
(8.08707 0 1.19296)
(8.25729 0 1.21265)
(7.80193 0 1.33031)
(7.98939 0 1.35405)
(7.4936 0 1.4786)
(7.6993 0 1.50703)
(7.16119 0 1.63769)
(7.38618 0 1.67177)
(6.80372 0 1.80676)
(7.04903 0 1.84793)
(6.42011 0 1.98398)
(6.68675 0 2.03437)
(6.00912 0 2.16615)
(6.29801 0 2.22885)
(5.5694 0 2.34812)
(5.88119 0 2.42749)
(5.09946 0 2.52222)
(5.43433 0 2.62427)
(4.59774 0 2.67757)
(4.95511 0 2.8103)
(4.06269 0 2.7995)
(4.44084 0 2.97323)
(3.49269 0 2.86911)
(3.88851 0 3.09663)
(2.88582 0 2.86292)
(3.29522 0 3.1599)
(2.23801 0 2.75392)
(2.65689 0 3.1379)
(1.54244 0 2.52102)
(1.97483 0 3.00318)
(0.793646 0 2.13133)
(1.20724 0 2.74059)
(0.556734 0 2.29181)
(9.9825 0 0.110624)
(9.99302 0 0.0783599)
(9.94771 0 0.182321)
(9.96954 0 0.155034)
(9.89523 0 0.253813)
(9.92722 0 0.230881)
(9.82524 0 0.326761)
(9.86697 0 0.307503)
(9.73814 0 0.402549)
(9.78978 0 0.386516)
(9.63404 0 0.482227)
(9.69606 0 0.469141)
(9.51286 0 0.56675)
(9.5858 0 0.55639)
(9.37439 0 0.657085)
(9.45881 0 0.649263)
(9.21829 0 0.754206)
(9.31482 0 0.74878)
(9.04415 0 0.859079)
(9.15348 0 0.855955)
(8.85146 0 0.972658)
(8.97435 0 0.971795)
(8.63964 0 1.09588)
(8.77692 0 1.09729)
(8.40804 0 1.22964)
(8.56059 0 1.23342)
(8.15596 0 1.37475)
(8.32471 0 1.38108)
(7.88265 0 1.53187)
(8.06854 0 1.54108)
(7.58728 0 1.70139)
(7.79126 0 1.71406)
(7.2689 0 1.88331)
(7.49197 0 1.90032)
(6.92643 0 2.07699)
(7.16955 0 2.09972)
(6.55851 0 2.28087)
(6.82266 0 2.31141)
(6.16347 0 2.49207)
(6.44959 0 2.53351)
(5.73912 0 2.70585)
(6.04809 0 2.76267)
(5.28272 0 2.91501)
(5.61524 0 2.99349)
(4.79082 0 3.10917)
(5.14723 0 3.21787)
(4.25929 0 3.27421)
(4.63937 0 3.42429)
(3.68338 0 3.39186)
(4.08604 0 3.59716)
(3.05804 0 3.43968)
(3.4813 0 3.71654)
(2.37773 0 3.39179)
(2.81835 0 3.75812)
(1.6379 0 3.22616)
(2.09915 0 3.69397)
(0.839127 0 2.90083)
(1.27891 0 3.50446)
(0.573356 0 3.11369)
(9.98273 0 0.123579)
(9.99316 0 0.0868156)
(9.94873 0 0.204305)
(9.97027 0 0.172089)
(9.89794 0 0.285247)
(9.92927 0 0.25697)
(9.83051 0 0.367959)
(9.87124 0 0.342981)
(9.74671 0 0.453844)
(9.79716 0 0.43167)
(9.64669 0 0.544069)
(9.70735 0 0.524342)
(9.53039 0 0.639699)
(9.60181 0 0.622126)
(9.39763 0 0.741791)
(9.48039 0 0.726116)
(9.24814 0 0.851407)
(9.34287 0 0.837415)
(9.08154 0 0.9696)
(9.18895 0 0.957124)
(8.89738 0 1.09742)
(9.01826 0 1.08633)
(8.69512 0 1.23588)
(8.83031 0 1.22613)
(8.47414 0 1.38598)
(8.62456 0 1.37758)
(8.23378 0 1.54863)
(8.40038 0 1.54168)
(7.97324 0 1.72461)
(8.15703 0 1.71938)
(7.69163 0 1.91445)
(7.89365 0 1.91144)
(7.38786 0 2.11836)
(7.60921 0 2.11837)
(7.06063 0 2.33598)
(7.30243 0 2.34031)
(6.70821 0 2.56614)
(6.97166 0 2.57678)
(6.32837 0 2.8065)
(6.61472 0 2.82645)
(5.9181 0 3.05307)
(6.22872 0 3.08672)
(5.47345 0 3.29955)
(5.80974 0 3.3532)
(4.9893 0 3.53667)
(5.35265 0 3.619)
(4.45933 0 3.75143)
(4.85087 0 3.87401)
(3.87621 0 3.92647)
(4.29641 0 4.10395)
(3.23231 0 4.03986)
(3.68053 0 4.28969)
(2.52082 0 4.06498)
(2.99349 0 4.40677)
(1.73836 0 3.97612)
(2.23736 0 4.42456)
(0.889466 0 3.71873)
(1.36335 0 4.31627)
(0.598747 0 3.98487)
(9.98321 0 0.1362)
(9.99339 0 0.0950383)
(9.95032 0 0.225567)
(9.97131 0 0.188585)
(9.90151 0 0.31549)
(9.93193 0 0.282043)
(9.83694 0 0.407495)
(9.87644 0 0.376952)
(9.75684 0 0.503003)
(9.8058 0 0.474831)
(9.66136 0 0.603267)
(9.72031 0 0.57704)
(9.55047 0 0.709449)
(9.61997 0 0.684804)
(9.42405 0 0.822691)
(9.50466 0 0.799305)
(9.28185 0 0.944136)
(9.37424 0 0.921723)
(9.12358 0 1.07492)
(9.22845 0 1.05324)
(8.94881 0 1.21618)
(9.06697 0 1.19503)
(8.75707 0 1.36904)
(8.8894 0 1.34827)
(8.54778 0 1.53458)
(8.69522 0 1.51411)
(8.32027 0 1.71384)
(8.48384 0 1.6937)
(8.07372 0 1.90774)
(8.25453 0 1.8881)
(7.80715 0 2.11703)
(8.00638 0 2.09827)
(7.51934 0 2.34217)
(7.73827 0 2.32498)
(7.2087 0 2.58317)
(7.44875 0 2.5687)
(6.87312 0 2.83941)
(7.13587 0 2.82947)
(6.50979 0 3.10929)
(6.79703 0 3.10666)
(6.11489 0 3.38983)
(6.42869 0 3.39864)
(5.68332 0 3.67605)
(6.02605 0 3.70233)
(5.20838 0 3.96023)
(5.58268 0 4.01251)
(4.68164 0 4.231)
(5.09021 0 4.32099)
(4.09317 0 4.47232)
(4.53815 0 4.6154)
(3.43239 0 4.66254)
(3.91457 0 4.87787)
(2.69002 0 4.77313)
(3.20555 0 5.08356)
(1.86177 0 4.77236)
(2.41116 0 5.19793)
(0.954134 0 4.58967)
(1.4762 0 5.18424)
(0.639154 0 4.91938)
(9.98386 0 0.148366)
(9.99368 0 0.102941)
(9.95235 0 0.245965)
(9.97261 0 0.20439)
(9.90579 0 0.344392)
(9.9351 0 0.305963)
(9.84438 0 0.44519)
(9.88241 0 0.409262)
(9.76834 0 0.549801)
(9.81552 0 0.515806)
(9.67781 0 0.659548)
(9.73472 0 0.627)
(9.57282 0 0.775676)
(9.64 0 0.744146)
(9.45329 0 0.899406)
(9.53131 0 0.868503)
(9.31903 0 1.03196)
(9.40855 0 1.00132)
(9.1698 0 1.17454)
(9.27153 0 1.14386)
(9.00525 0 1.32839)
(9.12001 0 1.29737)
(8.82494 0 1.49471)
(8.95363 0 1.46312)
(8.62837 0 1.6747)
(8.77196 0 1.64236)
(8.41487 0 1.86954)
(8.57445 0 1.83636)
(8.18363 0 2.08033)
(8.3604 0 2.04635)
(7.93363 0 2.30806)
(8.12892 0 2.2735)
(7.6635 0 2.55352)
(7.87883 0 2.51889)
(7.37145 0 2.8172)
(7.60856 0 2.78341)
(7.05507 0 3.09914)
(7.316 0 3.06771)
(6.71102 0 3.39868)
(6.99821 0 3.37199)
(6.3348 0 3.71411)
(6.65119 0 3.69581)
(5.92023 0 4.04213)
(6.26939 0 4.0377)
(5.45913 0 4.37709)
(5.84527 0 4.39455)
(4.9409 0 4.70991)
(5.36873 0 4.76075)
(4.35254 0 5.02654)
(4.82661 0 5.12676)
(3.67939 0 5.30616)
(4.20297 0 5.47706)
(2.90732 0 5.51812)
(3.47768 0 5.78743)
(2.0275 0 5.62292)
(2.64483 0 6.01942)
(1.04501 0 5.52934)
(1.63756 0 6.1238)
(0.704397 0 5.94291)
(9.98465 0 0.159978)
(9.99402 0 0.11046)
(9.95473 0 0.265376)
(9.97409 0 0.219395)
(9.91065 0 0.371813)
(9.93868 0 0.328605)
(9.85267 0 0.480875)
(9.88905 0 0.439767)
(9.78101 0 0.594034)
(9.82619 0 0.554423)
(9.69582 0 0.712669)
(9.75039 0 0.674013)
(9.59717 0 0.838095)
(9.66168 0 0.799904)
(9.48504 0 0.971603)
(9.56004 0 0.933421)
(9.35929 0 1.11448)
(9.44545 0 1.07588)
(9.21975 0 1.26801)
(9.31778 0 1.2286)
(9.06615 0 1.43351)
(9.17686 0 1.3929)
(8.89813 0 1.61227)
(9.02243 0 1.57014)
(8.71524 0 1.80563)
(8.85413 0 1.76168)
(8.51688 0 2.01489)
(8.67148 0 1.9689)
(8.30228 0 2.24136)
(8.47388 0 2.19321)
(8.07042 0 2.48631)
(8.26047 0 2.43601)
(7.81991 0 2.75091)
(8.03014 0 2.69872)
(7.54886 0 3.03621)
(7.78132 0 2.98269)
(7.25465 0 3.343)
(7.51185 0 3.28924)
(6.93369 0 3.67174)
(7.21869 0 3.61952)
(6.58093 0 4.02221)
(6.89763 0 3.97444)
(6.18945 0 4.39319)
(6.54272 0 4.3544)
(5.74973 0 4.78168)
(6.14568 0 4.75887)
(5.24905 0 5.18178)
(5.69501 0 5.18563)
(4.67083 0 5.58285)
(5.17497 0 5.62929)
(3.99476 0 5.96656)
(4.56493 0 6.07885)
(3.19825 0 6.30167)
(3.83613 0 6.51359)
(2.26161 0 6.54057)
(2.9706 0 6.89398)
(1.1805 0 6.56492)
(1.87894 0 7.15767)
(0.812699 0 7.09913)
(9.98554 0 0.170959)
(9.9944 0 0.117544)
(9.95739 0 0.283692)
(9.97572 0 0.233514)
(9.91601 0 0.397626)
(9.94259 0 0.349861)
(9.8617 0 0.514401)
(9.89624 0 0.468341)
(9.79469 0 0.635523)
(9.83765 0 0.590528)
(9.71518 0 0.762415)
(9.76714 0 0.717896)
(9.62326 0 0.896453)
(9.68477 0 0.85186)
(9.51896 0 1.03899)
(9.59057 0 0.993803)
(9.40223 0 1.19136)
(9.48458 0 1.14509)
(9.27296 0 1.35493)
(9.36676 0 1.3071)
(9.13096 0 1.53107)
(9.23701 0 1.48122)
(8.97599 0 1.72118)
(9.09517 0 1.66886)
(8.80766 0 1.92669)
(8.94099 0 1.87149)
(8.62549 0 2.14908)
(8.77411 0 2.09062)
(8.4288 0 2.38984)
(8.59404 0 2.32781)
(8.21664 0 2.65052)
(8.40005 0 2.58471)
(7.98772 0 2.93273)
(8.19117 0 2.86305)
(7.7402 0 3.23807)
(7.96597 0 3.16467)
(7.47151 0 3.5682)
(7.72246 0 3.49157)
(7.178 0 3.92473)
(7.45777 0 3.84587)
(6.85455 0 4.30918)
(7.16785 0 4.22992)
(6.49388 0 4.7227)
(6.84687 0 4.64617)
(6.08572 0 5.16559)
(6.48649 0 5.09705)
(5.61562 0 5.63636)
(6.07467 0 5.58454)
(5.06351 0 6.12986)
(5.59396 0 6.10914)
(4.40208 0 6.63377)
(5.01948 0 6.66761)
(3.59594 0 7.12114)
(4.31235 0 7.24852)
(2.60411 0 7.54045)
(3.43541 0 7.82007)
(1.39414 0 7.74015)
(2.25619 0 8.31477)
(1.00245 0 8.46461)
(9.9865 0 0.181248)
(9.9948 0 0.124153)
(9.96027 0 0.300825)
(9.97747 0 0.246674)
(9.92177 0 0.421723)
(9.94676 0 0.369637)
(9.87134 0 0.545638)
(9.90388 0 0.494873)
(9.80924 0 0.674108)
(9.84978 0 0.62399)
(9.73569 0 0.808598)
(9.7848 0 0.75849)
(9.65082 0 0.950526)
(9.70904 0 0.899828)
(9.55473 0 1.10129)
(9.6226 0 1.04943)
(9.44745 0 1.26229)
(9.52557 0 1.2087)
(9.32893 0 1.43493)
(9.41801 0 1.37907)
(9.19911 0 1.62065)
(9.29991 0 1.56196)
(9.05783 0 1.82093)
(9.17122 0 1.75886)
(8.90484 0 2.03728)
(9.0318 0 1.9713)
(8.73978 0 2.27134)
(8.88145 0 2.2009)
(8.56214 0 2.52479)
(8.71984 0 2.44938)
(8.37114 0 2.79945)
(8.54646 0 2.71858)
(8.16568 0 3.09731)
(8.36054 0 3.01054)
(7.94418 0 3.42056)
(8.16098 0 3.32753)
(7.70434 0 3.77166)
(7.94613 0 3.67217)
(7.44287 0 4.15345)
(7.71363 0 4.04752)
(7.15504 0 4.56917)
(7.46004 0 4.45727)
(6.83395 0 5.02255)
(7.18032 0 4.90592)
(6.46956 0 5.51772)
(6.86709 0 5.39897)
(6.04698 0 6.0588)
(6.5093 0 5.94314)
(5.54397 0 6.64882)
(6.08998 0 6.5463)
(4.92692 0 7.28704)
(5.58298 0 7.21688)
(4.14476 0 7.96137)
(4.94226 0 7.96158)
(3.12146 0 8.63335)
(4.10894 0 8.77555)
(1.756 0 9.1274)
(2.87802 0 9.62058)
(1.36444 0 10.1845)
(9.98754 0 0.190794)
(9.99523 0 0.130257)
(9.96333 0 0.316698)
(9.97932 0 0.258817)
(9.92786 0 0.444011)
(9.95115 0 0.387858)
(9.88148 0 0.574475)
(9.91188 0 0.519272)
(9.82449 0 0.709663)
(9.86244 0 0.654698)
(9.75713 0 0.851068)
(9.80318 0 0.795665)
(9.6796 0 1.00014)
(9.73426 0 0.943655)
(9.59203 0 1.15833)
(9.65584 0 1.10012)
(9.49453 0 1.32705)
(9.56807 0 1.26651)
(9.38718 0 1.50776)
(9.4711 0 1.44426)
(9.26999 0 1.70194)
(9.36502 0 1.63484)
(9.14293 0 1.91113)
(9.2499 0 1.83979)
(9.00591 0 2.13693)
(9.12575 0 2.06069)
(8.85874 0 2.38108)
(8.99255 0 2.29924)
(8.70112 0 2.64543)
(8.85015 0 2.55725)
(8.53252 0 2.93203)
(8.69832 0 2.83675)
(8.35217 0 3.2432)
(8.53662 0 3.14)
(8.15889 0 3.58163)
(8.36436 0 3.46963)
(7.95096 0 3.95049)
(8.18048 0 3.82874)
(7.72581 0 4.35369)
(7.98338 0 4.22115)
(7.47971 0 4.79606)
(7.77071 0 4.65166)
(7.20709 0 5.28381)
(7.53897 0 5.12647)
(6.89955 0 5.8249)
(7.28292 0 5.65378)
(6.54414 0 6.42969)
(6.99456 0 6.24473)
(6.12011 0 7.11158)
(6.66117 0 6.91484)
(5.59271 0 7.88771)
(6.26218 0 7.68634)
(4.90044 0 8.77788)
(5.75712 0 8.5927)
(3.92633 0 9.80129)
(5.0867 0 9.68509)
(2.43272 0 10.856)
(3.9787 0 11.0489)
(2.14562 0 12.5672)
(9.98862 0 0.199557)
(9.99567 0 0.135832)
(9.96652 0 0.331253)
(9.98124 0 0.269898)
(9.9342 0 0.464406)
(9.95571 0 0.404461)
(9.89203 0 0.600806)
(9.92017 0 0.541461)
(9.84031 0 0.742049)
(9.87553 0 0.682565)
(9.77933 0 0.88965)
(9.82217 0 0.829319)
(9.70933 0 1.04509)
(9.76029 0 0.983221)
(9.63052 0 1.20983)
(9.69011 0 1.14575)
(9.54309 0 1.38532)
(9.61187 0 1.31835)
(9.4472 0 1.57303)
(9.52579 0 1.50249)
(9.34298 0 1.77449)
(9.43209 0 1.69966)
(9.23055 0 1.99125)
(9.33095 0 1.91141)
(9.10998 0 2.225)
(9.22256 0 2.13935)
(8.98129 0 2.47753)
(9.10707 0 2.38522)
(8.84441 0 2.7508)
(8.9846 0 2.65092)
(8.69917 0 3.04705)
(8.8552 0 2.93855)
(8.5452 0 3.36882)
(8.71883 0 3.25053)
(8.3819 0 3.71916)
(8.57534 0 3.58968)
(8.20832 0 4.10176)
(8.42438 0 3.95945)
(8.023 0 4.5213)
(8.26539 0 4.36408)
(7.82374 0 4.9838)
(8.09744 0 4.80905)
(7.60726 0 5.49733)
(7.91919 0 5.30159)
(7.36852 0 6.07293)
(7.72865 0 5.85158)
(7.0996 0 6.72624)
(7.52293 0 6.47294)
(6.78732 0 7.48046)
(7.29779 0 7.18624)
(6.40813 0 8.3723)
(7.04774 0 8.02387)
(5.91499 0 9.46617)
(6.76255 0 9.04228)
(5.19528 0 10.9083)
(6.46117 0 10.3571)
(3.88346 0 13.1778)
(6.18836 0 12.3034)
(5.25653 0 16.3708)
(0.185796 0 -0.109593)
(0.108967 0 -0.181976)
(0.360763 0 -0.0918574)
(0.264603 0 -0.167321)
(0.50268 0 -0.0688649)
(0.417741 0 -0.132511)
(0.611293 0 -0.0485847)
(0.544803 0 -0.0990184)
(0.691511 0 -0.03239)
(0.642115 0 -0.0714049)
(0.748813 0 -0.0199828)
(0.7145 0 -0.0498018)
(0.78816 0 -0.0107575)
(0.767804 0 -0.0333899)
(0.81385 0 -0.00412559)
(0.80686 0 -0.0212847)
(0.829507 0 0.000440162)
(0.835414 0 -0.0126665)
(0.838103 0 0.00340405)
(0.856409 0 -0.00678918)
(0.841988 0 0.00516085)
(0.872162 0 -0.00299649)
(0.842995 0 0.00601886)
(0.88445 0 -0.000757951)
(0.842496 0 0.00620764)
(0.894589 0 0.000366959)
(0.841419 0 0.00594902)
(0.903536 0 0.000772657)
(0.840558 0 0.00544069)
(0.911998 0 0.000603899)
(0.840371 0 0.00482784)
(0.920476 0 0.000127801)
(0.841059 0 0.00423941)
(0.929265 0 -0.000459668)
(0.842521 0 0.00378002)
(0.938459 0 -0.000954231)
(0.844422 0 0.00353069)
(0.947965 0 -0.00121083)
(0.846244 0 0.00354445)
(0.957529 0 -0.00113303)
(0.847399 0 0.00381114)
(0.966777 0 -0.000701246)
(0.84743 0 0.00421411)
(0.975276 0 -1.86595e-05)
(0.84588 0 0.00464482)
(0.982606 0 0.000897323)
(0.842599 0 0.00505716)
(0.98845 0 0.0018546)
(0.83753 0 0.00541159)
(0.992662 0 0.00279739)
(0.830676 0 0.00567872)
(0.995206 0 0.00369352)
(0.822109 0 0.0058502)
(0.996123 0 0.00450702)
(0.811844 0 0.00582837)
(0.995179 0 0.00527353)
(0.800755 0 0.00506924)
(0.992603 0 0.00556174)
(0.989027 0 0.00419053)
(0.172155 0 -0.263424)
(0.0910237 0 -0.350591)
(0.335926 0 -0.227999)
(0.235379 0 -0.323936)
(0.471969 0 -0.177949)
(0.369584 0 -0.259537)
(0.580275 0 -0.13301)
(0.482224 0 -0.197757)
(0.665435 0 -0.0968461)
(0.570489 0 -0.147209)
(0.732256 0 -0.0689345)
(0.638956 0 -0.107877)
(0.7849 0 -0.0479678)
(0.692485 0 -0.0780631)
(0.826836 0 -0.0326511)
(0.734932 0 -0.0560298)
(0.860886 0 -0.0218164)
(0.769248 0 -0.0402124)
(0.889277 0 -0.0144333)
(0.797716 0 -0.0292144)
(0.913687 0 -0.0096315)
(0.822086 0 -0.0218218)
(0.935326 0 -0.00672781)
(0.843626 0 -0.0170516)
(0.955078 0 -0.00520861)
(0.863211 0 -0.0141553)
(0.973679 0 -0.00465467)
(0.88147 0 -0.0125796)
(0.991584 0 -0.0047166)
(0.898885 0 -0.0119457)
(1.00913 0 -0.00510641)
(0.915779 0 -0.0118802)
(1.02651 0 -0.00556944)
(0.932357 0 -0.0120721)
(1.04382 0 -0.00589084)
(0.948752 0 -0.012247)
(1.06104 0 -0.00590089)
(0.965006 0 -0.0121819)
(1.07807 0 -0.00548852)
(0.981077 0 -0.0117215)
(1.09468 0 -0.00463126)
(0.996848 0 -0.0107903)
(1.11048 0 -0.00341772)
(1.01214 0 -0.00938328)
(1.12512 0 -0.00198105)
(1.02667 0 -0.00757901)
(1.13838 0 -0.000444293)
(1.04025 0 -0.0056416)
(1.15021 0 0.00111255)
(1.05284 0 -0.00373062)
(1.16053 0 0.00270631)
(1.06446 0 -0.0018677)
(1.16918 0 0.00422198)
(1.07509 0 -4.63482e-05)
(1.17578 0 0.00530434)
(1.08467 0 0.00188381)
(1.18095 0 0.00522308)
(1.09293 0 0.00296861)
(1.10131 0 0.00265788)
(0.145686 0 -0.417503)
(0.0710998 0 -0.493281)
(0.279915 0 -0.362364)
(0.192457 0 -0.452301)
(0.389482 0 -0.285763)
(0.294249 0 -0.361841)
(0.47607 0 -0.217407)
(0.379907 0 -0.276697)
(0.544223 0 -0.162623)
(0.445881 0 -0.207874)
(0.598051 0 -0.120402)
(0.497084 0 -0.154659)
(0.640968 0 -0.0886788)
(0.537287 0 -0.114482)
(0.675739 0 -0.065447)
(0.569316 0 -0.0848394)
(0.704599 0 -0.0489057)
(0.595346 0 -0.0635593)
(0.729282 0 -0.03746)
(0.617095 0 -0.0487111)
(0.751043 0 -0.029766)
(0.635865 0 -0.0386037)
(0.770732 0 -0.0247722)
(0.652549 0 -0.0318777)
(0.788953 0 -0.0216991)
(0.667673 0 -0.0275518)
(0.806166 0 -0.01998)
(0.68159 0 -0.0249354)
(0.822669 0 -0.0191705)
(0.694576 0 -0.0235124)
(0.838692 0 -0.018888)
(0.706841 0 -0.0228456)
(0.85438 0 -0.0188007)
(0.718541 0 -0.0225542)
(0.8698 0 -0.0186252)
(0.729782 0 -0.0223073)
(0.88496 0 -0.0181431)
(0.740623 0 -0.0218384)
(0.899817 0 -0.0172162)
(0.751085 0 -0.020962)
(0.914287 0 -0.0157884)
(0.761148 0 -0.019577)
(0.928251 0 -0.0138891)
(0.770761 0 -0.0176631)
(0.941637 0 -0.0116845)
(0.77987 0 -0.0153279)
(0.95445 0 -0.00940444)
(0.788449 0 -0.012884)
(0.966828 0 -0.00716538)
(0.796557 0 -0.0105617)
(0.978893 0 -0.00490645)
(0.804345 0 -0.0083692)
(0.990503 0 -0.00269487)
(0.811823 0 -0.00615439)
(1.00172 0 -0.000852236)
(0.819205 0 -0.00388033)
(1.01191 0 0.000379283)
(0.82576 0 -0.00214137)
(0.83269 0 -0.000784973)
(0.11644 0 -0.537459)
(0.0510358 0 -0.607327)
(0.215587 0 -0.46154)
(0.143681 0 -0.547116)
(0.29275 0 -0.362318)
(0.206801 0 -0.43389)
(0.35245 0 -0.27577)
(0.262149 0 -0.331123)
(0.398935 0 -0.207241)
(0.301988 0 -0.249252)
(0.435358 0 -0.154758)
(0.332475 0 -0.186315)
(0.464182 0 -0.115468)
(0.355872 0 -0.138941)
(0.487314 0 -0.0867605)
(0.373862 0 -0.104006)
(0.506329 0 -0.0663459)
(0.38777 0 -0.0789415)
(0.522433 0 -0.0521831)
(0.398731 0 -0.0614313)
(0.536418 0 -0.0425456)
(0.407632 0 -0.0493895)
(0.548739 0 -0.0361182)
(0.415026 0 -0.0411552)
(0.559688 0 -0.031973)
(0.421021 0 -0.0356017)
(0.569504 0 -0.0294425)
(0.425717 0 -0.0319819)
(0.578368 0 -0.0280024)
(0.429265 0 -0.0297249)
(0.586433 0 -0.0272082)
(0.431814 0 -0.0283651)
(0.593815 0 -0.0266748)
(0.433504 0 -0.0274862)
(0.600588 0 -0.0260834)
(0.434472 0 -0.0267266)
(0.606808 0 -0.0251953)
(0.434855 0 -0.0258001)
(0.612516 0 -0.0238561)
(0.434766 0 -0.0245118)
(0.617736 0 -0.0219914)
(0.434272 0 -0.022747)
(0.622438 0 -0.0196363)
(0.433378 0 -0.0204513)
(0.62656 0 -0.0170259)
(0.432064 0 -0.0177142)
(0.630242 0 -0.0144506)
(0.430348 0 -0.014965)
(0.63374 0 -0.0119709)
(0.42825 0 -0.0124924)
(0.637287 0 -0.00945858)
(0.425833 0 -0.0102802)
(0.640516 0 -0.00705053)
(0.423126 0 -0.00785343)
(0.643097 0 -0.00527275)
(0.421264 0 -0.00520619)
(0.645226 0 -0.0037489)
(0.416161 0 -0.00320896)
(0.40876 0 -0.00112425)
(0.0822969 0 -0.624866)
(0.0298088 0 -0.687932)
(0.142147 0 -0.527682)
(0.0881868 0 -0.60435)
(0.183501 0 -0.410673)
(0.107826 0 -0.472504)
(0.213605 0 -0.311769)
(0.131029 0 -0.358567)
(0.235825 0 -0.23445)
(0.142058 0 -0.269031)
(0.252207 0 -0.175583)
(0.14933 0 -0.200553)
(0.264127 0 -0.131604)
(0.153037 0 -0.149056)
(0.27256 0 -0.0994679)
(0.153861 0 -0.110993)
(0.278467 0 -0.0765944)
(0.152295 0 -0.0837205)
(0.28258 0 -0.060647)
(0.148995 0 -0.0646793)
(0.285259 0 -0.0495954)
(0.144586 0 -0.0514558)
(0.286523 0 -0.0419011)
(0.13922 0 -0.0421075)
(0.286393 0 -0.0365877)
(0.132653 0 -0.0355058)
(0.284961 0 -0.0330046)
(0.124887 0 -0.0309537)
(0.282348 0 -0.0306307)
(0.116082 0 -0.0278938)
(0.278717 0 -0.0290196)
(0.106401 0 -0.0258805)
(0.274225 0 -0.0277791)
(0.0960364 0 -0.0244846)
(0.269016 0 -0.0265928)
(0.0852008 0 -0.0233281)
(0.263225 0 -0.0252282)
(0.0740724 0 -0.0221112)
(0.256975 0 -0.0235182)
(0.0627375 0 -0.0206247)
(0.250355 0 -0.0213405)
(0.0511616 0 -0.0187268)
(0.243352 0 -0.0186839)
(0.0392106 0 -0.0162993)
(0.23577 0 -0.015869)
(0.0267908 0 -0.0133253)
(0.227806 0 -0.0135032)
(0.0138339 0 -0.0104635)
(0.219851 0 -0.0117483)
(-0.000981368 0 -0.00810172)
(0.212146 0 -0.00988551)
(-0.0169107 0 -0.00612838)
(0.204227 0 -0.00691819)
(-0.0325321 0 -0.00368691)
(0.193338 0 -0.00304664)
(-0.0450644 0 0.000387309)
(0.17914 0 -7.06137e-06)
(-0.0559922 0 0.00391194)
(-0.0682554 0 0.00413792)
(0.0428711 0 -0.674739)
(0.00618832 0 -0.729921)
(0.0590223 0 -0.556547)
(0.0244918 0 -0.619796)
(0.0621615 0 -0.426831)
(-0.00191214 0 -0.475435)
(0.0608743 0 -0.320922)
(-0.0137254 0 -0.357394)
(0.0562828 0 -0.238815)
(-0.0339004 0 -0.264944)
(0.0496171 0 -0.176609)
(-0.0530595 0 -0.19476)
(0.0413672 0 -0.130156)
(-0.0724268 0 -0.142055)
(0.031777 0 -0.0962251)
(-0.0919985 0 -0.103047)
(0.0212118 0 -0.0722069)
(-0.111985 0 -0.0751736)
(0.00999116 0 -0.0554437)
(-0.132075 0 -0.0558165)
(-0.00223344 0 -0.0436182)
(-0.151771 0 -0.042028)
(-0.0154883 0 -0.0352032)
(-0.171119 0 -0.0321266)
(-0.0296489 0 -0.0292412)
(-0.190537 0 -0.0250947)
(-0.044632 0 -0.0251049)
(-0.210105 0 -0.0201982)
(-0.0602847 0 -0.0223436)
(-0.229829 0 -0.0169229)
(-0.0763604 0 -0.0205621)
(-0.249776 0 -0.0148792)
(-0.0926563 0 -0.0193681)
(-0.269887 0 -0.013596)
(-0.109073 0 -0.0184204)
(-0.290104 0 -0.0126181)
(-0.125585 0 -0.0174454)
(-0.310589 0 -0.0115932)
(-0.142249 0 -0.0161949)
(-0.33162 0 -0.0102603)
(-0.159211 0 -0.0143635)
(-0.353325 0 -0.00842693)
(-0.176663 0 -0.0116181)
(-0.375362 0 -0.00595162)
(-0.19507 0 -0.00790582)
(-0.396872 0 -0.00266935)
(-0.215767 0 -0.00396612)
(-0.416744 0 0.00123513)
(-0.23851 0 -0.000895241)
(-0.435412 0 0.0044495)
(-0.260937 0 0.00141849)
(-0.453754 0 0.00595691)
(-0.280814 0 0.00418876)
(-0.471028 0 0.00677039)
(-0.295191 0 0.00691078)
(-0.485434 0 0.00777292)
(-0.304433 0 0.00734468)
(-0.494404 0 0.00854735)
(-0.50049 0 0.00757147)
(-0.00550463 0 -0.680206)
(-0.0223873 0 -0.72453)
(-0.0342609 0 -0.542897)
(-0.0496709 0 -0.592296)
(-0.070658 0 -0.407077)
(-0.122357 0 -0.441451)
(-0.106893 0 -0.300523)
(-0.174256 0 -0.324359)
(-0.142018 0 -0.218803)
(-0.2283 0 -0.233679)
(-0.17538 0 -0.157527)
(-0.27716 0 -0.165764)
(-0.207069 0 -0.112073)
(-0.321652 0 -0.115163)
(-0.237557 0 -0.0792633)
(-0.36237 0 -0.0777867)
(-0.266851 0 -0.0565544)
(-0.400657 0 -0.0514752)
(-0.294679 0 -0.0408975)
(-0.437654 0 -0.033836)
(-0.321215 0 -0.0295485)
(-0.473753 0 -0.021563)
(-0.346806 0 -0.0212296)
(-0.506295 0 -0.0128571)
(-0.371595 0 -0.0154136)
(-0.536151 0 -0.00686937)
(-0.395742 0 -0.0115481)
(-0.563932 0 -0.0028642)
(-0.419571 0 -0.00909048)
(-0.590228 0 -0.000221359)
(-0.443227 0 -0.00754529)
(-0.615523 0 0.0013095)
(-0.46689 0 -0.0064069)
(-0.6401 0 0.00221523)
(-0.490924 0 -0.00512994)
(-0.664009 0 0.00306129)
(-0.515863 0 -0.00336759)
(-0.687289 0 0.00429263)
(-0.541981 0 -0.00114355)
(-0.710154 0 0.00598401)
(-0.568765 0 0.00133383)
(-0.732897 0 0.00783766)
(-0.594834 0 0.00396635)
(-0.755392 0 0.00950505)
(-0.618182 0 0.00669007)
(-0.776748 0 0.010847)
(-0.636857 0 0.00900369)
(-0.795459 0 0.0117906)
(-0.651322 0 0.0102017)
(-0.810248 0 0.0124326)
(-0.663665 0 0.0103539)
(-0.822702 0 0.0126079)
(-0.674663 0 0.0102442)
(-0.833779 0 0.0125569)
(-0.684231 0 0.0101789)
(-0.843532 0 0.0126877)
(-0.692033 0 0.00961891)
(-0.851398 0 0.0124606)
(-0.855833 0 0.0113486)
(-0.0562102 0 -0.635493)
(-0.0581196 0 -0.669475)
(-0.136905 0 -0.486446)
(-0.135048 0 -0.515127)
(-0.217208 0 -0.352825)
(-0.25729 0 -0.36647)
(-0.293067 0 -0.251435)
(-0.355045 0 -0.255201)
(-0.362051 0 -0.175582)
(-0.446989 0 -0.172273)
(-0.423536 0 -0.119855)
(-0.528856 0 -0.112328)
(-0.477875 0 -0.0786363)
(-0.600821 0 -0.0690515)
(-0.526958 0 -0.0479681)
(-0.663648 0 -0.0371196)
(-0.57311 0 -0.0259347)
(-0.715973 0 -0.0141396)
(-0.617667 0 -0.011202)
(-0.761088 0 0.00135805)
(-0.659071 0 -0.00207115)
(-0.801106 0 0.0103685)
(-0.695878 0 0.00343862)
(-0.836378 0 0.0148583)
(-0.728674 0 0.00690564)
(-0.867842 0 0.0172426)
(-0.758487 0 0.00909074)
(-0.896384 0 0.0185368)
(-0.786113 0 0.0104189)
(-0.922788 0 0.0191419)
(-0.812177 0 0.0111604)
(-0.94762 0 0.0191461)
(-0.836857 0 0.0115962)
(-0.971217 0 0.0187057)
(-0.859928 0 0.0120942)
(-0.993537 0 0.0181128)
(-0.881143 0 0.0129053)
(-1.01434 0 0.017806)
(-0.900669 0 0.0139773)
(-1.03362 0 0.0181282)
(-0.919075 0 0.0150252)
(-1.05181 0 0.0190146)
(-0.936791 0 0.015777)
(-1.06943 0 0.0200094)
(-0.953613 0 0.0161366)
(-1.08649 0 0.020585)
(-0.968906 0 0.0161533)
(-1.10235 0 0.020435)
(-0.981973 0 0.0159088)
(-1.11612 0 0.019644)
(-0.992875 0 0.0155189)
(-1.12756 0 0.0184826)
(-1.00211 0 0.0151318)
(-1.13712 0 0.017417)
(-1.00994 0 0.0146337)
(-1.14534 0 0.0167076)
(-1.01682 0 0.0137464)
(-1.152 0 0.0159129)