/*--------------------------------*- C++ -*----------------------------------*\
  =========                 |
  \\      /  F ield         | OpenFOAM: The Open Source CFD Toolbox
   \\    /   O peration     | Website:  https://openfoam.org
    \\  /    A nd           | Version:  dev
     \\/     M anipulation  |
\*---------------------------------------------------------------------------*/
FoamFile
{
    version     2.0;
    format      ascii;
    class       volScalarField;
    location    "0.7";
    object      p;
}
// * * * * * * * * * * * * * * * * * * * * * * * * * * * * * * * * * * * * * //

dimensions      [0 2 -2 0 0 0 0];

internalField   nonuniform List<scalar> 
2790
(
130.565
130.479
130.762
131.357
132.167
133.159
134.331
135.68
137.202
138.89
140.737
142.735
144.874
147.14
149.519
151.987
154.518
157.077
159.622
162.103
164.461
166.635
168.559
170.174
171.431
172.308
172.808
172.943
173.026
173.228
130.36
130.385
130.693
131.284
132.09
133.08
134.247
135.59
137.105
138.785
140.623
142.611
144.739
146.996
149.364
151.823
154.346
156.9
159.444
161.93
164.299
166.491
168.44
170.083
171.37
172.263
172.75
172.905
173.073
173.326
130.157
130.252
130.579
131.16
131.953
132.929
134.082
135.407
136.901
138.556
140.367
142.324
144.418
146.637
148.966
151.383
153.865
156.379
158.887
161.345
163.699
165.892
167.863
169.554
170.916
171.921
172.58
172.989
173.331
173.647
129.926
130.051
130.391
130.964
131.742
132.702
133.835
135.136
136.601
138.224
139.996
141.91
143.956
146.122
148.393
150.748
153.165
155.615
158.063
160.469
162.786
164.963
166.95
168.698
170.168
171.346
172.254
172.956
173.525
174.023
129.657
129.796
130.144
130.709
131.471
132.41
133.517
134.788
136.216
137.796
139.519
141.379
143.363
145.461
147.658
149.934
152.269
154.636
157.003
159.337
161.599
163.747
165.741
167.544
169.131
170.493
171.645
172.617
173.417
174.104
129.346
129.491
129.841
130.396
131.138
132.051
133.126
134.359
135.743
137.272
138.938
140.732
142.643
144.661
146.77
148.953
151.189
153.455
155.725
157.968
160.155
162.253
164.234
166.072
167.751
169.266
170.62
171.815
172.807
173.656
128.991
129.137
129.484
130.026
130.745
131.627
132.666
133.855
135.188
136.658
138.257
139.975
141.803
143.729
145.737
147.812
149.934
152.084
154.237
156.369
158.457
160.478
162.412
164.245
165.969
167.58
169.073
170.431
171.561
172.539
128.592
128.736
129.075
129.601
130.294
131.142
132.14
133.279
134.555
135.958
137.481
139.115
140.849
142.67
144.566
146.519
148.512
150.527
152.543
154.541
156.501
158.409
160.253
162.026
163.729
165.361
166.913
168.361
169.575
170.659
128.149
128.289
128.618
129.124
129.788
130.598
131.549
132.634
133.846
135.176
136.616
138.157
139.787
141.493
143.263
145.081
146.929
148.791
150.648
152.483
154.282
156.032
157.73
159.375
160.972
162.53
164.043
165.493
166.732
167.903
127.665
127.799
128.115
128.598
129.229
129.999
130.899
131.925
133.067
134.317
135.667
137.106
138.623
140.205
141.838
143.506
145.194
146.883
148.556
150.198
151.795
153.337
154.822
156.253
157.64
159
160.343
161.675
162.852
164.09
127.139
127.267
127.567
128.025
128.622
129.347
130.193
131.154
132.222
133.387
134.64
135.971
137.367
138.814
140.299
141.805
143.316
144.812
146.277
147.692
149.044
150.321
151.516
152.632
153.679
154.68
155.665
156.688
157.648
158.903
126.574
126.695
126.978
127.409
127.968
128.646
129.435
130.328
131.317
132.392
133.543
134.758
136.026
137.33
138.657
139.989
141.307
142.592
143.824
144.981
146.043
146.994
147.816
148.502
149.051
149.482
149.834
150.223
150.649
151.773
125.973
126.086
126.35
126.752
127.272
127.899
128.628
129.45
130.356
131.337
132.381
133.476
134.609
135.764
136.924
138.071
139.184
140.241
141.217
142.085
142.817
143.383
143.751
143.886
143.758
143.35
142.672
141.865
141.067
141.572
125.338
125.443
125.687
126.057
126.536
127.112
127.778
128.526
129.347
130.23
131.163
132.133
133.126
134.126
135.113
136.067
136.964
137.779
138.481
139.037
139.405
139.538
139.378
138.853
137.871
136.324
134.092
131.16
127.599
125.753
124.671
124.767
124.99
125.329
125.764
126.286
126.888
127.56
128.293
129.076
129.895
130.738
131.588
132.428
133.237
133.992
134.667
135.231
135.648
135.874
135.857
135.527
134.795
133.536
131.572
128.636
124.305
117.965
108.421
97.1686
22.1673
20.7043
18.1658
14.49
9.74433
4.03168
-2.52048
-9.76788
-17.554
-25.712
-34.0647
-42.4231
-50.5847
-58.3318
-65.4316
-71.6384
-76.7006
-80.3674
-82.3864
-82.5061
-80.5485
-76.2986
-69.6616
-60.6361
-49.3493
-36.0231
-20.8545
-4.46866
9.83328
13.077
22.1599
20.5515
17.9358
14.1878
9.37797
3.60744
-2.9964
-10.2896
-18.1164
-26.311
-34.6974
-43.0876
-51.2799
-59.0571
-66.1865
-72.4225
-77.5132
-81.2108
-83.2806
-83.5043
-81.6162
-77.4723
-70.994
-62.1948
-51.2166
-38.323
-23.7857
-8.06233
6.30581
9.45522
20.8453
19.0535
16.3431
12.5281
7.69029
1.92263
-4.65509
-11.9063
-19.6821
-27.8234
-36.1595
-44.5069
-52.6669
-60.4237
-67.5448
-73.7826
-78.8824
-82.5938
-84.6799
-84.9086
-83.102
-79.0429
-72.6971
-64.1026
-53.4148
-40.928
-26.9763
-11.9291
2.14328
6.06554
18.2108
16.359
13.6472
9.83213
5.0234
-0.691107
-7.19813
-14.369
-22.0627
-30.127
-38.3971
-46.6934
-54.8194
-62.5598
-69.6809
-75.9329
-81.0569
-84.7984
-86.9228
-87.2205
-85.4571
-81.4906
-75.2956
-66.9279
-56.5456
-44.4366
-30.9404
-16.4034
-2.58804
3.00234
14.6163
12.8134
10.1772
6.42025
1.68863
-3.93206
-10.3314
-17.3871
-24.9654
-32.921
-41.095
-49.312
-57.3783
-65.0795
-72.1815
-78.4324
-83.5697
-87.3342
-89.4856
-89.8048
-88.1109
-84.2377
-78.1915
-70.0523
-59.9773
-48.2244
-35.1025
-20.953
-7.24006
0.359865
10.4745
8.77277
6.24648
2.58309
-2.03962
-7.54185
-13.8151
-20.7425
-28.1972
-36.0403
-44.1186
-52.2608
-60.2751
-67.9475
-75.0423
-81.304
-86.4646
-90.2557
-92.4277
-92.7621
-91.0823
-87.2625
-81.3238
-73.3691
-63.5511
-52.086
-39.2338
-25.3183
-11.5028
-1.88074
6.17529
4.59348
2.18247
-1.37513
-5.87861
-11.2578
-17.4054
-24.2089
-31.5467
-39.2849
-47.2745
-55.3476
-63.314
-70.9599
-78.0482
-84.3208
-89.5043
-93.3209
-95.5059
-95.8323
-94.1527
-90.3541
-84.4833
-76.6682
-67.0551
-55.8126
-43.141
-29.3215
-15.2392
-3.75846
2.07894
0.615193
-1.69507
-5.1573
-9.55478
-14.8285
-20.8704
-27.5714
-34.8132
-42.466
-50.3843
-58.4031
-66.3343
-73.9646
-81.0558
-87.3474
-92.5608
-96.4063
-98.6001
-98.9034
-97.1928
-93.3744
-87.5246
-79.7978
-70.334
-59.254
-46.6905
-32.8604
-18.4097
-5.31098
-1.49723
-2.86175
-5.10213
-8.49964
-12.8258
-18.0316
-24.0055
-30.6398
-37.8186
-45.4153
-53.2872
-61.2722
-69.1846
-76.8123
-83.9167
-90.2355
-95.4857
-99.3653
-101.567
-101.837
-100.072
-96.1977
-90.325
-82.6385
-73.2741
-62.3063
-49.7972
-35.8877
-21.0238
-6.57114
-4.29495
-5.59188
-7.80578
-11.1861
-15.4933
-20.6851
-26.6423
-33.2567
-40.4132
-47.9885
-55.8426
-63.8164
-71.7275
-79.3661
-86.4942
-92.8494
-98.1454
-102.068
-104.284
-104.516
-102.68
-98.7215
-92.7903
-85.1052
-75.8
-64.9065
-52.4168
-38.3938
-23.1166
-7.56948
-6.12695
-7.39183
-9.6318
-13.0561
-17.4115
-22.6557
-28.6572
-35.3035
-42.4812
-50.0712
-57.9356
-65.9194
-73.8445
-81.5051
-88.6649
-95.0634
-100.413
-104.389
-106.63
-106.826
-104.918
-100.863
-94.8514
-87.1414
-77.8677
-67.0245
-54.538
-40.3975
-24.7415
-8.3406
-6.89201
-8.15328
-10.4838
-14.021
-18.501
-23.8667
-29.9708
-36.7019
-43.946
-51.584
-59.4821
-67.4916
-75.4403
-83.1278
-90.3193
-96.7618
-102.166
-106.204
-108.487
-108.662
-106.692
-102.546
-96.4536
-88.71
-79.4545
-68.6525
-56.172
-41.9369
-25.9668
-8.92957
-6.54483
-7.84886
-10.3328
-14.0624
-18.7553
-24.3176
-30.5877
-37.452
-44.7942
-52.4962
-60.434
-68.4667
-76.4293
-84.1282
-91.3519
-97.8341
-103.282
-107.371
-109.704
-109.888
-107.881
-103.682
-97.5429
-89.7845
-80.5537
-69.7982
-57.3418
-43.0524
-26.8586
-9.38532
-5.10135
-6.51037
-9.2179
-13.2375
-18.2431
-24.0741
-30.5579
-37.581
-45.0351
-52.8081
-60.7854
-68.835
-76.8011
-84.502
-91.735
-98.2304
-103.692
-107.804
-110.169
-110.378
-108.381
-104.197
-98.0782
-90.3562
-81.1818
-70.4921
-58.0813
-43.7762
-27.4538
-9.72944
-2.61465
-4.25761
-7.23671
-11.6824
-17.1192
-23.2817
-30.0071
-37.1974
-44.7597
-52.5941
-60.5959
-68.6423
-76.5867
-84.2549
-91.446
-97.9063
-103.344
-107.441
-109.81
-110.055
-108.117
-104.023
-98.0135
-90.4074
-81.3472
-70.7578
-58.418
-44.1306
-27.7667
-9.92427
123.961
124.048
124.25
124.554
124.945
125.412
125.946
126.54
127.182
127.86
128.563
129.273
129.976
130.651
131.276
131.826
132.271
132.576
132.698
132.585
132.17
131.364
130.044
128.033
125.058
120.666
114.017
103.359
83.1431
28.1355
123.201
123.278
123.457
123.726
124.07
124.478
124.943
125.454
126.001
126.572
127.153
127.727
128.277
128.783
129.219
129.558
129.768
129.809
129.632
129.177
128.367
127.095
125.218
122.523
118.687
113.183
105.082
92.8479
75.4276
50.5319
122.396
122.463
122.617
122.85
123.145
123.493
123.885
124.313
124.763
125.223
125.68
126.115
126.51
126.843
127.088
127.216
127.191
126.969
126.499
125.715
124.532
122.838
120.484
117.26
112.874
106.925
98.909
88.3225
75.8958
61.9438
121.547
121.603
121.733
121.928
122.173
122.46
122.778
123.119
123.471
123.82
124.15
124.445
124.685
124.845
124.901
124.82
124.564
124.089
123.341
122.251
120.735
118.683
115.957
112.379
107.727
101.748
94.1988
84.8208
73.6433
60.2496
120.656
120.701
120.806
120.962
121.157
121.381
121.625
121.879
122.131
122.367
122.572
122.727
122.813
122.804
122.674
122.39
121.914
121.202
120.197
118.835
117.033
114.695
111.699
107.902
103.142
97.2386
90.0179
81.2593
70.8131
58.8024
119.725
119.759
119.839
119.956
120.099
120.26
120.429
120.596
120.749
120.874
120.954
120.972
120.906
120.733
120.424
119.948
119.267
118.335
117.102
115.504
113.469
110.912
107.731
103.816
99.0428
93.285
86.4244
78.3563
69.0597
58.8698
118.757
118.78
118.834
118.912
119.004
119.102
119.197
119.277
119.332
119.347
119.305
119.189
118.978
118.647
118.17
117.514
116.644
115.517
114.084
112.291
110.073
107.357
104.065
100.111
95.4084
89.8755
83.4515
76.1094
67.869
59.001
117.755
117.768
117.796
117.835
117.876
117.911
117.932
117.928
117.887
117.794
117.635
117.39
117.04
116.561
115.926
115.106
114.067
112.769
111.169
109.219
106.864
104.046
100.703
96.7742
92.2018
86.9384
80.9565
74.2565
66.8592
58.9851
116.723
116.725
116.728
116.728
116.719
116.693
116.642
116.555
116.421
116.225
115.953
115.586
115.106
114.489
113.71
112.743
111.555
110.112
108.375
106.304
103.854
100.98
97.6355
93.7783
89.3721
84.3916
78.8276
72.693
66.0132
58.9801
115.664
115.656
115.634
115.597
115.539
115.454
115.333
115.166
114.942
114.648
114.269
113.788
113.187
112.444
111.536
110.439
109.124
107.56
105.716
103.557
101.049
98.1566
94.8476
91.0937
86.8738
82.177
77.0061
71.3811
65.3308
59.0175
114.584
114.566
114.52
114.446
114.341
114.199
114.011
113.768
113.459
113.073
112.594
112.007
111.295
110.439
109.417
108.207
106.785
105.125
103.201
100.984
98.4477
95.5677
92.3215
88.6917
84.6682
80.2495
75.4455
70.2791
64.7788
59.0796
113.488
113.46
113.391
113.282
113.132
112.935
112.683
112.368
111.98
111.507
110.936
110.253
109.441
108.484
107.364
106.059
104.551
102.816
100.834
98.5843
96.0459
93.2018
90.038
86.5452
82.7206
78.5691
74.1039
69.3483
64.329
59.1585
112.382
112.344
112.253
112.111
111.917
111.668
111.357
110.975
110.513
109.96
109.305
108.535
107.635
106.591
105.386
104.004
102.426
100.637
98.6197
96.3575
93.8367
91.0461
87.9778
84.6285
81.0002
77.1013
72.9469
68.5591
63.9626
59.251
111.27
111.223
111.112
110.939
110.705
110.407
110.04
109.596
109.066
108.441
107.71
106.863
105.886
104.767
103.492
102.047
100.418
98.592
96.556
94.2989
91.8113
89.0868
86.122
82.9178
79.4795
75.8173
71.9466
67.8883
63.6644
59.3532
110.161
110.106
109.975
109.772
109.5
109.158
108.74
108.238
107.647
106.957
106.159
105.245
104.202
103.02
101.688
100.194
98.5286
96.6806
94.6411
92.4027
89.9599
87.3099
84.4527
81.3918
78.1347
74.6923
71.08
67.3165
63.4218
59.4612
109.06
108.997
108.848
108.618
108.312
107.929
107.463
106.911
106.264
105.516
104.66
103.687
102.589
101.355
99.9786
98.4494
96.7597
94.9024
92.8714
90.6622
88.2724
85.7019
82.9531
80.0313
76.945
73.7057
70.3276
66.8279
63.2244
59.5716
107.975
107.905
107.74
107.485
107.147
106.726
106.219
105.62
104.925
104.127
103.22
102.198
101.054
99.7791
98.3682
96.8143
95.1117
93.2555
91.2423
89.0701
86.7386
84.2498
81.6078
78.8191
75.8925
72.8394
69.6731
66.4092
63.0634
59.6813
106.913
106.836
106.656
106.379
106.013
105.559
105.014
104.375
103.637
102.795
101.846
100.783
99.6011
98.295
96.8596
95.2904
93.5839
91.7372
89.7489
87.6189
85.3488
82.9418
80.4032
77.7401
74.9615
72.0783
69.103
66.0494
62.9315
59.7876
105.882
105.8
105.606
105.309
104.917
104.434
103.856
103.181
102.407
101.528
100.543
99.4472
98.2361
96.9064
95.4547
93.8783
92.1752
90.3444
88.386
86.3015
84.0936
81.7667
79.3267
76.7811
74.1387
71.4098
68.6058
65.7393
62.8229
59.8884
104.89
104.803
104.597
104.282
103.868
103.359
102.752
102.047
101.242
100.333
99.3183
98.1958
96.9626
95.6164
94.1553
92.578
90.8841
89.0738
87.1486
85.111
82.9647
80.7149
78.3678
75.9308
73.4126
70.8229
68.1722
65.4717
62.7327
59.9821
103.946
103.853
103.637
103.307
102.874
102.342
101.711
100.98
100.148
99.214
98.1763
97.0335
95.7843
94.4275
92.9626
91.3895
89.7088
87.9221
86.0318
84.0411
81.9546
79.7777
77.5168
75.1794
72.7737
70.3088
67.7943
65.2405
62.6573
60.0674
103.057
102.961
102.735
102.391
101.941
101.39
100.739
99.9862
99.1329
98.1786
97.1226
95.9647
94.7046
93.3421
91.8778
90.3125
88.6481
86.8867
85.0315
83.0867
81.0568
78.9478
76.7661
74.5189
72.2141
69.8603
67.4662
65.041
62.594
60.144
102.233
102.133
101.9
101.544
101.079
100.512
99.843
99.073
98.2025
97.2321
96.1624
94.9937
93.7267
92.3624
90.9019
89.3471
87.7004
85.9648
84.1441
82.2427
80.2657
78.2189
76.1088
73.9425
71.7273
69.4713
67.1826
64.8695
62.5405
60.2114
101.482
101.379
101.139
100.773
100.296
99.7148
99.0317
98.2474
97.3633
96.3807
95.3009
94.125
92.8546
91.4912
90.0368
88.4939
86.8656
85.1554
83.3674
81.5063
79.5775
77.5868
75.5406
73.4455
71.3089
69.1381
66.9407
64.7243
62.4965
60.271
100.815
100.709
100.462
100.086
99.5991
99.0068
98.3121
97.5164
96.6216
95.6297
94.5428
93.3625
92.0909
90.7304
89.2834
87.753
86.1426
84.4563
82.6983
80.8737
78.9879
77.0466
75.0561
73.0229
70.9539
68.856
66.7363
64.6018
62.4597
60.3212
100.24
100.131
99.8778
99.494
98.9977
98.3964
97.6926
96.8881
95.9854
94.987
93.8954
92.7129
91.442
90.0855
88.6464
87.1282
85.5346
83.8699
82.1387
80.346
78.4974
76.5986
74.6556
72.6749
70.6628
68.6261
66.5713
64.5051
62.4341
60.368
99.7698
99.657
99.3955
99.0029
98.4985
97.8895
97.1782
96.3668
95.4581
94.4552
93.3607
92.1774
90.9082
89.5562
88.1247
86.6176
85.0389
83.3929
81.6844
79.9186
78.101
76.2371
74.333
72.3948
70.4288
68.4413
66.4385
64.4267
62.412
60.4026
99.416
99.2968
99.0258
98.6258
98.1156
97.501
96.7841
95.9676
95.0548
94.0488
92.9526
91.7694
90.5022
89.1545
87.7299
86.2322
84.6658
83.0351
81.3451
79.6008
77.8077
75.9715
74.098
72.1931
70.2629
68.3136
66.3511
64.3815
62.4107
60.4461
99.1947
99.0514
98.7628
98.3565
97.8433
97.2254
96.5051
95.6857
94.7708
93.7636
92.6673
91.4849
90.2199
88.8759
87.4565
85.9659
84.4084
82.7886
81.1114
79.3819
77.6056
75.7881
73.9351
72.0525
70.1461
68.2221
66.2861
64.344
62.4013
60.4644
99.1651
98.9588
98.6421
98.2289
97.7124
97.0908
96.3673
95.5457
94.6295
93.6218
92.5258
91.3447
90.082
88.7412
87.3262
85.841
84.29
82.6779
81.0095
79.29
77.5247
75.7192
73.8791
72.0103
70.1185
68.2095
66.2892
64.3631
62.4368
60.5157
-49.1722
-30.4001
-12.2564
34.3669
30.0738
22.9857
48.1349
38.9191
30.5677
46.1367
37.2054
30.3151
47.3709
39.8553
33.619
49.3819
42.8341
37.0992
50.6724
44.8461
39.6949
51.5908
46.4148
41.8459
52.3993
47.7895
43.7351
53.126
48.9961
45.3819
53.7742
50.0549
46.8169
54.3582
50.9935
48.0779
54.8892
51.8327
49.1946
55.3741
52.5869
50.189
55.8178
53.2669
51.0778
56.2235
53.8808
51.874
56.5934
54.4345
52.5872
56.9293
54.9325
53.2248
57.2324
55.3787
53.7931
57.504
55.7761
54.2972
57.7452
56.1277
54.7417
57.9578
56.4366
55.1311
58.1427
56.7049
55.4686
58.3033
56.9369
55.7596
58.4383
57.1322
56.0046
58.5562
57.3
56.2129
58.6461
57.4297
56.3757
58.7343
57.5482
56.5177
58.78
57.6153
56.603
58.8558
57.708
56.7043
0.742174
-1.46707
-4.6669
-9.68016
-15.6321
-22.1437
-29.1011
-36.4377
-44.0805
-51.9457
-59.9394
-67.9481
-75.8331
-83.4269
-90.5314
-96.9062
-102.269
-106.302
-108.637
-108.908
-107.052
-103.127
-97.3315
-89.9365
-81.0605
-70.6159
-58.3784
-44.1489
-27.8213
-9.9797
14.0955
5.25464
-1.21483
-7.57587
-14.1198
-20.9214
-28.0306
-35.4378
-43.0946
-50.931
-58.8615
-66.78
-74.5544
-82.0233
-88.9934
-95.2332
-100.471
-104.398
-106.673
-106.972
-105.239
-101.553
-96.0548
-88.9484
-80.3161
-70.0576
-57.9571
-43.8361
-27.6307
-9.93119
18.735
7.98036
0.874618
-5.86845
-12.8051
-19.8381
-27.0066
-34.375
-41.9438
-49.6629
-57.4538
-65.2143
-72.8164
-80.1032
-86.8868
-92.9439
-98.0146
-101.808
-104.017
-104.36
-102.791
-99.39
-94.2385
-87.4685
-79.1165
-69.0715
-57.1398
-43.1839
-27.1965
-9.79283
20.5315
9.91698
2.13977
-4.87206
-11.8609
-18.8997
-26.0323
-33.3035
-40.7187
-48.245
-55.819
-63.3482
-70.7106
-77.7547
-84.2986
-90.1284
-94.9993
-98.6431
-100.787
-101.196
-99.8262
-96.7353
-91.9477
-85.5243
-77.4584
-67.6371
-55.9035
-42.1782
-26.519
-9.57844
24.5432
14.03
5.1187
-2.88087
-10.3985
-17.6501
-24.8186
-32.0243
-39.3036
-46.6374
-53.9747
-61.2368
-68.3154
-75.0709
-81.3327
-86.9006
-91.548
-95.0323
-97.1161
-97.6057
-96.4526
-93.6724
-89.225
-83.1161
-75.3115
-65.7116
-54.2109
-40.7985
-25.5975
-9.30237
28.9192
18.9861
9.46704
0.60052
-7.61879
-15.3587
-22.8119
-30.1262
-37.3813
-44.5974
-51.7495
-58.7769
-65.5867
-72.0555
-78.0299
-83.3289
-87.7487
-91.0745
-93.1015
-93.6696
-92.7182
-90.2064
-86.0345
-80.1777
-72.5974
-63.2244
-52.014
-39.0241
-24.435
-8.98008
32.6076
23.6411
14.2003
5.01227
-3.62036
-11.7742
-19.5827
-27.1436
-34.52
-41.7438
-48.8124
-55.6872
-62.295
-68.5308
-74.2606
-79.3246
-83.5435
-86.7294
-88.7051
-89.332
-88.524
-86.1915
-82.2127
-76.5546
-69.1904
-60.0908
-49.2707
-36.8474
-23.0446
-8.62431
35.7323
27.7888
18.8555
9.82152
1.15563
-7.1439
-15.1542
-22.9129
-30.4382
-37.7397
-44.8106
-51.6197
-58.107
-64.184
-69.7351
-74.6211
-78.6851
-81.7619
-83.6927
-84.3443
-83.5996
-81.3593
-77.5269
-72.0723
-64.9815
-56.2621
-45.9788
-34.2921
-21.4539
-8.23952
38.4154
31.4093
23.1907
14.6276
6.24525
-1.91095
-9.87988
-17.6568
-25.2189
-32.5454
-39.6112
-46.377
-52.7835
-58.7498
-64.1724
-68.9282
-72.8776
-75.872
-77.7631
-78.41
-77.6816
-75.5098
-71.8506
-66.6754
-59.9759
-51.7871
-42.2084
-31.4265
-19.7077
-7.81967
40.7053
34.5163
27.0729
19.1508
11.2654
3.48383
-4.21273
-11.797
-19.22
-26.4366
-33.4025
-40.066
-46.3616
-52.2085
-57.5087
-62.1484
-66.0002
-68.9269
-70.7863
-71.431
-70.7394
-68.6924
-65.2913
-60.5081
-54.3368
-46.8293
-38.1046
-28.3603
-17.8646
-7.35258
42.6677
37.1754
30.4796
23.2523
15.9708
8.70687
1.4489
-5.76853
-12.885
-19.8412
-26.5798
-33.0389
-39.1469
-44.8204
-49.9638
-54.469
-58.2169
-61.0799
-62.9239
-63.6071
-63.0267
-61.1993
-58.1537
-53.8674
-48.3378
-41.6246
-33.854
-25.2219
-15.9876
-6.82905
44.3679
39.4663
33.4492
26.898
20.2446
13.5578
6.82683
0.0848088
-6.60663
-13.1834
-19.5828
-25.7378
-31.5738
-37.0068
-41.9434
-46.2809
-49.9081
-52.7076
-54.5579
-55.3344
-54.9493
-53.4284
-50.8153
-47.0972
-42.2771
-36.4169
-29.6401
-22.1321
-14.1349
-6.25063
45.8556
41.4555
36.0374
30.1081
24.0567
17.9471
11.7669
5.54448
-0.662649
-6.792
-12.7809
-18.5628
-24.0639
-29.2028
-33.8906
-38.0311
-41.5223
-44.2586
-46.1339
-47.0451
-46.9163
-45.7577
-43.6195
-40.4996
-36.4086
-31.4066
-25.609
-19.185
-12.3536
-5.63134
47.1665
43.1943
38.2987
32.9253
27.4259
21.859
16.211
10.5047
4.79168
-0.870195
-6.42199
-11.8007
-16.937
-21.7547
-26.1715
-30.0996
-33.4473
-36.1215
-38.0311
-39.0919
-39.2351
-38.4705
-36.8167
-34.2888
-30.907
-26.7281
-21.8559
-16.4411
-10.6768
-4.99365
48.3272
44.7217
40.28
35.397
30.3915
25.3175
20.1607
14.939
9.69757
4.48875
-0.633782
-5.61249
-10.3841
-14.8794
-19.0241
-22.7396
-25.945
-28.5594
-30.5051
-31.7131
-32.1292
-31.7399
-30.5517
-28.5852
-25.8671
-22.4509
-18.428
-13.93
-9.12405
-4.36181
49.3579
46.0674
42.0196
37.5663
32.9973
28.3624
23.6474
18.8657
14.0569
9.26745
4.54543
-0.057588
-4.485
-8.67509
-12.5619
-16.0762
-19.1472
-21.7051
-23.6837
-25.0255
-25.6867
-25.6416
-24.8839
-23.4337
-21.3209
-18.5953
-15.3368
-11.6587
-7.70393
-3.75638
50.2738
47.2544
43.5485
39.4705
35.2844
31.0368
26.7131
22.3236
17.9024
13.4906
9.13094
4.86901
0.754926
-3.15686
-6.80832
-10.1389
-13.0872
-15.5928
-17.5992
-19.0573
-19.9302
-20.1882
-19.817
-18.8312
-17.2606
-15.151
-12.572
-9.62027
-6.41732
-3.19154
51.0868
48.3009
44.8916
41.1407
37.2893
33.3808
29.4008
25.3568
21.2782
17.2012
13.1635
9.20511
5.37022
1.70661
-1.73491
-4.90157
-7.73993
-10.1977
-12.2262
-13.7829
-14.8355
-15.355
-15.3237
-14.7491
-13.6583
-12.0929
-10.113
-7.80114
-5.26042
-2.67502
51.8068
49.2219
46.0695
42.6031
39.0432
35.4302
31.7503
28.0085
24.2301
20.447
16.6921
13.0007
9.41152
5.96638
2.70974
-0.312336
-3.05332
-5.46774
-7.51311
-9.15225
-10.356
-11.0994
-11.3639
-11.1491
-10.479
-9.39069
-7.93619
-6.18571
-4.22701
-2.20954
52.4421
50.0299
47.0997
43.88
40.573
37.2165
33.7973
30.3182
26.8012
23.2741
19.7658
16.3074
12.9327
9.67832
6.58321
3.68768
1.0324
-1.34288
-3.40085
-5.10856
-6.43928
-7.37354
-7.89257
-7.98997
-7.68623
-7.01397
-6.01797
-4.75819
-3.30964
-1.79458
52.9996
50.7356
47.9969
44.9904
41.902
38.7672
35.5731
32.3213
29.0304
25.7249
22.4303
19.1738
15.985
12.8961
9.94123
7.1558
4.5755
2.23528
0.168037
-1.59691
-3.03549
-4.13053
-4.86554
-5.23236
-5.24603
-4.93456
-4.33673
-3.50397
-2.50079
-1.42812
53.486
51.3485
48.7742
45.9511
43.0506
40.1062
37.1056
34.0489
30.9524
27.8375
24.7268
21.6441
18.6154
15.669
12.8352
10.1449
7.62982
5.32075
3.24686
1.43432
-0.0951692
-1.32585
-2.24363
-2.84068
-3.12711
-3.12645
-2.87228
-2.40904
-1.79258
-1.10704
53.9064
51.8766
49.4424
46.7759
44.0359
41.254
38.4182
35.528
32.5973
29.645
26.6911
23.7567
20.8647
18.0402
15.3099
12.7013
10.2424
7.96065
5.88212
4.03023
2.42466
1.08
0.00819816
-0.784027
-1.30286
-1.56779
-1.60796
-1.46205
-1.17875
-0.828923
54.2673
52.328
50.0124
47.4784
44.8741
42.2293
39.5328
36.7831
33.9923
31.1773
28.3559
25.5468
22.7703
20.0489
17.4062
14.8669
12.4559
10.198
8.11632
6.23221
4.56356
3.12388
1.92336
0.967385
0.252729
-0.236797
-0.526584
-0.650533
-0.651458
-0.589875
54.5711
52.707
50.4903
48.0669
45.5757
43.0452
40.4646
37.8318
35.1574
32.4566
29.7454
27.0405
24.3603
21.7246
19.155
16.6736
14.3029
12.0651
9.98142
8.07114
6.3507
4.8327
3.52544
2.43424
1.55704
0.880324
0.381934
0.0318925
-0.207783
-0.389259
54.8266
53.0237
50.8878
48.555
46.1562
43.7189
41.2327
38.6952
36.1157
33.508
30.8866
28.2667
25.6648
23.0991
20.5892
18.155
15.8173
13.5962
11.5113
9.58007
7.81786
6.23639
4.84313
3.64227
2.63262
1.80282
1.13331
0.597292
0.160664
-0.222364
55.0283
53.2738
51.2017
48.9403
46.6145
44.2507
41.8391
39.3767
36.872
34.3376
31.7869
29.2338
26.6937
24.1832
21.7202
19.3235
17.0119
14.8042
12.7184
10.7711
8.97624
7.34499
5.88437
4.59791
3.48426
2.53374
1.72888
1.04533
0.452122
-0.09116
55.1966
53.4777
51.4536
49.2458
46.9745
44.6656
42.3096
39.9032
37.454
34.9741
32.4759
29.9724
27.478
25.0083
22.58
20.2107
17.9182
15.7202
13.6335
11.6737
9.85425
8.18563
6.67454
5.32369
4.13151
3.08942
2.18153
1.38532
0.672129
0.00595064
55.3033
53.6072
51.6147
49.4433
47.2087
44.9366
42.6176
40.2486
37.8367
35.3932
32.9301
30.4599
27.9962
25.554
23.1492
20.7986
18.5193
16.3282
14.2414
12.2739
10.4387
8.74607
7.20294
5.81152
4.569
3.46706
2.49063
1.61808
0.821463
0.0659612
55.4058
53.7131
51.7368
49.5853
47.3699
45.116
42.8153
40.4644
38.0704
35.6441
33.1974
30.7423
28.2923
25.8621
23.4672
21.1241
18.8495
16.66
14.5714
12.5984
10.7532
9.04555
7.48136
6.064
4.7921
3.65697
2.64334
1.72942
0.886291
0.0758297
)
;

boundaryField
{
    inlet
    {
        type            zeroGradient;
    }
    outlet
    {
        type            fixedValue;
        value           uniform 0;
    }
    flap
    {
        type            zeroGradient;
    }
    upperWall
    {
        type            zeroGradient;
    }
    lowerWall
    {
        type            zeroGradient;
    }
    frontAndBack
    {
        type            empty;
    }
}


// ************************************************************************* //
