/*--------------------------------*- C++ -*----------------------------------*\
  =========                 |
  \\      /  F ield         | OpenFOAM: The Open Source CFD Toolbox
   \\    /   O peration     | Website:  https://openfoam.org
    \\  /    A nd           | Version:  dev
     \\/     M anipulation  |
\*---------------------------------------------------------------------------*/
FoamFile
{
    version     2.0;
    format      ascii;
    class       surfaceVectorField;
    location    "0.7";
    object      Uf;
}
// * * * * * * * * * * * * * * * * * * * * * * * * * * * * * * * * * * * * * //

dimensions      [0 1 -1 0 0 0 0];

internalField   nonuniform List<vector> 
5457
(
(9.92007 0 0.0253949)
(9.97091 0 0.0391444)
(9.82169 0 0.0332907)
(9.92719 0 0.0493442)
(9.70516 0 0.0399403)
(9.85226 0 0.0598609)
(9.56833 0 0.0467902)
(9.75116 0 0.0719884)
(9.41118 0 0.053864)
(9.62898 0 0.0846814)
(9.23388 0 0.0612033)
(9.48676 0 0.0978466)
(9.03621 0 0.0689541)
(9.32382 0 0.111732)
(8.81755 0 0.077266)
(9.13937 0 0.126583)
(8.57705 0 0.0862694)
(8.93267 0 0.142595)
(8.31365 0 0.0960876)
(8.7028 0 0.15995)
(8.02613 0 0.106845)
(8.44866 0 0.178822)
(7.71313 0 0.118665)
(8.16895 0 0.199381)
(7.37317 0 0.131672)
(7.86224 0 0.221785)
(7.00477 0 0.145975)
(7.52701 0 0.246159)
(6.60645 0 0.161666)
(7.16174 0 0.272581)
(6.17694 0 0.178796)
(6.76495 0 0.301043)
(5.71526 0 0.197353)
(6.33542 0 0.331418)
(5.22098 0 0.217231)
(5.87227 0 0.363398)
(4.69451 0 0.238189)
(5.37527 0 0.396433)
(4.1374 0 0.259794)
(4.84514 0 0.429649)
(3.55278 0 0.281363)
(4.28389 0 0.461774)
(2.94577 0 0.301885)
(3.69529 0 0.491053)
(2.32396 0 0.319928)
(3.08534 0 0.5152)
(1.69774 0 0.333505)
(2.46282 0 0.531397)
(1.08046 0 0.339864)
(1.83992 0 0.536484)
(0.487345 0 0.327702)
(1.23251 0 0.527953)
(-0.059181 0 0.158544)
(0.671479 0 0.49825)
(-0.355889 0 -0.110676)
(0.139103 0 0.277042)
(-0.340951 0 -0.281727)
(-0.0673223 0 -0.0142852)
(-0.0740436 0 -0.333941)
(9.99559 0 0.0525386)
(9.99672 0 0.0413025)
(9.95645 0 0.0722509)
(9.97712 0 0.0689791)
(9.89376 0 0.0898522)
(9.93057 0 0.0920619)
(9.80944 0 0.10828)
(9.85892 0 0.116354)
(9.70332 0 0.127601)
(9.76589 0 0.141861)
(9.57534 0 0.147869)
(9.65258 0 0.168478)
(9.42522 0 0.169391)
(9.5186 0 0.196585)
(9.25239 0 0.192496)
(9.36328 0 0.226634)
(9.05603 0 0.217475)
(9.18595 0 0.259023)
(8.83508 0 0.244597)
(8.98579 0 0.294118)
(8.58834 0 0.274121)
(8.76181 0 0.332281)
(8.31442 0 0.306291)
(8.51278 0 0.373864)
(8.01183 0 0.341322)
(8.23736 0 0.419196)
(7.67899 0 0.379367)
(7.93407 0 0.468555)
(7.31434 0 0.420484)
(7.6014 0 0.522124)
(6.91643 0 0.464578)
(7.23782 0 0.579932)
(6.4841 0 0.511331)
(6.84194 0 0.641771)
(6.01663 0 0.560112)
(6.41264 0 0.707085)
(5.51411 0 0.609866)
(5.94929 0 0.774832)
(4.97771 0 0.658991)
(5.45202 0 0.843325)
(4.41019 0 0.705208)
(4.92214 0 0.910039)
(3.81639 0 0.74542)
(4.36253 0 0.971419)
(3.20394 0 0.775555)
(3.77829 0 1.02265)
(2.58416 0 0.790279)
(3.17746 0 1.05733)
(1.97411 0 0.782089)
(2.57213 0 1.06669)
(1.40274 0 0.736536)
(1.97944 0 1.03655)
(0.922379 0 0.603217)
(1.42171 0 0.93618)
(0.476295 0 0.34072)
(0.92097 0 0.69356)
(0.113392 0 -0.105272)
(0.488123 0 0.332761)
(0.178456 0 -0.22288)
(9.98823 0 0.0608868)
(9.99448 0 0.0470678)
(9.95204 0 0.0918031)
(9.97231 0 0.0871317)
(9.89289 0 0.121152)
(9.92667 0 0.122444)
(9.81345 0 0.151738)
(9.85802 0 0.158149)
(9.7141 0 0.183906)
(9.76896 0 0.195395)
(9.59476 0 0.217825)
(9.66064 0 0.234345)
(9.45521 0 0.253924)
(9.53293 0 0.275464)
(9.29504 0 0.292694)
(9.38535 0 0.319354)
(9.11362 0 0.334599)
(9.2174 0 0.36659)
(8.91009 0 0.380084)
(9.02848 0 0.417713)
(8.68342 0 0.429586)
(8.81778 0 0.473259)
(8.43241 0 0.483525)
(8.58436 0 0.533754)
(8.15573 0 0.542278)
(8.3271 0 0.599702)
(7.85193 0 0.606139)
(8.04481 0 0.671544)
(7.51952 0 0.675252)
(7.73618 0 0.749605)
(7.15701 0 0.749529)
(7.39988 0 0.834013)
(6.76305 0 0.828527)
(7.0346 0 0.924581)
(6.33655 0 0.911294)
(6.63914 0 1.02065)
(5.87698 0 0.996182)
(6.21259 0 1.12089)
(5.38462 0 1.08062)
(5.75451 0 1.22304)
(4.86101 0 1.16087)
(5.26523 0 1.32362)
(4.3095 0 1.23172)
(4.74627 0 1.41758)
(3.7359 0 1.28612)
(4.20083 0 1.49789)
(3.1495 0 1.31452)
(3.63442 0 1.55494)
(2.56413 0 1.30328)
(3.05547 0 1.57544)
(1.99826 0 1.23053)
(2.47544 0 1.54025)
(1.46652 0 1.05652)
(1.90679 0 1.42095)
(0.949503 0 0.751347)
(1.35747 0 1.17631)
(0.466537 0 0.278571)
(0.815243 0 0.794625)
(0.390122 0 0.234064)
(9.98435 0 0.0736406)
(9.99334 0 0.0547301)
(9.94809 0 0.116866)
(9.9695 0 0.105318)
(9.88998 0 0.158469)
(9.92375 0 0.152299)
(9.81183 0 0.200905)
(9.85632 0 0.199263)
(9.7144 0 0.245033)
(9.76909 0 0.247898)
(9.59771 0 0.291328)
(9.66307 0 0.29874)
(9.46166 0 0.340391)
(9.53828 0 0.352363)
(9.30599 0 0.392885)
(9.39442 0 0.409474)
(9.13025 0 0.449455)
(9.23108 0 0.470786)
(8.93385 0 0.510725)
(9.04783 0 0.536981)
(8.71603 0 0.577312)
(8.84406 0 0.608731)
(8.47592 0 0.649814)
(8.61907 0 0.686701)
(8.21254 0 0.728784)
(8.37202 0 0.77153)
(7.92481 0 0.814683)
(8.10203 0 0.863796)
(7.6116 0 0.907802)
(7.80812 0 0.963951)
(7.27171 0 1.00816)
(7.48929 0 1.07223)
(6.90401 0 1.11534)
(7.14449 0 1.18854)
(6.50745 0 1.2283)
(6.7727 0 1.31221)
(6.08122 0 1.34512)
(6.37301 0 1.44184)
(5.62499 0 1.46265)
(5.94465 0 1.57489)
(5.13916 0 1.57617)
(5.48725 0 1.70736)
(4.62529 0 1.67895)
(5.00101 0 1.83329)
(4.08658 0 1.7617)
(4.48707 0 1.94424)
(3.52831 0 1.81184)
(3.94782 0 2.02868)
(2.95785 0 1.81226)
(3.38713 0 2.07123)
(2.38314 0 1.73951)
(2.81009 0 2.05182)
(1.80831 0 1.56251)
(2.22153 0 1.945)
(1.2261 0 1.26071)
(1.62397 0 1.71993)
(0.629131 0 0.817703)
(0.995052 0 1.36551)
(0.468884 0 0.850259)
(9.98257 0 0.0870065)
(9.99284 0 0.0632642)
(9.94592 0 0.140988)
(9.96822 0 0.123702)
(9.88877 0 0.193594)
(9.9226 0 0.181658)
(9.81209 0 0.247008)
(9.85648 0 0.239607)
(9.71662 0 0.302449)
(9.77128 0 0.299341)
(9.6025 0 0.360645)
(9.66781 0 0.361722)
(9.46963 0 0.422314)
(9.54613 0 0.427464)
(9.3178 0 0.488218)
(9.40601 0 0.497368)
(9.14667 0 0.559111)
(9.24711 0 0.572254)
(8.95575 0 0.635728)
(9.06908 0 0.652918)
(8.74446 0 0.718793)
(8.87141 0 0.740141)
(8.51213 0 0.80901)
(8.65354 0 0.834693)
(8.25801 0 0.907041)
(8.4148 0 0.937315)
(7.98131 0 1.01345)
(8.15449 0 1.04868)
(7.68118 0 1.12864)
(7.87184 0 1.16934)
(7.35674 0 1.25271)
(7.56607 0 1.29963)
(7.0071 0 1.38533)
(7.23635 0 1.43953)
(6.63134 0 1.52548)
(6.88182 0 1.58847)
(6.22862 0 1.67117)
(6.50155 0 1.74508)
(5.79819 0 1.81905)
(6.09459 0 1.90684)
(5.33955 0 1.96395)
(5.66001 0 2.06963)
(4.85262 0 2.09838)
(5.19689 0 2.22719)
(4.338 0 2.21189)
(4.70451 0 2.37062)
(3.79706 0 2.29053)
(4.18247 0 2.48772)
(3.23176 0 2.31624)
(3.63076 0 2.56254)
(2.64378 0 2.26661)
(3.04961 0 2.57519)
(2.0326 0 2.11591)
(2.43883 0 2.5022)
(1.39199 0 1.84678)
(1.79908 0 2.31808)
(0.714495 0 1.43972)
(1.10188 0 2.01341)
(0.503467 0 1.55006)
(9.98185 0 0.100667)
(9.99267 0 0.0721545)
(9.94516 0 0.164836)
(9.96788 0 0.142103)
(9.88918 0 0.228129)
(9.92283 0 0.210413)
(9.81438 0 0.292432)
(9.85831 0 0.278962)
(9.72135 0 0.359083)
(9.77552 0 0.349471)
(9.61028 0 0.428983)
(9.67508 0 0.423021)
(9.4811 0 0.502956)
(9.55704 0 0.500482)
(9.33362 0 0.581855)
(9.42123 0 0.582743)
(9.16755 0 0.666537)
(9.26738 0 0.67072)
(8.98247 0 0.75784)
(9.09516 0 0.765306)
(8.77789 0 0.856588)
(8.90414 0 0.867379)
(8.55323 0 0.963583)
(8.69381 0 0.977798)
(8.30787 0 1.07958)
(8.4636 0 1.09739)
(8.04114 0 1.20523)
(8.21288 0 1.2269)
(7.75234 0 1.34101)
(7.94098 0 1.36698)
(7.44072 0 1.48715)
(7.64718 0 1.51804)
(7.10549 0 1.64338)
(7.33072 0 1.68017)
(6.74578 0 1.80881)
(6.99071 0 1.85293)
(6.36061 0 1.98154)
(6.62615 0 2.03511)
(5.94886 0 2.1583)
(6.23582 0 2.22439)
(5.50924 0 2.33396)
(5.8182 0 2.41687)
(5.04028 0 2.50095)
(5.37142 0 2.60656)
(4.54041 0 2.64867)
(4.89319 0 2.78479)
(4.0079 0 2.76301)
(4.38084 0 2.93959)
(3.44091 0 2.82607)
(3.83136 0 3.05532)
(2.83719 0 2.8166)
(3.24155 0 3.11258)
(2.19354 0 2.71124)
(2.60789 0 3.089)
(1.50521 0 2.49327)
(1.93108 0 2.96078)
(0.769871 0 2.13564)
(1.17828 0 2.71661)
(0.525568 0 2.3041)
(9.98171 0 0.114363)
(9.9927 0 0.08111)
(9.94544 0 0.188292)
(9.96818 0 0.160298)
(9.89088 0 0.261816)
(9.9241 0 0.238438)
(9.81831 0 0.336608)
(9.8615 0 0.317145)
(9.72817 0 0.414049)
(9.78147 0 0.398044)
(9.62066 0 0.495188)
(9.68452 0 0.482353)
(9.49576 0 0.580971)
(9.57067 0 0.57108)
(9.3533 0 0.672349)
(9.4398 0 0.665212)
(9.19303 0 0.77027)
(9.29169 0 0.765748)
(9.01458 0 0.875668)
(9.12605 0 0.873674)
(8.81749 0 0.989455)
(8.9425 0 0.989955)
(8.60125 0 1.11252)
(8.74056 0 1.11554)
(8.36529 0 1.24568)
(8.51972 0 1.25133)
(8.10898 0 1.38969)
(8.27937 0 1.39817)
(7.83164 0 1.54512)
(8.01885 0 1.55678)
(7.53251 0 1.71227)
(7.73743 0 1.7277)
(7.21077 0 1.89103)
(7.43426 0 1.91113)
(6.86541 0 2.08069)
(7.10836 0 2.10685)
(6.4952 0 2.27959)
(6.75846 0 2.31388)
(6.09855 0 2.48481)
(6.38297 0 2.53029)
(5.6734 0 2.69162)
(5.97978 0 2.75268)
(5.21708 0 2.89294)
(5.54606 0 2.97571)
(4.72622 0 3.07873)
(5.07819 0 3.19149)
(4.19675 0 3.23546)
(4.57159 0 3.38889)
(3.62402 0 3.34586)
(4.02086 0 3.55309)
(3.00311 0 3.38928)
(3.42017 0 3.66528)
(2.32935 0 3.34269)
(2.7634 0 3.70325)
(1.59969 0 3.18756)
(2.05199 0 3.64208)
(0.816378 0 2.88656)
(1.24894 0 3.4657)
(0.546788 0 3.1037)
(9.98195 0 0.127882)
(9.99284 0 0.0899503)
(9.94648 0 0.21118)
(9.96892 0 0.17809)
(9.89363 0 0.294465)
(9.92617 0 0.265587)
(9.82361 0 0.379305)
(9.8658 0 0.353981)
(9.73678 0 0.467105)
(9.78889 0 0.444832)
(9.63334 0 0.559029)
(9.69586 0 0.53944)
(9.5133 0 0.656135)
(9.58672 0 0.638933)
(9.37652 0 0.759462)
(9.46139 0 0.744393)
(9.22278 0 0.870045)
(9.3197 0 0.8569)
(9.05176 0 0.988904)
(9.1614 0 0.977525)
(8.86306 0 1.11704)
(8.98615 0 1.10732)
(8.65619 0 1.25541)
(8.79352 0 1.24731)
(8.43059 0 1.40496)
(8.58303 0 1.3985)
(8.18565 0 1.56649)
(8.35407 0 1.56183)
(7.92066 0 1.7407)
(8.10598 0 1.73813)
(7.63478 0 1.92804)
(7.83797 0 1.92806)
(7.32704 0 2.12859)
(7.54908 0 2.13205)
(6.9962 0 2.34188)
(7.23811 0 2.35008)
(6.64066 0 2.56666)
(6.90352 0 2.5816)
(6.25831 0 2.80052)
(6.54325 0 2.82516)
(5.84629 0 3.03948)
(6.15457 0 3.07812)
(5.40082 0 3.27735)
(5.73374 0 3.33609)
(4.91696 0 3.50516)
(5.27586 0 3.59238)
(4.38866 0 3.71046)
(4.77465 0 3.8372)
(3.80892 0 3.87682)
(4.2225 0 4.05695)
(3.17054 0 3.98379)
(3.6111 0 4.23352)
(2.46748 0 4.00711)
(2.93153 0 4.3442)
(1.69749 0 3.92418)
(2.18535 0 4.36104)
(0.866073 0 3.6849)
(1.33066 0 4.26079)
(0.574271 0 3.95196)
(9.98243 0 0.141065)
(9.99308 0 0.0985541)
(9.94809 0 0.233339)
(9.96998 0 0.195316)
(9.89723 0 0.325916)
(9.92886 0 0.291713)
(9.83009 0 0.420337)
(9.87104 0 0.389304)
(9.74697 0 0.518025)
(9.79759 0 0.489622)
(9.64806 0 0.620234)
(9.70888 0 0.594025)
(9.53341 0 0.728117)
(9.60493 0 0.703738)
(9.40293 0 0.842801)
(9.4857 0 0.819932)
(9.25642 0 0.965401)
(9.35105 0 0.943765)
(9.09362 0 1.09702)
(9.2008 0 1.07639)
(8.91416 0 1.23874)
(9.03464 0 1.21893)
(8.7176 0 1.39163)
(8.85221 0 1.37252)
(8.50341 0 1.5567)
(8.65304 0 1.53824)
(8.27096 0 1.73489)
(8.43656 0 1.71715)
(8.0195 0 1.92703)
(8.2021 0 1.91021)
(7.74811 0 2.13376)
(7.9488 0 2.11828)
(7.45564 0 2.3554)
(7.6756 0 2.342)
(7.1406 0 2.59187)
(7.38112 0 2.58171)
(6.801 0 2.84241)
(7.06353 0 2.83732)
(6.43416 0 3.10535)
(6.72035 0 3.10807)
(6.03647 0 3.37765)
(6.34823 0 3.39224)
(5.60305 0 3.65442)
(5.94259 0 3.68672)
(5.12754 0 3.92815)
(5.49734 0 3.98636)
(4.60193 0 4.18794)
(5.00451 0 4.28323)
(4.01681 0 4.41852)
(4.45422 0 4.56547)
(3.3623 0 4.59956)
(3.83519 0 4.81612)
(2.62993 0 4.7046)
(3.13458 0 5.01188)
(1.81636 0 4.705)
(2.3521 0 5.12069)
(0.928741 0 4.53486)
(1.43883 0 5.10962)
(0.61488 0 4.86161)
(9.98309 0 0.153785)
(9.99337 0 0.106834)
(9.95014 0 0.254628)
(9.97129 0 0.211845)
(9.90154 0 0.356018)
(9.93207 0 0.316677)
(9.83758 0 0.459519)
(9.87707 0 0.422956)
(9.75853 0 0.566581)
(9.8074 0 0.532219)
(9.66459 0 0.678525)
(9.72337 0 0.64587)
(9.55583 0 0.796592)
(9.62505 0 0.765213)
(9.4322 0 0.921986)
(9.51242 0 0.8915)
(9.29357 0 1.0559)
(9.38539 0 1.02596)
(9.13971 0 1.19952)
(9.24383 0 1.16982)
(8.97031 0 1.354)
(9.08751 0 1.32429)
(8.78497 0 1.52051)
(8.9161 0 1.49057)
(8.58321 0 1.70017)
(8.72919 0 1.66987)
(8.3644 0 1.89406)
(8.52625 0 1.86335)
(8.12777 0 2.10317)
(8.30662 0 2.07214)
(7.87235 0 2.32837)
(8.06945 0 2.29731)
(7.59683 0 2.57032)
(7.81359 0 2.53977)
(7.29953 0 2.82936)
(7.53756 0 2.80029)
(6.97811 0 3.10539)
(7.23931 0 3.07934)
(6.62944 0 3.39762)
(6.91606 0 3.37697)
(6.24921 0 3.70423)
(6.56398 0 3.69258)
(5.83156 0 4.02192)
(6.17782 0 4.02458)
(5.36874 0 4.34514)
(5.75041 0 4.36983)
(4.85073 0 4.6651)
(5.2722 0 4.7228)
(4.26529 0 4.96841)
(4.73081 0 5.07429)
(3.5987 0 5.23536)
(4.11122 0 5.40948)
(2.83789 0 5.43724)
(3.39474 0 5.70549)
(1.97509 0 5.53775)
(2.57553 0 5.9263)
(1.01595 0 5.45092)
(1.59282 0 6.02685)
(0.678373 0 5.85666)
(9.98389 0 0.165946)
(9.99372 0 0.114725)
(9.95255 0 0.274919)
(9.97279 0 0.227565)
(9.90646 0 0.384628)
(9.93569 0 0.340351)
(9.84595 0 0.496683)
(9.88378 0 0.454791)
(9.7713 0 0.612566)
(9.81816 0 0.572447)
(9.6827 0 0.733657)
(9.73916 0 0.694762)
(9.58028 0 0.86127)
(9.64686 0 0.823108)
(9.46402 0 0.996681)
(9.54127 0 0.958803)
(9.33384 0 1.14115)
(9.42238 0 1.10315)
(9.18958 0 1.29594)
(9.2901 0 1.25742)
(9.03099 0 1.46229)
(9.14427 0 1.42292)
(8.85773 0 1.64146)
(8.98463 0 1.60094)
(8.66936 0 1.83468)
(8.81085 0 1.79276)
(8.46531 0 2.04318)
(8.62246 0 1.99969)
(8.24483 0 2.26814)
(8.41885 0 2.22303)
(8.00693 0 2.5107)
(8.1992 0 2.46405)
(7.75027 0 2.77189)
(7.96241 0 2.72402)
(7.47303 0 3.05257)
(7.70696 0 3.00413)
(7.1727 0 3.35337)
(7.43076 0 3.30549)
(6.84583 0 3.67455)
(7.13089 0 3.62906)
(6.48764 0 4.01572)
(6.80332 0 3.97551)
(6.09153 0 4.37551)
(6.44239 0 4.34502)
(5.64853 0 4.75088)
(6.04024 0 4.73688)
(5.1466 0 5.13604)
(5.58602 0 5.14872)
(4.57021 0 5.5207)
(5.06492 0 5.57524)
(3.90028 0 5.88745)
(4.45755 0 6.0058)
(3.11577 0 6.20682)
(3.73706 0 6.4207)
(2.19856 0 6.43459)
(2.88638 0 6.78272)
(1.14528 0 6.45865)
(1.82263 0 7.03411)
(0.782259 0 6.9784)
(9.98479 0 0.177469)
(9.9941 0 0.122175)
(9.95524 0 0.294105)
(9.97445 0 0.242387)
(9.91188 0 0.411618)
(9.93964 0 0.362625)
(9.85507 0 0.531675)
(9.89105 0 0.484679)
(9.7851 0 0.655796)
(9.82974 0 0.610148)
(9.70221 0 0.78541)
(9.75606 0 0.740512)
(9.60651 0 0.921892)
(9.67012 0 0.877196)
(9.49808 0 1.06658)
(9.57197 0 1.02158)
(9.37687 0 1.2208)
(9.46166 0 1.17501)
(9.24279 0 1.38588)
(9.33918 0 1.33884)
(9.09567 0 1.56313)
(9.20442 0 1.51442)
(8.93526 0 1.7539)
(9.05723 0 1.70312)
(8.76118 0 1.95954)
(8.89735 0 1.90633)
(8.57295 0 2.18142)
(8.72441 0 2.12546)
(8.36989 0 2.42094)
(8.53791 0 2.36199)
(8.15107 0 2.67949)
(8.33714 0 2.61742)
(7.91521 0 2.9585)
(8.1211 0 2.89333)
(7.66052 0 3.25941)
(7.88839 0 3.19138)
(7.38451 0 3.58363)
(7.63704 0 3.51332)
(7.08367 0 3.93254)
(7.36429 0 3.86106)
(6.75311 0 4.30738)
(7.06621 0 4.23661)
(6.38589 0 4.70901)
(6.73724 0 4.64208)
(5.97232 0 5.13747)
(6.36946 0 5.07954)
(5.49877 0 5.59111)
(5.95149 0 5.55057)
(4.94637 0 6.06476)
(5.46691 0 6.05533)
(4.28954 0 6.54658)
(4.89235 0 6.59047)
(3.49512 0 7.01103)
(4.19145 0 7.14495)
(2.52485 0 7.40998)
(3.32919 0 7.68868)
(1.34869 0 7.59946)
(2.18133 0 8.15887)
(0.963047 0 8.29935)
(9.98577 0 0.18829)
(9.99451 0 0.129143)
(9.95816 0 0.312092)
(9.97623 0 0.256237)
(9.91771 0 0.436873)
(9.94388 0 0.383401)
(9.86482 0 0.564359)
(9.89879 0 0.512505)
(9.7998 0 0.696107)
(9.84201 0 0.645186)
(9.72289 0 0.833588)
(9.7739 0 0.782957)
(9.63428 0 0.978229)
(9.69461 0 0.927286)
(9.53405 0 1.13142)
(9.60424 0 1.0796)
(9.42226 0 1.29454)
(9.5029 0 1.24129)
(9.29888 0 1.46897)
(9.39063 0 1.41377)
(9.16381 0 1.65609)
(9.26745 0 1.59843)
(9.01691 0 1.85733)
(9.13327 0 1.7967)
(8.85792 0 2.07414)
(8.98796 0 2.01006)
(8.68645 0 2.30803)
(8.83127 0 2.24003)
(8.50197 0 2.56059)
(8.66285 0 2.48824)
(8.30369 0 2.83349)
(8.48216 0 2.75639)
(8.0905 0 3.12854)
(8.2884 0 3.04637)
(7.86081 0 3.44771)
(8.08043 0 3.36024)
(7.61239 0 3.79321)
(7.85663 0 3.70039)
(7.34203 0 4.16755)
(7.61462 0 4.06957)
(7.04516 0 4.57362)
(7.35107 0 4.4711)
(6.71521 0 5.01471)
(7.06111 0 4.90901)
(6.34263 0 5.49443)
(6.73768 0 5.38824)
(5.91341 0 6.01636)
(6.37031 0 5.9148)
(5.40664 0 6.583)
(5.94301 0 6.49577)
(4.7908 0 7.19332)
(5.43127 0 7.13866)
(4.01803 0 7.83571)
(4.79198 0 7.84945)
(3.01698 0 8.47425)
(3.96999 0 8.62338)
(1.69265 0 8.94195)
(2.77205 0 9.42534)
(1.30683 0 9.9572)
(9.98682 0 0.198356)
(9.99494 0 0.135598)
(9.96126 0 0.328804)
(9.97811 0 0.269055)
(9.92389 0 0.460299)
(9.94834 0 0.4026)
(9.8751 0 0.594622)
(9.90692 0 0.538172)
(9.81524 0 0.733365)
(9.85484 0 0.677444)
(9.74457 0 0.878037)
(9.79252 0 0.821958)
(9.66331 0 1.0301)
(9.72011 0 0.973216)
(9.57163 0 1.19099)
(9.63779 0 1.13268)
(9.46962 0 1.36213)
(9.54572 0 1.30178)
(9.35735 0 1.54493)
(9.44404 0 1.48194)
(9.23483 0 1.74084)
(9.33283 0 1.67463)
(9.102 0 1.95135)
(9.21212 0 1.8813)
(8.95876 0 2.17799)
(9.08192 0 2.10351)
(8.80486 0 2.4224)
(8.94213 0 2.34286)
(8.63995 0 2.68632)
(8.79258 0 2.60109)
(8.46349 0 2.97165)
(8.63297 0 2.88008)
(8.27463 0 3.28055)
(8.46278 0 3.18194)
(8.07218 0 3.61545)
(8.28128 0 3.50909)
(7.85437 0 3.97927)
(8.08732 0 3.8644)
(7.61867 0 4.37552)
(7.87926 0 4.25134)
(7.36141 0 4.80861)
(7.65473 0 4.6743)
(7.07721 0 5.28413)
(7.41027 0 5.13891)
(6.75807 0 5.80931)
(7.14078 0 5.65266)
(6.39172 0 6.39353)
(6.83861 0 6.22568)
(5.95867 0 7.04898)
(6.49173 0 6.87214)
(5.42637 0 7.79135)
(6.08084 0 7.61247)
(4.73727 0 8.63897)
(5.56822 0 8.47768)
(3.78163 0 9.61034)
(4.89893 0 9.51569)
(2.33532 0 10.6086)
(3.81679 0 10.8084)
(2.04792 0 12.2445)
(9.98792 0 0.207628)
(9.99539 0 0.141514)
(9.96452 0 0.344177)
(9.98006 0 0.280793)
(9.93034 0 0.481806)
(9.95298 0 0.420157)
(9.88581 0 0.622348)
(9.91534 0 0.561601)
(9.83128 0 0.767424)
(9.86814 0 0.706829)
(9.76705 0 0.918569)
(9.81178 0 0.857405)
(9.69338 0 1.07728)
(9.74648 0 1.01486)
(9.61049 0 1.24501)
(9.67246 0 1.18066)
(9.51856 0 1.42322)
(9.58996 0 1.35628)
(9.41774 0 1.61336)
(9.49919 0 1.54317)
(9.30813 0 1.81691)
(9.40034 0 1.74279)
(9.18983 0 2.03539)
(9.29357 0 1.95666)
(9.06285 0 2.27041)
(9.179 0 2.18635)
(8.92716 0 2.52369)
(9.05674 0 2.43353)
(8.78262 0 2.79709)
(8.92683 0 2.7)
(8.62898 0 3.0927)
(8.78923 0 2.98776)
(8.46579 0 3.41289)
(8.64381 0 3.29908)
(8.29235 0 3.76047)
(8.49029 0 3.6366)
(8.10763 0 4.13886)
(8.32821 0 4.00349)
(7.91007 0 4.55233)
(8.15685 0 4.4037)
(7.69743 0 5.00642)
(7.97516 0 4.84226)
(7.46641 0 5.50847)
(7.78162 0 5.3258)
(7.2121 0 6.06857)
(7.57413 0 5.86337)
(6.92689 0 6.70104)
(7.34977 0 6.4677)
(6.59837 0 7.42717)
(7.10435 0 7.15766)
(6.20457 0 8.28086)
(6.83269 0 7.96301)
(5.70184 0 9.3221)
(6.52553 0 8.936)
(4.98546 0 10.6889)
(6.20249 0 10.1846)
(3.71245 0 12.8369)
(5.91178 0 12.0258)
(5.00424 0 15.8806)
(-0.896931 0 0.640068)
(-0.606344 0 0.878488)
(-1.93217 0 0.656306)
(-1.50383 0 0.990009)
(-2.99461 0 0.621384)
(-2.58399 0 0.992015)
(-4.05755 0 0.579488)
(-3.65126 0 0.969047)
(-5.10486 0 0.535672)
(-4.70864 0 0.932244)
(-6.12602 0 0.491681)
(-5.74422 0 0.887504)
(-7.11334 0 0.448089)
(-6.74946 0 0.837825)
(-8.06073 0 0.405094)
(-7.71761 0 0.784953)
(-8.96302 0 0.36272)
(-8.64309 0 0.729928)
(-9.81545 0 0.320891)
(-9.52099 0 0.673308)
(-10.6133 0 0.279461)
(-10.3466 0 0.615295)
(-11.3514 0 0.23824)
(-11.115 0 0.555827)
(-12.0242 0 0.197011)
(-11.821 0 0.494661)
(-12.6253 0 0.15554)
(-12.4583 0 0.431437)
(-13.1471 0 0.11358)
(-13.0201 0 0.365756)
(-13.5814 0 0.0708795)
(-13.4984 0 0.29722)
(-13.9189 0 0.027165)
(-13.8845 0 0.225485)
(-14.1494 0 -0.0179506)
(-14.169 0 0.150376)
(-14.2624 0 -0.0654569)
(-14.3415 0 0.072001)
(-14.2421 0 -0.118006)
(-14.3902 0 -0.0126082)
(-14.0774 0 -0.17722)
(-14.3024 0 -0.100066)
(-13.7463 0 -0.243661)
(-14.0658 0 -0.196261)
(-13.2293 0 -0.3198)
(-13.6633 0 -0.299295)
(-12.5004 0 -0.409699)
(-13.0754 0 -0.412007)
(-11.5235 0 -0.519551)
(-12.2783 0 -0.539132)
(-10.2502 0 -0.660059)
(-11.2377 0 -0.686145)
(-8.61002 0 -0.853248)
(-9.88837 0 -0.862935)
(-6.45708 0 -1.12999)
(-8.09881 0 -1.10596)
(-3.50089 0 -1.45026)
(-5.68885 0 -1.48272)
(-2.62174 0 -1.73576)
(-1.06245 0 1.44172)
(-0.681172 0 1.9191)
(-2.12953 0 1.48185)
(-1.58478 0 2.01046)
(-3.20098 0 1.45896)
(-2.66311 0 1.99245)
(-4.26739 0 1.41458)
(-3.71168 0 1.94126)
(-5.31702 0 1.35635)
(-4.74693 0 1.86655)
(-6.34018 0 1.28942)
(-5.75856 0 1.77674)
(-7.32919 0 1.21691)
(-6.73943 0 1.67708)
(-8.27786 0 1.14074)
(-7.68366 0 1.57097)
(-9.18096 0 1.06206)
(-8.58633 0 1.46051)
(-10.0337 0 0.981363)
(-9.44302 0 1.34686)
(-10.8313 0 0.89872)
(-10.2495 0 1.23044)
(-11.5688 0 0.813836)
(-11.0011 0 1.11113)
(-12.2404 0 0.726186)
(-11.6928 0 0.988444)
(-12.8397 0 0.63511)
(-12.3188 0 0.861676)
(-13.3595 0 0.539904)
(-12.8722 0 0.730036)
(-13.7914 0 0.4399)
(-13.3453 0 0.592769)
(-14.1263 0 0.334565)
(-13.7294 0 0.449292)
(-14.3546 0 0.223427)
(-14.0154 0 0.299295)
(-14.4649 0 0.105563)
(-14.1934 0 0.142293)
(-14.4499 0 -0.0207337)
(-14.2528 0 -0.0219772)
(-14.2951 0 -0.155956)
(-14.1818 0 -0.194072)
(-13.9917 0 -0.299943)
(-13.976 0 -0.376103)
(-13.5244 0 -0.455234)
(-13.6217 0 -0.569831)
(-12.8742 0 -0.627555)
(-13.1048 0 -0.779522)
(-12.0164 0 -0.825379)
(-12.4093 0 -1.01256)
(-10.9183 0 -1.06246)
(-11.514 0 -1.27784)
(-9.53845 0 -1.36685)
(-10.3804 0 -1.58891)
(-7.84696 0 -1.77507)
(-8.92598 0 -1.97488)
(-5.90424 0 -2.23399)
(-7.07392 0 -2.45712)
(-5.27243 0 -2.96083)
(-1.05822 0 2.45469)
(-0.661749 0 2.95556)
(-2.10551 0 2.4818)
(-1.52359 0 3.01199)
(-3.14089 0 2.43551)
(-2.55964 0 2.95921)
(-4.16181 0 2.35745)
(-3.54973 0 2.87199)
(-5.1614 0 2.25613)
(-4.52375 0 2.75632)
(-6.13314 0 2.13906)
(-5.47292 0 2.6213)
(-7.07143 0 2.01131)
(-6.39273 0 2.4733)
(-7.97156 0 1.87621)
(-7.27908 0 2.31676)
(-8.82943 0 1.73579)
(-8.12838 0 2.15451)
(-9.64118 0 1.59103)
(-8.93718 0 1.98803)
(-10.4028 0 1.44213)
(-9.70181 0 1.81779)
(-11.1097 0 1.28874)
(-10.4181 0 1.64346)
(-11.7568 0 1.13018)
(-11.0812 0 1.46419)
(-12.338 0 0.965647)
(-11.6852 0 1.27883)
(-12.846 0 0.794375)
(-12.2233 0 1.08615)
(-13.2731 0 0.61582)
(-12.6877 0 0.885011)
(-13.6102 0 0.429811)
(-13.0697 0 0.674527)
(-13.8476 0 0.236611)
(-13.36 0 0.454224)
(-13.9764 0 0.0367262)
(-13.5492 0 0.224295)
(-13.9843 0 -0.169858)
(-13.6274 0 -0.0170553)
(-13.8681 0 -0.38597)
(-13.5829 0 -0.264611)
(-13.6155 0 -0.614827)
(-13.4164 0 -0.525879)
(-13.2172 0 -0.859427)
(-13.1171 0 -0.800429)
(-12.6611 0 -1.12618)
(-12.6764 0 -1.09386)
(-11.9314 0 -1.42394)
(-12.0846 0 -1.41523)
(-11.0085 0 -1.76384)
(-11.3303 0 -1.77519)
(-9.87496 0 -2.16321)
(-10.3925 0 -2.18527)
(-8.54241 0 -2.64485)
(-9.22026 0 -2.6594)
(-7.04166 0 -3.1889)
(-7.78522 0 -3.20985)
(-6.52472 0 -3.80881)
(-0.990544 0 3.45588)
(-0.605738 0 3.92574)
(-1.9728 0 3.44844)
(-1.39478 0 3.95132)
(-2.93881 0 3.36358)
(-2.35642 0 3.86119)
(-3.88634 0 3.24446)
(-3.26213 0 3.73582)
(-4.81137 0 3.0992)
(-4.15392 0 3.57972)
(-5.71032 0 2.93628)
(-5.02298 0 3.40259)
(-6.57982 0 2.76164)
(-5.86714 0 3.21115)
(-7.41681 0 2.57934)
(-6.68385 0 3.01024)
(-8.21828 0 2.39176)
(-7.47053 0 2.80287)
(-8.981 0 2.19999)
(-8.22425 0 2.59048)
(-9.70121 0 2.00404)
(-8.94152 0 2.37324)
(-10.3744 0 1.80318)
(-9.61806 0 2.15039)
(-10.9952 0 1.59617)
(-10.2486 0 1.92059)
(-11.5571 0 1.38151)
(-10.827 0 1.68218)
(-12.0526 0 1.15766)
(-11.346 0 1.43349)
(-12.4735 0 0.923179)
(-11.7975 0 1.17305)
(-12.8107 0 0.676925)
(-12.1725 0 0.899799)
(-13.0546 0 0.418243)
(-12.4618 0 0.61334)
(-13.1953 0 0.146939)
(-12.6563 0 0.313928)
(-13.2258 0 -0.137179)
(-12.7469 0 0.00194146)
(-13.1376 0 -0.433359)
(-12.7224 0 -0.318165)
(-12.9281 0 -0.741963)
(-12.5876 0 -0.650116)
(-12.5912 0 -1.06732)
(-12.336 0 -0.995434)
(-12.1206 0 -1.41731)
(-11.9637 0 -1.35991)
(-11.5073 0 -1.80217)
(-11.4666 0 -1.75366)
(-10.7412 0 -2.23166)
(-10.8401 0 -2.18802)
(-9.81831 0 -2.71418)
(-10.074 0 -2.67084)
(-8.75705 0 -3.25967)
(-9.13717 0 -3.20457)
(-7.59138 0 -3.84987)
(-8.02537 0 -3.7945)
(-7.10199 0 -4.3989)
(-0.89189 0 4.37558)
(-0.533228 0 4.79929)
(-1.77876 0 4.33235)
(-1.22867 0 4.79944)
(-2.65142 0 4.2092)
(-2.09228 0 4.67601)
(-3.50738 0 4.05144)
(-2.89604 0 4.51618)
(-4.34408 0 3.86668)
(-3.69242 0 4.3245)
(-5.15968 0 3.66361)
(-4.47106 0 4.11144)
(-5.95228 0 3.44816)
(-5.23152 0 3.88374)
(-6.71977 0 3.22429)
(-5.97205 0 3.64614)
(-7.45961 0 2.9941)
(-6.69054 0 3.40139)
(-8.16864 0 2.7582)
(-7.38412 0 3.15052)
(-8.84287 0 2.51601)
(-8.0491 0 2.89321)
(-9.47735 0 2.26617)
(-8.68082 0 2.62815)
(-10.0662 0 2.0069)
(-9.27361 0 2.35348)
(-10.6024 0 1.73634)
(-9.82083 0 2.0671)
(-11.0782 0 1.45283)
(-10.3149 0 1.76701)
(-11.4852 0 1.15519)
(-10.7474 0 1.45156)
(-11.8143 0 0.842953)
(-11.1094 0 1.11967)
(-12.0561 0 0.5166)
(-11.3914 0 0.771101)
(-12.2022 0 0.177675)
(-11.5845 0 0.407014)
(-12.2443 0 -0.171439)
(-11.6802 0 0.0281042)
(-12.1801 0 -0.530514)
(-11.6697 0 -0.357161)
(-12.0066 0 -0.901602)
(-11.5596 0 -0.752978)
(-11.7233 0 -1.28858)
(-11.3479 0 -1.15942)
(-11.3292 0 -1.69968)
(-11.0356 0 -1.58267)
(-10.8215 0 -2.14579)
(-10.6237 0 -2.03384)
(-10.1968 0 -2.63537)
(-10.1125 0 -2.52467)
(-9.45694 0 -3.17054)
(-9.4984 0 -3.06009)
(-8.61941 0 -3.75023)
(-8.76314 0 -3.63481)
(-7.72695 0 -4.34384)
(-7.91299 0 -4.24213)
(-7.22927 0 -4.81632)
(-0.772957 0 5.18796)
(-0.451922 0 5.55635)
(-1.54595 0 5.11637)
(-1.03899 0 5.53866)
(-2.30942 0 4.96131)
(-1.78834 0 5.38887)
(-3.06127 0 4.77129)
(-2.47813 0 5.20162)
(-3.79994 0 4.55415)
(-3.16973 0 4.98201)
(-4.52455 0 4.31871)
(-3.85022 0 4.74121)
(-5.23388 0 4.07067)
(-4.52057 0 4.48566)
(-5.9262 0 3.81366)
(-5.17929 0 4.21975)
(-6.59904 0 3.54937)
(-5.82432 0 3.9457)
(-7.24905 0 3.27789)
(-6.45266 0 3.66394)
(-7.8719 0 2.99819)
(-7.06032 0 3.37356)
(-8.46228 0 2.70845)
(-7.64227 0 3.0727)
(-9.01386 0 2.40652)
(-8.19248 0 2.75901)
(-9.51942 0 2.0902)
(-8.70397 0 2.43002)
(-9.97089 0 1.75756)
(-9.16886 0 2.08345)
(-10.3595 0 1.40715)
(-9.57849 0 1.71753)
(-10.6762 0 1.03828)
(-9.92358 0 1.33124)
(-10.9116 0 0.651444)
(-10.1945 0 0.92465)
(-11.0569 0 0.248865)
(-10.3821 0 0.49958)
(-11.1073 0 -0.165677)
(-10.4778 0 0.0594625)
(-11.0585 0 -0.588586)
(-10.4754 0 -0.38677)
(-10.9132 0 -1.01929)
(-10.383 0 -0.839149)
(-10.675 0 -1.46175)
(-10.2036 0 -1.29731)
(-10.348 0 -1.92484)
(-9.94288 0 -1.76749)
(-9.93461 0 -2.42023)
(-9.60631 0 -2.26199)
(-9.43589 0 -2.9557)
(-9.19799 0 -2.7934)
(-8.85579 0 -3.52899)
(-8.71816 0 -3.36529)
(-8.20914 0 -4.12876)
(-8.1568 0 -3.96699)
(-7.5396 0 -4.70903)
(-7.52254 0 -4.57795)
(-7.02262 0 -5.11284)
(-0.640173 0 5.87922)
(-0.365816 0 6.18336)
(-1.28719 0 5.78879)
(-0.833473 0 6.15741)
(-1.93068 0 5.61023)
(-1.45726 0 5.9897)
(-2.56927 0 5.39633)
(-2.02438 0 5.7838)
(-3.20228 0 5.15548)
(-2.60393 0 5.54548)
(-3.82947 0 4.89653)
(-3.17985 0 5.28631)
(-4.4499 0 4.62467)
(-3.75451 0 5.01214)
(-5.06186 0 4.34298)
(-4.32631 0 4.72679)
(-5.66275 0 4.05249)
(-4.89305 0 4.4318)
(-6.24896 0 3.75268)
(-5.45147 0 4.12697)
(-6.81584 0 3.44186)
(-5.9973 0 3.81074)
(-7.35773 0 3.11769)
(-6.5252 0 3.48074)
(-7.86798 0 2.77754)
(-7.02889 0 3.13416)
(-8.33905 0 2.41887)
(-7.50111 0 2.76817)
(-8.76255 0 2.03955)
(-7.93375 0 2.38028)
(-9.12947 0 1.6382)
(-8.31791 0 1.96863)
(-9.43037 0 1.21445)
(-8.64403 0 1.5323)
(-9.65576 0 0.769638)
(-8.90199 0 1.07169)
(-9.79723 0 0.307753)
(-9.08157 0 0.589695)
(-9.84935 0 -0.164511)
(-9.17373 0 0.0918783)
(-9.81134 0 -0.641652)
(-9.17425 0 -0.409851)
(-9.68745 0 -1.12184)
(-9.09385 0 -0.912602)
(-9.48642 0 -1.60788)
(-8.93986 0 -1.41369)
(-9.21743 0 -2.10932)
(-8.72247 0 -1.91954)
(-8.88724 0 -2.63914)
(-8.45148 0 -2.44422)
(-8.49991 0 -3.20552)
(-8.13358 0 -3.00212)
(-8.05965 0 -3.8036)
(-7.77138 0 -3.59693)
(-7.578 0 -4.41314)
(-7.35988 0 -4.21441)
(-7.09176 0 -4.97426)
(-6.90579 0 -4.82183)
(-6.55598 0 -5.31948)
(-0.497956 0 6.43973)
(-0.277375 0 6.67108)
(-1.01044 0 6.34045)
(-0.616806 0 6.6475)
(-1.52595 0 6.14772)
(-1.10687 0 6.47104)
(-2.04418 0 5.91957)
(-1.54454 0 6.25625)
(-2.56529 0 5.66479)
(-2.00619 0 6.00934)
(-3.08955 0 5.39196)
(-2.47212 0 5.74195)
(-3.61604 0 5.10555)
(-2.94632 0 5.45891)
(-4.14291 0 4.80792)
(-3.42669 0 5.16333)
(-4.66731 0 4.4994)
(-3.91077 0 4.85602)
(-5.18533 0 4.17882)
(-4.39502 0 4.53614)
(-5.69206 0 3.84392)
(-4.87489 0 4.20154)
(-6.1816 0 3.49189)
(-5.34488 0 3.84936)
(-6.64712 0 3.11974)
(-5.79857 0 3.47642)
(-7.08089 0 2.72466)
(-6.22867 0 3.07955)
(-7.4743 0 2.30443)
(-6.62696 0 2.65602)
(-7.81802 0 1.85765)
(-6.98441 0 2.20386)
(-8.10221 0 1.38422)
(-7.29118 0 1.72219)
(-8.31682 0 0.886087)
(-7.53629 0 1.2117)
(-8.45272 0 0.368783)
(-7.70765 0 0.676261)
(-8.50391 0 -0.158303)
(-7.79442 0 0.123713)
(-8.47151 0 -0.685893)
(-7.79403 0 -0.429523)
(-8.36271 0 -1.20888)
(-7.72105 0 -0.977114)
(-8.19119 0 -1.72911)
(-7.58652 0 -1.51298)
(-7.97112 0 -2.25732)
(-7.40514 0 -2.04393)
(-7.71289 0 -2.80879)
(-7.19034 0 -2.58674)
(-7.42236 0 -3.39332)
(-6.95051 0 -3.15867)
(-7.10339 0 -4.00508)
(-6.68949 0 -3.76475)
(-6.76427 0 -4.61733)
(-6.40564 0 -4.38862)
(-6.43105 0 -5.15915)
(-6.10189 0 -4.98896)
(-5.88197 0 -5.45555)
(-0.349045 0 6.86228)
(-0.188246 0 7.01295)
(-0.720635 0 6.76448)
(-0.391819 0 7.00285)
(-1.10189 0 6.56745)
(-0.742137 0 6.82703)
(-1.49404 0 6.33543)
(-1.04472 0 6.61376)
(-1.89812 0 6.07724)
(-1.38379 0 6.36903)
(-2.31482 0 5.80077)
(-1.7353 0 6.10411)
(-2.74312 0 5.50948)
(-2.10519 0 5.82237)
(-3.18082 0 5.20492)
(-2.49048 0 5.52598)
(-3.62466 0 4.88678)
(-2.88822 0 5.21507)
(-4.07051 0 4.55329)
(-3.29452 0 4.8883)
(-4.51328 0 4.20169)
(-3.70467 0 4.54301)
(-4.94698 0 3.82877)
(-4.11306 0 4.17594)
(-5.3648 0 3.43119)
(-4.51338 0 3.7836)
(-5.75905 0 3.00586)
(-4.8985 0 3.36257)
(-6.12107 0 2.5503)
(-5.2604 0 2.90975)
(-6.44122 0 2.06305)
(-5.59016 0 2.42295)
(-6.70909 0 1.54405)
(-5.87785 0 1.90117)
(-6.91366 0 0.995855)
(-6.11144 0 1.34516)
(-7.04415 0 0.425904)
(-6.27584 0 0.759386)
(-7.09306 0 -0.15258)
(-6.35666 0 0.154132)
(-7.06315 0 -0.725851)
(-6.353 0 -0.447691)
(-6.96467 0 -1.28501)
(-6.28527 0 -1.0355)
(-6.8165 0 -1.83039)
(-6.16686 0 -1.59876)
(-6.6374 0 -2.37459)
(-6.01631 0 -2.14516)
(-6.44048 0 -2.93621)
(-5.84976 0 -2.69541)
(-6.23245 0 -3.52772)
(-5.67639 0 -3.27076)
(-6.0166 0 -4.14349)
(-5.50036 0 -3.87831)