/*--------------------------------*- C++ -*----------------------------------*\
  =========                 |
  \\      /  F ield         | OpenFOAM: The Open Source CFD Toolbox
   \\    /   O peration     | Website:  https://openfoam.org
    \\  /    A nd           | Version:  dev
     \\/     M anipulation  |
\*---------------------------------------------------------------------------*/
FoamFile
{
    version     2.0;
    format      ascii;
    class       volScalarField;
    location    "4.2";
    object      p;
}
// * * * * * * * * * * * * * * * * * * * * * * * * * * * * * * * * * * * * * //

dimensions      [0 2 -2 0 0 0 0];

internalField   nonuniform List<scalar> 
2790
(
147.179
147.086
147.353
147.924
148.705
149.662
150.794
152.101
153.577
155.218
157.018
158.969
161.062
163.287
165.628
168.063
170.567
173.106
175.638
178.112
180.471
182.648
184.579
186.199
187.459
188.333
188.769
188.825
188.876
189.088
146.976
146.994
147.286
147.854
148.63
149.585
150.712
152.013
153.482
155.115
156.905
158.845
160.928
163.142
165.472
167.897
170.393
172.926
175.456
177.934
180.303
182.498
184.452
186.101
187.385
188.26
188.657
188.711
188.844
189.129
146.777
146.865
147.176
147.734
148.497
149.439
150.552
151.834
153.282
154.89
156.652
158.561
160.609
162.784
165.073
167.455
169.907
172.398
174.889
177.337
179.687
181.879
183.852
185.541
186.892
187.868
188.461
188.817
189.132
189.431
146.552
146.671
146.995
147.544
148.293
149.218
150.311
151.569
152.988
154.562
156.286
158.151
160.15
162.27
164.499
166.817
169.201
171.624
174.051
176.442
178.749
180.92
182.902
184.642
186.097
187.249
188.117
188.788
189.34
189.859
146.292
146.424
146.756
147.298
148.03
148.934
150.002
151.229
152.611
154.142
155.816
157.625
159.561
161.611
163.763
165.999
168.297
170.632
172.973
175.286
177.532
179.667
181.649
183.439
185.01
186.352
187.483
188.445
189.256
190.003
145.991
146.129
146.464
146.995
147.707
148.585
149.621
150.81
152.148
153.627
155.242
156.985
158.846
160.814
162.875
165.013
167.208
169.437
171.674
173.889
176.052
178.129
180.091
181.912
183.575
185.076
186.423
187.629
188.649
189.567
145.648
145.787
146.119
146.638
147.327
148.175
149.174
150.319
151.605
153.025
154.572
156.238
158.012
159.885
161.842
163.868
165.944
168.05
170.162
172.258
174.313
176.304
178.212
180.022
181.728
183.329
184.823
186.202
187.367
188.413
145.264
145.401
145.725
146.227
146.891
147.705
148.662
149.758
150.985
152.338
153.809
155.388
157.066
158.832
160.673
162.572
164.513
166.477
168.444
170.396
172.313
174.181
175.988
177.73
179.409
181.027
182.582
184.055
185.304
186.455
144.837
144.971
145.284
145.767
146.402
147.178
148.089
149.13
150.293
151.572
152.958
154.442
156.015
157.663
159.374
161.132
162.921
164.725
166.524
168.303
170.046
171.744
173.392
174.992
176.554
178.089
179.597
181.067
182.339
183.577
144.371
144.499
144.799
145.26
145.862
146.597
147.458
148.439
149.533
150.731
152.026
153.407
154.864
156.384
157.954
159.558
161.179
162.801
164.407
165.981
167.509
168.983
170.401
171.769
173.102
174.42
175.74
177.078
178.279
179.583
143.866
143.987
144.272
144.708
145.276
145.967
146.773
147.69
148.709
149.822
151.019
152.29
153.624
155.006
156.424
157.86
159.297
160.718
162.105
163.439
164.707
165.897
167.004
168.032
168.995
169.924
170.854
171.853
172.815
174.133
143.323
143.438
143.706
144.115
144.646
145.289
146.039
146.888
147.828
148.85
149.944
151.099
152.302
153.539
154.794
156.051
157.289
158.49
159.632
160.694
161.655
162.498
163.206
163.771
164.197
164.507
164.749
165.057
165.439
166.612
142.747
142.853
143.103
143.483
143.974
144.569
145.259
146.037
146.895
147.822
148.809
149.842
150.908
151.993
153.078
154.144
155.171
156.135
157.01
157.769
158.382
158.816
159.038
159.013
158.709
158.111
157.236
156.243
155.295
155.8
142.137
142.236
142.466
142.815
143.266
143.809
144.437
145.142
145.914
146.744
147.62
148.528
149.453
150.38
151.288
152.157
152.963
153.677
154.268
154.7
154.929
154.906
154.567
153.835
152.612
150.782
148.219
144.916
140.967
138.931
141.498
141.588
141.798
142.115
142.524
143.014
143.578
144.208
144.893
145.623
146.385
147.165
147.947
148.712
149.44
150.106
150.684
151.14
151.436
151.527
151.353
150.843
149.898
148.383
146.103
142.771
137.927
130.909
120.445
108.22
1.50004
1.48018
1.40941
1.31053
1.20597
1.1063
1.01471
0.931514
0.856038
0.787187
0.723666
0.66419
0.607647
0.553188
0.50029
0.448779
0.398826
0.350859
0.305406
0.262912
0.223615
0.187599
0.154856
0.126329
0.102007
0.0812881
0.0630609
0.0460182
0.0287549
0.0100431
1.44828
1.42509
1.35855
1.26768
1.17157
1.07924
0.993627
0.915203
0.84349
0.777555
0.716254
0.658431
0.603071
0.5494
0.496963
0.445665
0.395769
0.347805
0.302386
0.259965
0.220725
0.184767
0.15258
0.124326
0.100374
0.0802207
0.062607
0.0462135
0.0295112
0.0122045
1.39336
1.36522
1.30116
1.21763
1.13038
1.04612
0.967282
0.894397
0.827134
0.764706
0.706117
0.650345
0.596483
0.543844
0.492051
0.441098
0.39136
0.343502
0.298258
0.256132
0.217246
0.181601
0.149564
0.121659
0.0982686
0.0788216
0.0619277
0.0461162
0.0297052
0.0114039
1.34317
1.3102
1.24769
1.17023
1.09085
1.01394
0.941358
0.873664
0.810624
0.75157
0.695634
0.641909
0.589586
0.538063
0.48704
0.43658
0.387142
0.339494
0.294488
0.252711
0.214246
0.178878
0.146781
0.118774
0.0956107
0.0768936
0.0608977
0.0462493
0.0307146
0.0112533
1.31261
1.275
1.21417
1.14096
1.06693
0.994777
0.926174
0.861688
0.801204
0.74416
0.68978
0.637242
0.585816
0.534977
0.484492
0.434474
0.385404
0.338055
0.293299
0.251802
0.213805
0.179335
0.148414
0.121318
0.0982244
0.0785184
0.0611143
0.0447758
0.0289016
0.0104258
1.31389
1.27058
1.21071
1.13846
1.06572
0.994167
0.925917
0.861582
0.801142
0.744082
0.689656
0.637076
0.585654
0.534913
0.484655
0.435004
0.386403
0.339532
0.295141
0.253849
0.215996
0.181736
0.151238
0.124494
0.10145
0.0813558
0.0633717
0.0463762
0.0289088
0.00934533
1.35558
1.30468
1.24063
1.16409
1.08659
1.01084
0.938965
0.871608
0.808667
0.749561
0.693508
0.639712
0.58749
0.536354
0.486077
0.436743
0.388727
0.342592
0.298927
0.258198
0.220696
0.186619
0.156122
0.128928
0.104921
0.0832683
0.0640203
0.0456483
0.02708
0.00883487
1.44
1.37682
1.29977
1.21069
1.12207
1.03743
0.958503
0.885599
0.818372
0.756038
0.697614
0.642181
0.588971
0.537403
0.487117
0.438133
0.390792
0.345582
0.302949
0.263162
0.226338
0.192566
0.162082
0.134378
0.109167
0.086488
0.0655445
0.0449661
0.0247487
0.00773887
1.55896
1.47262
1.37262
1.26298
1.15835
1.06235
0.975438
0.896626
0.824836
0.759268
0.698672
0.641921
0.588107
0.536487
0.486466
0.438022
0.391554
0.347585
0.30645
0.268124
0.232341
0.1989
0.167537
0.138999
0.112955
0.0891943
0.0666462
0.0439456
0.0223947
0.00678673
1.68625
1.56512
1.43893
1.30993
1.18731
1.07745
0.981143
0.897147
0.823007
0.756127
0.694707
0.637511
0.583642
0.532303
0.48295
0.435372
0.390041
0.347729
0.308747
0.272614
0.238396
0.205405
0.173669
0.143984
0.116681
0.0916154
0.0674176
0.0427036
0.0200859
0.00593835
1.78259
1.63242
1.47699
1.32611
1.19168
1.07478
0.974233
0.887842
0.812914
0.746259
0.68534
0.628783
0.575872
0.525739
0.477433
0.43066
0.386293
0.345691
0.309318
0.276098
0.244188
0.212193
0.180059
0.14895
0.120065
0.0935921
0.0678982
0.0414916
0.0180763
0.0052185
1.83497
1.64613
1.46522
1.29757
1.15609
1.03909
0.941461
0.858985
0.788379
0.725745
0.667761
0.613331
0.562626
0.514958
0.468648
0.422969
0.37949
0.340848
0.308024
0.27903
0.250406
0.2197
0.186826
0.153721
0.122779
0.0948297
0.0679866
0.0403913
0.0164572
0.00464937
1.77624
1.52883
1.34099
1.18635
1.06181
0.962214
0.879424
0.808723
0.748642
0.694919
0.642647
0.591433
0.543855
0.500003
0.456725
0.412109
0.368827
0.332034
0.303991
0.28122
0.257423
0.22842
0.194238
0.158186
0.124464
0.0949986
0.0675952
0.0395017
0.0153119
0.00425194
1.45468
1.16397
1.04747
0.969205
0.895779
0.838651
0.787503
0.737069
0.693703
0.654733
0.610969
0.562856
0.518751
0.480803
0.4425
0.398818
0.354084
0.318307
0.296579
0.283015
0.266251
0.239308
0.202769
0.162228
0.124613
0.0936158
0.0665999
0.0389615
0.0147288
0.00404593
0.696716
0.368562
0.498191
0.641764
0.65842
0.677736
0.678747
0.648885
0.622623
0.606993
0.576737
0.529832
0.487988
0.458736
0.428508
0.384784
0.334558
0.297195
0.283737
0.284372
0.278089
0.253526
0.212911
0.165577
0.122432
0.0899234
0.0648163
0.0390207
0.0148168
0.00404572
140.819
140.9
141.088
141.373
141.738
142.173
142.671
143.222
143.818
144.444
145.089
145.737
146.371
146.971
147.513
147.972
148.316
148.508
148.502
148.241
147.655
146.646
145.082
142.768
139.405
134.498
127.126
115.373
93.2063
33.389
140.092
140.163
140.329
140.579
140.898
141.276
141.705
142.176
142.678
143.198
143.722
144.234
144.716
145.146
145.499
145.746
145.852
145.776
145.465
144.856
143.862
142.372
140.227
137.194
132.916
126.809
117.84
104.274
84.7487
56.2976
139.322
139.384
139.526
139.74
140.012
140.331
140.689
141.077
141.484
141.895
142.297
142.671
142.999
143.258
143.421
143.456
143.327
142.987
142.382
141.439
140.069
138.15
135.517
131.941
127.097
120.528
111.647
99.814
85.583
68.9732
138.512
138.563
138.682
138.859
139.082
139.341
139.627
139.931
140.241
140.542
140.821
141.057
141.232
141.321
141.296
141.125
140.768
140.177
139.295
138.049
136.349
134.076
131.078
127.16
122.074
115.528
107.226
96.8352
84.2948
69.1668
137.662
137.703
137.797
137.937
138.11
138.309
138.523
138.742
138.955
139.147
139.302
139.402
139.426
139.35
139.143
138.774
138.201
137.378
136.247
134.737
132.763
130.218
126.974
122.874
117.738
111.366
103.559
94.0745
82.7448
69.7775
136.775
136.805
136.875
136.977
137.101
137.238
137.38
137.515
137.632
137.715
137.75
137.717
137.595
137.358
136.979
136.424
135.653
134.621
133.272
131.542
129.353
126.615
123.223
119.058
113.989
107.882
100.614
92.0875
82.2922
71.6413
135.854
135.874
135.919
135.983
136.058
136.135
136.204
136.256
136.278
136.256
136.173
136.011
135.749
135.362
134.822
134.096
133.147
131.931
130.4
128.493
126.147
123.286
119.829
115.688
110.776
105.016
98.3511
90.772
82.322
73.3368
134.902
134.911
134.932
134.959
134.985
135.002
135.001
134.971
134.901
134.777
134.581
134.297
133.903
133.375
132.687
131.808
130.703
129.332
127.652
125.613
123.161
120.236
116.779
112.731
108.037
102.659
96.5813
89.8257
82.4418
74.7014
133.922
133.921
133.918
133.908
133.886
133.845
133.775
133.667
133.509
133.286
132.984
132.585
132.068
131.412
130.591
129.577
128.338
126.84
125.046
122.913
120.399
117.46
114.054
110.143
105.697
100.702
95.1638
89.1172
82.6155
75.8861
132.919
132.908
132.881
132.836
132.768
132.67
132.534
132.351
132.108
131.793
131.391
130.885
130.257
129.485
128.546
127.416
126.067
124.469
122.59
120.399
117.861
114.946
111.626
107.878
103.691
99.0648
94.0174
88.5881
82.8301
76.9281
131.897
131.877
131.827
131.747
131.634
131.483
131.284
131.029
130.707
130.306
129.812
129.208
128.479
127.605
126.566
125.338
123.9
122.226
120.291
118.07
115.539
112.676
109.465
105.896
101.967
97.6871
93.0808
88.1871
83.0539
77.8295
130.861
130.831
130.76
130.648
130.492
130.289
130.031
129.71
129.314
128.833
128.255
127.564
126.745
125.783
124.658
123.352
121.845
120.117
118.15
115.923
113.422
110.631
107.544
104.158
100.478
96.5182
92.3048
87.8736
83.2665
78.6028
129.817
129.778
129.686
129.543
129.347
129.097
128.783
128.399
127.936
127.383
126.729
125.96
125.064
124.026
122.831
121.463
119.905
118.144
116.163
113.951
111.496
108.792
105.836
102.63
99.1854
95.5178
91.652
87.6203
83.4587
79.2631
128.769
128.722
128.612
128.439
128.206
127.911
127.547
127.106
126.581
125.963
125.242
124.406
123.444
122.343
121.091
119.676
118.084
116.305
114.328
112.144
109.748
107.138
104.314
101.284
98.058
94.6541
91.0949
87.4088
83.6259
79.8241
127.725
127.671
127.542
127.342
127.075
126.739
126.328
125.836
125.257
124.581
123.801
122.907
121.89
120.738
119.443
117.994
116.382
114.599
112.638
110.494
108.165
105.652
102.958
100.094
97.0693
93.9021
90.6128
87.2258
83.7664
80.2979
126.691
126.629
126.484
126.26
125.962
125.588
125.135
124.598
123.969
123.244
122.413
121.471
120.408
119.217
117.889
116.419
114.798
113.022
111.086
108.989
106.732
104.316
101.749
99.0385
96.1979
93.2423
90.1902
87.0624
83.8802
80.6954
125.673
125.605
125.445
125.198
124.872
124.465
123.975
123.397
122.726
121.957
121.085
120.102
119.003
117.782
116.432
114.95
113.33
111.569
109.666
107.621
105.436
103.116
100.668
98.1008
95.4266
92.6594
89.8155
86.9127
83.9688
81.0265
124.678
124.604
124.431
124.164
123.812
123.376
122.854
122.24
121.533
120.728
119.82
118.806
117.679
116.436
115.073
113.587
111.975
110.236
108.37
106.379
104.267
102.039
99.7022
97.266
94.7415
92.1415
89.4802
86.7727
84.0343
81.2999
123.713
123.634
123.449
123.165
122.791
122.329
121.778
121.135
120.397
119.562
118.626
117.586
116.439
115.182
113.812
112.329
110.73
109.018
107.192
105.256
103.214
101.073
98.8392
96.522
94.1316
91.6795
89.1781
86.6403
84.0791
81.5234
122.787
122.703
122.508
122.208
121.815
121.331
120.755
120.087
119.324
118.464
117.505
116.447
115.285
114.02
112.65
111.174
109.594
107.91
106.125
104.243
102.269
100.208
98.069
95.8591
93.5883
91.2666
88.9049
86.5145
84.1062
81.7043
121.906
121.818
121.614
121.301
120.891
120.388
119.792
119.102
118.318
117.439
116.464
115.391
114.221
112.952
111.586
110.122
108.562
106.908
105.164
103.334
101.423
99.4372
97.3834
95.2698
93.1047
90.8975
88.6577
86.3948
84.1185
81.8487
121.078
120.987
120.775
120.45
120.026
119.507
118.894
118.187
117.387
116.492
115.504
114.423
113.248
111.98
110.62
109.17
107.633
106.01
104.305
102.524
100.671
98.7531
96.7762
94.7479
92.6761
90.5689
88.4348
86.2821
84.1192
81.9628
120.311
120.217
119.998
119.664
119.227
118.695
118.069
117.348
116.534
115.629
114.632
113.545
112.369
111.104
109.754
108.319
106.804
105.21
103.543
101.807
100.008
98.1507
96.2421
94.2889
92.2984
90.278
88.235
86.177
84.1111
82.0515
119.614
119.517
119.292
118.949
118.503
117.96
117.322
116.59
115.767
114.853
113.851
112.761
111.586
110.327
108.987
107.568
106.074
104.509
102.877
101.182
99.4301
97.6267
95.778
93.8902
91.97
90.024
88.059
86.0816
84.0982
82.1207
118.995
118.896
118.665
118.314
117.859
117.307
116.66
115.92
115.09
114.17
113.164
112.074
110.901
109.649
108.319
106.916
105.443
103.904
102.302
100.644
98.934
97.1775
95.3803
93.5485
91.688
89.8051
87.9058
85.996
84.0817
82.1725
118.463
118.361
118.125
117.767
117.304
116.745
116.092
115.345
114.51
113.586
112.579
111.489
110.32
109.075
107.756
106.367
104.913
103.396
101.822
100.195
98.521
96.8042
95.0505
93.2656
91.455
89.6245
87.7796
85.9259
84.0686
82.2162
118.028
117.923
117.679
117.313
116.844
116.279
115.62
114.869
114.029
113.104
112.095
111.007
109.842
108.604
107.295
105.919
104.48
102.983
101.432
99.8312
98.1862
96.5018
94.7834
93.0363
91.2657
89.477
87.6754
85.866
84.0536
82.2452
117.702
117.591
117.338
116.966
116.492
115.922
115.259
114.504
113.662
112.735
111.727
110.641
109.48
108.247
106.946
105.581
104.155
102.674
101.141
99.5608
97.939
96.2801
94.5893
92.8716
91.1321
89.3759
87.6079
85.833
84.0558
82.2825
117.5
117.365
117.095
116.717
116.241
115.669
115.003
114.246
113.403
112.476
111.469
110.385
109.227
107.999
106.704
105.347
103.93
102.46
100.94
99.3739
97.7678
96.1261
94.4537
92.7555
91.0366
89.3017
87.5556
85.8028
84.0479
82.2956
117.482
117.283
116.985
116.6
116.121
115.546
114.877
114.118
113.274
112.348
111.341
110.259
109.104
107.879
106.589
105.237
103.827
102.365
100.853
99.2966
97.7008
96.0702
94.4096
92.7238
91.0177
89.296
87.5634
85.8242
84.0829
82.3436
-50.5696
-30.3593
-11.0404
35.9706
28.6226
16.7837
51.5203
39.4805
28.3345
52.9174
42.5149
34.497
57.2439
48.9725
42.2331
61.6236
54.7277
48.8485
64.8867
59.0146
53.9737
67.4729
62.4546
58.1511
69.6526
65.325
61.6201
71.492
67.7167
64.4924
73.0384
69.7105
66.8754
74.3409
71.3801
68.8628
75.44
72.7833
70.5279
76.368
73.9655
71.9281
77.1513
74.9632
73.1088
77.8116
75.8058
74.1063
78.3673
76.5172
74.9496
78.8333
77.1171
75.6623
79.2228
77.6218
76.2637
79.5466
78.0451
76.7702
79.8143
78.3986
77.1951
80.0345
78.6927
77.5504
80.2139
78.9355
77.8453
80.3605
79.1359
78.0899
80.4767
79.2974
78.2886
80.5745
79.4326
78.4537
80.6451
79.533
78.5789
80.717
79.6276
78.6908
80.7505
79.6774
78.7545
80.8194
79.7604
78.844
-2.32629
-2.18371
-0.736834
0.367999
0.424496
0.493733
0.550878
0.52804
0.522996
0.561804
0.556097
0.496784
0.446334
0.427868
0.413468
0.369604
0.307796
0.264848
0.26354
0.287616
0.297393
0.274654
0.226497
0.168467
0.117022
0.0828116
0.0620167
0.0402862
0.0158507
0.00426186
3.05668
0.00841012
1.33036
0.954332
-0.23706
-0.109758
0.436581
0.497509
0.480046
0.564467
0.549571
0.436595
0.365726
0.383605
0.416931
0.372863
0.283088
0.220472
0.231454
0.291638
0.325831
0.303317
0.242088
0.167939
0.104651
0.0690545
0.0572208
0.0438918
0.0184643
0.00468483
14.1014
5.68764
2.85738
0.575637
0.140623
1.19513
1.41347
0.369333
-0.0787225
0.215162
0.56086
0.443059
0.333154
0.390908
0.458516
0.377728
0.22276
0.116982
0.15258
0.292735
0.381585
0.353219
0.26821
0.169793
0.0889162
0.0504417
0.0525971
0.0539326
0.0252184
0.00526953
23.7756
13.9194
8.07932
4.3297
2.50371
1.81849
0.774217
0.0888537
0.233338
1.36369
1.40883
0.346623
-0.0824507
0.0242703
0.37689
0.442656
0.209314
0.0386475
0.12635
0.351808
0.476178
0.412412
0.285646
0.152402
0.0465022
0.0035254
0.0317824
0.0675685
0.0373246
0.00546103
32.9117
23.1659
15.8577
10.56
6.90355
4.41751
2.5841
1.53504
1.16877
1.23318
0.748274
0.172561
-0.0205377
0.552986
1.13119
0.750448
0.0943636
-0.31583
-0.316811
0.216969
0.60459
0.512214
0.32372
0.149854
0.0186473
-0.02517
0.0473072
0.129688
0.0755185
0.00521117
40.8626
31.9469
24.0659
17.6367
12.7089
9.05504
6.37327
4.47528
3.18657
2.30197
1.52458
0.910428
0.585863
0.691065
0.718167
0.503748
0.00906492
-0.365975
-0.121906
0.81921
1.05328
0.571913
0.289789
0.0769959
-0.0855732
-0.158303
-0.0769281
0.128072
0.130072
0.000293663
47.3481
39.5494
31.7796
24.8934
19.2672
14.8006
11.2718
8.51335
6.40804
4.8264
3.59003
2.59986
1.89349
1.48983
1.19206
0.852089
0.371019
0.0303479
0.153819
0.599125
0.746803
0.576752
0.343637
0.118422
-0.0736023
-0.144606
0.0675398
0.371228
0.296712
-0.00711008
52.6306
45.9036
38.6502
31.8231
25.94
20.9916
16.8482
13.4208
10.6404
8.41316
6.60837
5.13568
3.9864
3.14276
2.49262
1.89283
1.30042
0.87548
0.773819
0.897433
0.939354
0.767422
0.485968
0.22049
0.0191941
-0.0520835
0.0674884
0.23004
0.298393
-0.0637557
56.94
51.1255
44.5437
38.0718
32.2539
27.1405
22.668
18.8008
15.5087
12.737
10.4078
8.45888
6.85878
5.57179
4.51812
3.6054
2.80803
2.1949
1.83402
1.66641
1.50249
1.21718
0.865137
0.545051
0.305589
0.186179
0.202308
0.264588
0.227596
-0.300569
60.4567
55.39
49.4885
43.5042
37.95
32.9034
28.3356
24.2422
20.6247
17.4639
14.7221
12.3595
10.3434
8.63865
7.19225
5.9482
4.88159
4.01144
3.35896
2.88074
2.46119
2.01406
1.55489
1.1406
0.809315
0.583518
0.459799
0.363468
0.144545
-0.518073
63.3446
58.8853
53.6053
48.1369
42.9397
38.0968
33.5953
29.4469
25.6722
22.2764
19.2474
16.5644
14.2052
12.1444
10.3486
8.78196
7.42152
6.26423
5.30839
4.52059
3.83113
3.18121
2.5638
2.00545
1.53061
1.14928
0.846041
0.554202
0.153084
-0.598832
65.7363
61.7723
57.0338
52.0541
47.2381
42.6642
38.3254
34.2389
30.4342
26.9298
23.7292
20.8268
18.2123
15.8711
13.7835
11.9269
10.2831
8.8418
7.59245
6.50927
5.54822
4.66806
3.85351
3.11247
2.45615
1.88476
1.37739
0.878728
0.30179
-0.529168
67.7312
64.1752
59.8992
55.359
50.911
46.6256
42.4965
38.5408
34.7902
31.2693
27.9905
24.9582
22.1714
19.6246
17.308
15.2087
13.3141
11.6134
10.0948
8.73854
7.51528
6.3959
5.36383
4.41644
3.55476
2.7725
2.04818
1.33875
0.585158
-0.335144
69.4043
66.1877
62.305
58.151
54.0413
50.0379
46.1334
42.3424
38.6952
35.2181
31.9282
28.8354
25.9449
23.258
20.7718
18.4805
16.3767
14.4522
12.6968
11.0958
9.62925
8.27645
7.02218
5.85868
4.78071
3.77862
2.83283
1.91119
0.975322
-0.0550979
70.8132
67.8816
64.3337
60.5156
56.7092
52.9691
49.2859
45.6711
42.1522
38.7548
35.4975
32.3933
29.451
26.6762
24.071
21.6345
19.3634
17.2529
15.2955
13.4811
11.7958
10.2247
8.75496
7.37701
6.08267
4.86102
3.69522
2.56166
1.43581
0.269674
72.003
69.3122
66.0502
62.5234
58.9857
55.4852
52.0111
48.5712
45.1898
41.8908
38.6926
35.6093
32.6519
29.8284
27.144
24.6014
22.2005
19.9394
17.8136
15.8164
13.9385
12.1691
10.4977
8.91497
7.41171
5.97709
4.59683
3.2533
1.93014
0.602914
73.0093
70.5229
67.5058
64.2315
60.9303
57.645
54.3634
51.0903
47.8465
44.6536
41.5291
38.4872
35.5393
32.6952
29.9619
27.3442
24.8447
22.4635
20.1991
18.0473
16.0021
14.0558
12.2003
10.4268
8.72662
7.08946
5.50301
3.95335
2.42808
0.918592
73.8606
71.5483
68.7415
65.6861
62.5923
59.4987
56.3919
53.2739
50.1625
47.0767
44.0328
41.0439
38.1219
35.2768
32.5168
29.8481
27.2749
24.7993
22.4215
20.1398
17.9506
15.8485
13.8271
11.879
9.99613
8.16894
6.38646
4.63665
2.90822
1.20211
74.5802
72.4164
69.7905
66.9249
64.0125
61.0885
58.1387
55.1629
52.1756
49.1939
46.2321
43.3026
40.4165
37.5839
34.8133
32.1119
29.4848
26.9355
24.4658
22.0756
19.7631
17.5246
15.3554
13.2492
11.1986
9.19493
7.22789
5.28609
3.35775
1.44849
75.1876
73.1505
70.6802
67.9788
65.2247
62.4501
59.6401
56.7928
53.9202
51.0369
48.1556
45.2876
42.4431
39.6318
36.8623
34.1419
31.4765
28.8705
26.3267
23.8462
21.4286
19.0715
16.7715
14.5233
12.3203
10.1541
8.01503
5.89149
3.77051
1.65918
75.6987
73.7697
71.433
68.8737
66.2571
63.6132
60.927
58.1947
55.4262
52.6341
49.8295
47.0223
44.222
41.4374
38.677
35.948
33.2565
30.6074
28.0043
25.4491
22.9424
20.4829
18.068
15.6933
13.3527
11.0384
8.74056
6.44737
4.14446
1.83853
76.1273
74.2902
72.068
69.631
67.1335
64.6035
62.0257
59.3953
56.7202
54.0112
51.278
48.5291
45.7731
43.0181
40.2719
37.5416
34.8333
32.1521
29.502
26.8856
24.3038
21.7565
19.2415
16.755
14.2915
11.8434
9.4008
6.95155
4.48008
1.99168
76.4845
74.7253
72.6008
70.2685
67.8733
65.4415
62.958
60.417
57.8245
55.19
52.5218
49.8273
47.1139
44.3892
41.6602
38.9337
36.2156
33.5111
30.8241
28.1577
25.5134
22.8912
20.2897
17.7055
15.1334
12.5659
9.99317
7.40257
4.77778
2.12219
76.7813
75.0875
73.0456
70.8022
68.4942
66.1464
63.7439
61.2801
58.7597
56.1908
53.5805
50.9354
48.2619
45.5665
42.856
40.1365
37.4136
34.6924
31.9769
29.2703
26.5742
23.8891
21.2137
18.5452
15.8783
13.2059
10.518
7.80156
5.03986
2.23393
77.0238
75.3844
73.4114
71.2425
69.0076
66.7305
64.3966
61.9984
59.5397
57.0274
54.4677
51.8662
49.2285
46.5605
43.8682
41.1573
38.433
35.7003
32.9629
30.2242
27.4858
24.7484
22.011
19.2708
16.5228
13.7598
10.9718
8.14567
5.26435
2.32653
77.2238
75.6285
73.7122
71.6046
69.4299
67.2111
64.9338
62.5902
60.1831
57.7184
55.2015
52.6374
50.0308
47.3871
44.7117
42.0098
39.2863
36.5458
33.7921
31.0281
28.2559
25.476
22.6875
19.8877
17.0718
14.2325
11.3598
8.44032
5.45693
2.4052
77.3781
75.8177
73.9462
71.8872
69.7602
67.5878
65.3558
63.0559
60.6902
58.2639
55.7819
53.2482
50.6674
48.0442
45.3833
42.6897
39.9679
37.2223
34.4564
31.6733
28.8746
26.0612
23.232
20.3844
17.5136
14.6124
11.6705
8.67466
5.60771
2.46292
77.5089
75.9742
74.1368
72.1146
70.0238
67.8865
65.6887
63.422
61.0879
58.691
56.2356
53.7256
51.1648
48.5574
45.9082
43.2214
40.5015
37.7526
34.978
32.1806
29.3622
26.5233
23.6632
20.7791
17.8661
14.917
11.9214
8.8659
5.73306
2.51232
77.5894
76.0708
74.2557
72.2586
70.1921
68.0783
65.9035
63.659
61.346
58.9688
56.5314
54.0373
51.49
48.8936
46.2523
43.5704
40.852
38.101
35.3208
32.514
29.6825
26.8267
23.9458
21.037
18.0954
15.1136
12.0812
8.98417
5.80521
2.53207
77.6781
76.1606
74.3578
72.3757
70.3229
68.2217
66.059
63.8262
61.5243
59.1572
56.7288
54.2425
51.7016
49.1102
46.4722
43.7918
41.0732
38.32
35.5357
32.7228
29.8832
27.0173
24.1243
21.2014
18.2436
15.2435
12.1902
9.06887
5.85965
2.53859
)
;

boundaryField
{
    inlet
    {
        type            zeroGradient;
    }
    outlet
    {
        type            fixedValue;
        value           uniform 0;
    }
    flap
    {
        type            zeroGradient;
    }
    upperWall
    {
        type            zeroGradient;
    }
    lowerWall
    {
        type            zeroGradient;
    }
    frontAndBack
    {
        type            empty;
    }
}


// ************************************************************************* //
