/*--------------------------------*- C++ -*----------------------------------*\
  =========                 |
  \\      /  F ield         | OpenFOAM: The Open Source CFD Toolbox
   \\    /   O peration     | Website:  https://openfoam.org
    \\  /    A nd           | Version:  dev
     \\/     M anipulation  |
\*---------------------------------------------------------------------------*/
FoamFile
{
    version     2.0;
    format      ascii;
    class       volScalarField;
    location    "1";
    object      p;
}
// * * * * * * * * * * * * * * * * * * * * * * * * * * * * * * * * * * * * * //

dimensions      [0 2 -2 0 0 0 0];

internalField   nonuniform List<scalar> 
2790
(
204.482
204.399
204.687
205.29
206.11
207.113
208.297
209.658
211.19
212.887
214.739
216.739
218.875
221.133
223.497
225.943
228.444
230.964
233.462
235.888
238.184
240.288
242.139
243.678
244.861
245.668
246.052
246.092
246.161
246.369
204.276
204.303
204.617
205.217
206.033
207.034
208.213
209.568
211.093
212.782
214.626
216.616
218.742
220.99
223.343
225.78
228.274
230.79
233.288
235.718
238.025
240.147
242.022
243.588
244.793
245.599
245.95
246.006
246.137
246.403
204.072
204.169
204.501
205.091
205.894
206.882
208.046
209.384
210.888
212.552
214.369
216.329
218.421
220.632
222.947
225.343
227.795
230.272
232.735
235.138
237.43
239.554
241.449
243.058
244.33
245.238
245.783
246.111
246.404
246.684
203.839
203.966
204.311
204.892
205.681
206.652
207.797
209.111
210.587
212.219
213.998
215.915
217.96
220.119
222.376
224.711
227.1
229.514
231.917
234.269
236.525
238.633
240.542
242.205
243.584
244.667
245.478
246.103
246.621
247.108
203.567
203.708
204.062
204.635
205.407
206.358
207.477
208.76
210.2
211.789
213.52
215.383
217.367
219.459
221.644
223.901
226.209
228.541
230.866
233.149
235.35
237.43
239.347
241.067
242.565
243.838
244.904
245.809
246.572
247.269
203.252
203.399
203.755
204.318
205.071
205.996
207.084
208.329
209.725
211.264
212.938
214.737
216.649
218.662
220.76
222.925
225.137
227.371
229.6
231.794
233.923
235.956
237.863
239.622
241.218
242.651
243.93
245.07
246.033
246.891
202.892
203.041
203.393
203.944
204.673
205.568
206.62
207.822
209.168
210.649
212.256
213.981
215.811
217.733
219.732
221.792
223.893
226.012
228.128
230.215
232.249
234.209
236.075
237.835
239.483
241.021
242.448
243.758
244.86
245.841
202.488
202.634
202.98
203.514
204.218
205.079
206.089
207.243
208.531
209.947
211.48
213.121
214.858
216.679
218.568
220.509
222.483
224.472
226.455
228.412
230.324
232.177
233.959
235.668
237.304
238.871
240.366
241.771
242.958
244.037
202.04
202.182
202.517
203.031
203.706
204.53
205.494
206.593
207.819
209.162
210.614
212.163
213.798
215.506
217.273
219.082
220.915
222.755
224.584
226.385
228.142
229.846
231.492
233.081
234.623
236.126
237.591
239.004
240.215
241.375
201.548
201.685
202.006
202.499
203.142
203.924
204.839
205.879
207.036
208.3
209.663
211.113
212.637
214.223
215.856
217.519
219.196
220.869
222.521
224.136
225.7
227.206
228.65
230.039
231.384
232.704
234.01
235.313
236.465
237.687
201.015
201.145
201.451
201.919
202.527
203.265
204.126
205.103
206.186
207.367
208.634
209.977
211.383
212.838
214.326
215.831
217.337
218.824
220.274
221.672
223.002
224.254
225.423
226.513
227.537
228.519
229.487
230.497
231.442
232.676
200.442
200.565
200.854
201.294
201.865
202.556
203.36
204.27
205.275
206.367
207.534
208.764
210.043
211.359
212.693
214.029
215.348
216.63
217.856
219.005
220.058
220.999
221.814
222.496
223.047
223.488
223.857
224.267
224.706
225.812
199.831
199.947
200.217
200.628
201.16
201.802
202.546
203.385
204.309
205.307
206.368
207.48
208.628
209.796
210.968
212.125
213.245
214.306
215.286
216.157
216.894
217.468
217.849
218.007
217.916
217.563
216.959
216.24
215.526
216.048
199.186
199.293
199.544
199.924
200.414
201.004
201.687
202.452
203.291
204.193
205.145
206.135
207.146
208.162
209.165
210.133
211.044
211.872
212.588
213.158
213.546
213.706
213.585
213.115
212.214
210.784
208.714
206.001
202.703
201.027
198.508
198.607
198.836
199.184
199.632
200.169
200.787
201.477
202.229
203.032
203.872
204.735
205.606
206.466
207.295
208.07
208.765
209.35
209.79
210.044
210.062
209.78
209.112
207.945
206.113
203.371
199.329
193.431
184.573
174.19
81.8449
81.4208
80.7557
79.6412
78.0643
75.9692
73.322
70.1108
66.3449
62.0536
57.2861
52.1098
46.61
40.8886
35.0627
29.2629
23.6302
18.3121
13.4591
9.22185
5.74589
3.14467
1.45554
0.687022
0.778345
1.65704
3.35994
5.76176
7.4107
4.4281
82.2993
81.855
81.0879
79.9159
78.2843
76.1363
73.4371
70.1747
66.3584
62.0183
57.2038
51.9827
46.4405
40.6793
34.8166
28.9829
23.3192
17.973
13.0936
8.82686
5.30732
2.64314
0.902871
0.0795666
0.104021
0.896042
2.49357
4.8432
6.60415
3.70905
83.0343
82.4467
81.5406
80.2226
78.4478
76.1672
73.3493
69.9824
66.0754
61.6569
56.7748
51.4951
45.9018
40.0957
34.1928
28.3232
22.6275
17.2533
12.3498
8.05987
4.51317
1.81993
0.0325278
-0.826398
-0.83715
-0.0915955
1.43584
3.72555
5.53299
2.98371
83.7651
83.0198
81.944
80.4347
78.4699
76.0115
73.0334
69.5251
65.4946
60.9685
55.9923
50.6297
44.9625
39.0897
33.1262
27.201
21.4546
16.0349
11.0913
6.76618
3.18401
0.444891
-1.36788
-2.24766
-2.26627
-1.51886
-0.00108012
2.24917
4.09673
2.2349
84.1733
83.3067
82.0914
80.4062
78.257
75.6185
72.4727
68.813
64.648
60.0034
54.9227
49.4678
43.7184
37.7717
31.7413
25.7552
19.9534
14.484
9.49698
5.13508
1.5219
-1.24325
-3.08416
-3.97509
-3.97872
-3.19121
-1.63727
0.600113
2.5259
1.49953
84.1014
83.1689
81.8686
80.053
77.7553
74.961
71.6618
67.8566
63.5565
58.7879
53.5936
48.0344
42.1887
36.1527
30.0392
23.9761
18.1038
12.5714
7.5312
3.12879
-0.509072
-3.28295
-5.12434
-5.99978
-5.95156
-5.0762
-3.43233
-1.1534
0.923448
0.792276
83.5589
82.6119
81.2773
79.3807
76.9783
74.0624
70.6337
66.6973
62.2686
57.3762
52.064
46.3931
40.442
34.3066
28.0998
21.9499
15.998
10.3949
5.29515
0.8493
-2.8095
-5.57991
-7.40304
-8.23983
-8.10829
-7.10516
-5.32326
-2.94267
-0.646855
0.121249
82.6645
81.7397
80.4056
78.4669
75.997
72.9902
69.4546
65.4016
60.8515
55.8363
50.4027
44.6133
38.5475
32.3022
25.9909
19.7428
13.7007
8.01711
2.85026
-1.6432
-5.3208
-8.07643
-9.8597
-10.6319
-10.3873
-9.22114
-7.2567
-4.71476
-2.14611
-0.507915
81.5909
80.7098
79.394
77.4363
74.922
71.8432
68.2147
64.0532
59.3845
54.2451
48.6851
42.7697
36.5803
30.2152
23.7892
17.4328
11.2908
5.51823
0.277047
-4.26917
-7.96724
-10.7026
-12.4262
-13.1075
-12.7263
-11.3694
-9.18482
-6.42856
-3.54846
-1.09057
80.5327
79.7031
78.4085
76.4381
73.8852
70.7377
67.0171
62.7454
57.9541
52.6847
46.9909
40.9412
34.6193
28.1253
21.5756
15.1022
8.85165
2.98193
-2.3412
-6.94753
-10.6731
-13.3893
-15.032
-15.5947
-15.0638
-13.4972
-11.0645
-8.05124
-4.83457
-1.62253
79.6852
78.9038
77.6209
75.628
73.024
69.7937
65.967
61.5722
56.6464
51.2361
45.3986
39.2053
32.7426
26.1122
19.4318
12.8344
6.46857
0.494751
-4.91761
-9.59242
-13.3537
-16.0503
-17.5998
-18.0299
-17.3386
-15.5524
-12.8557
-9.55564
-5.98874
-2.10006
79.2247
78.4814
77.1932
75.152
72.4656
69.1203
65.1593
60.6174
55.5384
49.9725
43.9796
37.6338
31.0233
24.2515
17.4364
10.7112
4.22601
-1.85639
-7.36319
-12.1129
-15.9171
-18.5987
-20.0592
-20.3503
-19.4883
-17.4823
-14.5202
-10.9187
-6.99782
-2.51937
79.2855
78.5775
77.2644
75.1327
72.3117
68.8018
64.6654
59.945
54.69
48.9527
42.793
36.2875
29.5252
22.6104
15.6608
8.80763
2.20288
-3.98906
-9.59229
-14.4206
-18.2751
-20.9546
-22.3419
-22.4896
-21.4469
-19.233
-16.0202
-12.1201
-7.85031
-2.87548
79.938
79.2871
77.9375
75.6529
72.6153
68.8755
64.5164
59.5872
54.1386
48.2159
41.8804
35.212
28.2981
21.2442
14.1659
7.1883
0.467946
-5.83054
-11.5286
-16.435
-20.3469
-23.0429
-24.3845
-24.3821
-23.1465
-20.7523
-17.3172
-13.1393
-8.53461
-3.16075
81.169
80.6601
79.3135
76.7574
73.3835
69.336
64.7043
59.5343
53.872
47.7594
41.2557
34.4361
27.3866
20.206
13.0001
5.9038
-0.924443
-7.32361
-13.1119
-18.0929
-22.0703
-24.7998
-26.1134
-25.9692
-24.5492
-22.0022
-18.3775
-13.9575
-9.04161
-3.36549
197.787
197.876
198.084
198.398
198.801
199.283
199.834
200.446
201.108
201.808
202.532
203.265
203.991
204.689
205.338
205.913
206.385
206.719
206.875
206.803
206.439
205.7
204.471
202.589
199.799
195.684
189.469
179.548
160.836
110.368
197.013
197.093
197.278
197.557
197.913
198.336
198.818
199.348
199.916
200.509
201.113
201.712
202.287
202.819
203.283
203.653
203.896
203.973
203.84
203.438
202.694
201.509
199.748
197.215
193.608
188.441
180.858
169.453
153.286
130.165
196.194
196.263
196.424
196.666
196.974
197.337
197.746
198.193
198.664
199.148
199.628
200.089
200.512
200.875
201.152
201.314
201.327
201.15
200.732
200.012
198.908
197.318
195.1
192.06
187.929
182.335
174.818
164.919
153.347
140.326
195.329
195.387
195.524
195.728
195.986
196.287
196.623
196.983
197.357
197.729
198.085
198.407
198.676
198.868
198.959
198.916
198.704
198.28
197.591
196.574
195.148
193.211
190.635
187.254
182.865
177.237
170.154
161.388
151.006
138.637
194.42
194.468
194.579
194.745
194.952
195.19
195.451
195.725
195.999
196.259
196.49
196.673
196.789
196.814
196.721
196.479
196.05
195.393
194.453
193.17
191.466
189.251
186.411
182.817
178.319
172.759
165.983
157.804
148.117
137.059
193.471
193.508
193.593
193.719
193.874
194.05
194.236
194.422
194.596
194.745
194.851
194.898
194.863
194.725
194.455
194.022
193.39
192.517
191.352
189.837
187.904
185.472
182.45
178.735
174.217
168.786
162.341
154.802
146.174
136.789
192.482
192.508
192.568
192.654
192.758
192.87
192.981
193.08
193.156
193.194
193.178
193.091
192.911
192.615
192.177
191.565
190.746
189.678
188.315
186.605
184.488
181.897
178.759
174.997
170.534
165.302
159.254
152.377
144.712
136.525
191.459
191.474
191.507
191.554
191.606
191.655
191.692
191.705
191.684
191.614
191.48
191.263
190.944
190.499
189.903
189.126
188.137
186.897
185.365
183.496
181.238
178.538
175.34
171.589
167.235
162.239
156.586
150.287
143.375
136.065
190.403
190.407
190.415
190.423
190.424
190.411
190.375
190.304
190.189
190.015
189.766
189.426
188.974
188.39
187.648
186.722
185.582
184.193
182.521
180.525
178.165
175.399
172.185
168.485
164.27
159.52
154.234
148.432
142.148
135.566
189.319
189.313
189.296
189.266
189.217
189.143
189.035
188.884
188.678
188.403
188.046
187.589
187.014
186.301
185.427
184.368
183.096
181.582
179.795
177.703
175.274
172.476
169.279
165.659
161.598
157.091
152.145
146.784
141.041
135.073
188.213
188.196
188.155
188.087
187.99
187.857
187.681
187.452
187.159
186.789
186.33
185.764
185.076
184.245
183.253
182.076
180.691
179.073
177.197
175.036
172.566
169.763
166.607
163.084
159.186
154.913
150.28
145.31
140.034
134.583
187.089
187.062
186.997
186.893
186.749
186.561
186.319
186.016
185.64
185.182
184.627
183.961
183.169
182.233
181.136
179.858
178.379
176.678
174.734
172.526
170.038
167.251
164.153
160.738
157.002
152.952
148.604
143.98
139.108
134.096
185.952
185.916
185.828
185.69
185.502
185.259
184.956
184.583
184.131
183.589
182.946
182.189
181.304
180.275
179.087
177.723
176.167
174.4
172.407
170.173
167.684
164.929
161.901
158.598
155.021
151.181
147.091
142.773
138.252
133.619
184.81
184.764
184.654
184.484
184.254
183.961
183.599
183.161
182.638
182.02
181.298
180.459
179.491
178.38
177.114
175.679
174.06
172.244
170.219
167.973
165.498
162.786
159.835
156.645
153.222
149.575
145.719
141.674
137.46
133.155
183.668
183.613
183.484
183.282
183.013
182.673
182.258
181.759
181.171
180.484
179.69
178.777
177.737
176.556
175.225
173.731
172.064
170.213
168.169
165.924
163.473
160.813
157.942
154.864
151.586
148.117
144.473
140.67
136.726
132.707
182.533
182.471
182.322
182.092
181.786
181.403
180.938
180.385
179.737
178.988
178.13
177.153
176.05
174.81
173.424
171.884
170.181
168.307
166.255
164.022
161.603
158.997
156.208
153.238
150.096
146.792
143.338
139.75
136.044
132.277
181.414
181.343
181.177
180.921
180.582
180.159
179.649
179.046
178.345
177.541
176.626
175.594
174.437
173.147
171.718
170.142
168.413
166.526
164.476
162.26
159.879
157.332
154.622
151.756
148.741
145.586
142.304
138.908
135.413
131.866
180.317
180.239
180.058
179.778
179.408
178.949
178.398
177.751
177.003
176.15
175.187
174.107
172.904
171.574
170.11
168.507
166.762
164.869
162.827
160.636
158.295
155.806
153.175
150.406
147.508
144.49
141.362
138.137
134.828
131.475
179.25
179.167
178.971
178.669
178.271
177.78
177.193
176.507
175.718
174.823
173.817
172.697
171.458
170.095
168.604
166.982
165.227
163.336
161.308
159.143
156.845
154.414
151.857
149.18
146.389
143.494
140.505
137.432
134.287
131.105
178.223
178.134
177.925
177.604
177.182
176.662
176.042
175.322
174.497
173.566
172.525
171.371
170.102
168.713
167.203
165.569
163.81
161.925
159.914
157.779
155.523
153.149
150.662
148.069
145.376
142.593
139.727
136.79
133.79
130.758
177.244
177.149
176.928
176.59
176.146
175.601
174.954
174.204
173.349
172.387
171.316
170.135
168.842
167.434
165.91
164.269
162.51
160.635
158.644
156.54
154.325
152.005
149.584
147.067
144.464
141.78
139.024
136.206
133.334
130.434
176.321
176.222
175.991
175.637
175.175
174.608
173.937
173.161
172.28
171.292
170.198
168.995
167.683
166.26
164.727
163.083
161.329
159.466
157.497
155.423
153.248
150.978
148.617
146.171
143.647
141.052
138.393
135.68
132.92
130.135
175.464
175.361
175.121
174.754
174.275
173.689
172.998
172.201
171.298
170.289
169.175
167.955
166.629
165.196
163.658
162.014
160.267
158.418
156.47
154.425
152.289
150.064
147.758
145.375
142.922
140.405
137.832
135.211
132.548
129.863
174.683
174.577
174.328
173.95
173.456
172.854
172.146
171.331
170.41
169.385
168.255
167.022
165.685
164.246
162.706
161.065
159.326
157.492
155.564
153.547
151.446
149.263
147.005
144.678
142.287
139.839
137.341
134.799
132.22
129.621
173.987
173.878
173.622
173.233
172.727
172.112
171.389
170.559
169.624
168.585
167.444
166.201
164.857
163.414
161.873
160.237
158.507
156.687
154.779
152.788
150.717
148.572
146.357
144.078
141.741
139.352
136.917
134.442
131.935
129.407
173.388
173.275
173.012
172.613
172.097
171.471
170.736
169.895
168.949
167.9
166.749
165.499
164.151
162.706
161.167
159.536
157.815
156.008
154.119
152.15
150.107
147.994
145.816
143.578
141.286
138.947
136.565
134.147
131.699
129.233
172.896
172.779
172.508
172.099
171.573
170.938
170.194
169.343
168.388
167.332
166.175
164.92
163.569
162.124
160.587
158.962
157.25
155.455
153.581
151.631
149.611
147.525
145.377
143.173
140.918
138.619
136.28
133.907
131.506
129.087
172.526
172.402
172.12
171.704
171.171
170.529
169.778
168.92
167.959
166.897
165.736
164.478
163.126
161.682
160.148
158.527
156.823
155.039
153.178
151.244
149.243
147.178
145.055
142.878
140.653
138.385
136.08
133.744
131.381
129.001
172.293
172.145
171.845
171.422
170.886
170.239
169.483
168.622
167.657
166.592
165.429
164.17
162.818
161.375
159.844
158.227
156.529
154.752
152.9
150.978
148.989
146.939
144.832
142.673
140.467
138.22
135.937
133.623
131.284
128.925
172.257
172.046
171.718
171.288
170.748
170.097
169.338
168.473
167.507
166.441
165.278
164.02
162.669
161.228
159.701
158.089
156.396
154.626
152.783
150.87
148.891
146.852
144.758
142.612
140.42
138.188
135.92
133.622
131.299
128.957
40.765
58.5023
73.7338
115.173
110.56
102.638
127.574
119.06
111.156
125.843
117.858
111.689
126.757
120.075
114.549
128.26
122.443
117.351
129.022
123.827
119.219
129.359
124.705
120.573
129.538
125.347
121.63
129.609
125.803
122.44
129.591
126.109
123.047
129.506
126.302
123.496
129.375
126.41
123.824
129.212
126.455
124.059
129.027
126.453
124.223
128.829
126.415
124.33
128.622
126.352
124.395
128.413
126.269
124.425
128.205
126.174
124.428
128
126.07
124.411
127.803
125.961
124.379
127.615
125.852
124.337
127.44
125.746
124.288
127.282
125.647
124.238
127.14
125.555
124.189
127.026
125.484
124.152
126.927
125.419
124.116
126.881
125.4
124.117
126.828
125.366
124.1
126.885
125.439
124.18
82.66
82.7212
81.4275
78.3799
74.5334
70.1125
65.172
59.7448
53.8662
47.5718
40.9133
33.9587
26.7873
19.491
12.1774
4.98953
-1.92318
-8.40031
-14.2614
-19.336
-23.3851
-26.1593
-27.4798
-27.2645
-25.6773
-22.9872
-19.2047
-14.5859
-9.38795
-3.49029
94.7545
88.861
84.6327
80.332
75.8615
71.0451
65.8053
60.1401
54.0683
47.6168
40.8291
33.7657
26.5011
19.125
11.7439
4.49523
-2.47458
-9.00885
-14.9367
-20.0809
-24.1813
-27.0021
-28.3559
-28.1161
-26.4455
-23.6667
-19.7836
-15.0183
-9.58811
-3.55213
100.552
91.9967
86.9069
82.1393
77.1366
71.917
66.4235
60.5856
54.3812
47.8245
40.9527
33.8221
26.5046
19.0889
11.68
4.40806
-2.58309
-9.13805
-15.0858
-20.2394
-24.3577
-27.2063
-28.5991
-28.4385
-26.8063
-23.9503
-20.0488
-15.2218
-9.67476
-3.5958
102.956
94.0777
88.1697
83.0498
77.889
72.5288
66.9055
60.9733
54.7103
48.1193
41.2286
34.0894
26.7718
19.3635
11.9688
4.71343
-2.26109
-8.79934
-14.7291
-19.8598
-23.9679
-26.8286
-28.2648
-28.1951
-26.65
-23.8333
-19.9722
-15.2124
-9.70145
-3.66878
106.461
97.4801
90.4065
84.2959
78.5899
72.9948
67.2805
61.3101
55.0383
48.4657
41.6148
34.5283
27.2702
19.9247
12.5943
5.4014
-1.51434
-7.99817
-13.8787
-18.967
-23.0528
-25.9262
-27.421
-27.4598
-26.072
-23.3664
-19.6142
-14.9901
-9.62151
-3.70827
110.002
101.344
93.5076
86.4375
79.9643
73.8527
67.8506
61.758
55.461
48.9175
42.1309
35.1332
27.9795
20.7459
13.5292
6.44648
-0.366629
-6.75797
-12.5592
-17.5864
-21.6419
-24.5321
-26.1031
-26.2786
-25.0797
-22.6069
-19.0124
-14.569
-9.43274
-3.72585
112.781
104.802
96.7754
89.1661
82.1035
75.4491
69.0168
62.6448
56.2107
49.6362
42.8887
35.9758
28.937
21.8373
14.764
7.82531
1.14936
-5.11812
-10.8152
-15.7662
-19.7868
-22.7001
-24.3648
-24.7061
-23.7331
-21.5322
-18.242
-14.0423
-9.13628
-3.70054
114.948
107.729
99.9033
92.1543
84.7945
77.7662
70.9498
64.2487
57.5809
50.8776
44.0936
37.2155
30.2622
23.2822
16.3493
9.56023
3.03232
-3.09883
-8.68162
-13.5521
-17.5409
-20.4875
-22.263
-22.7949
-22.0813
-20.1904
-17.2436
-13.3964
-8.79898
-3.62916
116.666
110.163
102.754
95.1597
87.7749
80.5983
73.5583
66.611
59.7205
52.8492
45.9662
39.058
32.1344
25.23
18.4045
11.741
5.34367
-0.664479
-6.14497
-10.9482
-14.921
-17.919
-19.8258
-20.5713
-20.1454
-18.5981
-16.0292
-12.569
-8.35135
-3.51261
118.008
112.143
105.248
97.9959
90.7991
83.6864
76.6148
69.5737
62.5626
55.5741
48.5998
41.6394
34.7069
27.8343
21.073
14.4951
8.19219
2.27384
-3.13575
-7.90235
-11.8891
-14.9676
-17.0329
-18.0186
-17.9082
-16.7363
-14.5814
-11.5505
-7.75703
-3.31805
119.049
113.737
107.373
100.557
93.6862
86.7996
79.867
72.894
65.901
58.9025
51.9094
44.9362
38.0067
31.157
24.4376
17.915
11.672
5.80675
0.430204
-4.33813
-8.37681
-11.572
-13.8296
-15.0872
-15.3237
-14.5613
-12.8605
-10.3087
-7.00319
-3.05853
119.859
115.023
109.162
102.809
96.3322
89.7723
83.1017
76.3302
69.4869
62.5985
55.688
48.7811
41.9103
35.1171
28.454
21.9856
15.7896
9.95577
4.58431
-0.217848
-4.34275
-7.68925
-10.1727
-11.735
-12.3518
-12.0357
-10.8331
-8.81659
-6.07346
-2.7223
120.493
116.065
110.663
104.758
98.6945
92.5081
86.1704
79.6894
73.0951
66.4183
59.6878
52.9349
46.1969
39.519
32.9548
26.5682
20.4328
14.6323
9.25823
4.40716
0.175847
-3.3452
-6.0795
-7.97262
-8.99848
-9.16255
-8.50087
-7.07555
-4.96878
-2.30571
120.99
116.915
111.92
106.433
100.77
94.9657
88.989
82.8439
76.5579
70.1612
63.6834
57.1569
50.6202
44.1188
37.7057
31.4424
25.3986
19.6522
14.287
9.39079
5.05071
1.34831
-1.64691
-3.88401
-5.33612
-6.00378
-5.91561
-5.12669
-3.71657
-1.81552
121.379
117.609
112.976
107.867
102.578
97.1404
91.5231
85.7256
79.7718
73.6891
67.5054
61.2515
54.9641
48.6865
42.4689
36.3687
30.4509
24.7866
19.4525
14.5277
10.0908
6.21545
2.9647
0.38599
-1.49393
-2.67246
-3.17298
-3.04547
-2.36717
-1.26898
121.682
118.177
113.862
109.092
104.143
99.0469
93.7704
88.3104
82.6869
76.9245
71.0483
65.0861
59.0715
53.044
47.0493
41.1398
35.3742
29.8169
24.5365
19.604
15.0898
11.0596
7.57053
4.66622
2.37243
0.693547
-0.390092
-0.924152
-0.982558
-0.691154
121.916
118.642
114.607
110.138
105.495
100.709
95.7457
90.6008
85.2905
79.8365
74.2609
68.5884
62.8488
57.0773
51.3145
45.6072
40.0073
34.572
29.3621
24.4402
19.8684
15.7053
12.0017
8.79713
6.11567
3.96243
2.32056
1.14848
0.376957
-0.109892
122.094
119.02
115.231
111.029
106.66
102.151
97.4712
92.6135
87.5914
82.4238
77.1299
71.7315
66.2545
60.7298
55.1932
49.6855
44.2523
38.9434
33.812
28.9127
24.2999
20.0248
16.1322
12.6573
9.62196
7.03127
4.87056
3.10226
1.66289
0.449721
122.226
119.325
115.753
111.786
107.658
103.397
98.9706
94.371
89.6091
84.7014
79.6645
74.5174
69.2825
63.9866
58.6609
53.3408
48.0659
42.8793
37.8268
32.956
28.3138
23.9445
19.8873
16.1729
12.8207
9.83525
7.20359
4.89205
2.84331
0.969101
122.321
119.569
116.186
112.427
108.512
104.469
100.267
95.8968
91.3669
86.6915
81.885
76.9637
71.9469
66.8577
61.723
56.5736
51.4433
46.3695
41.3916
36.5504
31.8862
27.4373
23.2374
19.313
15.6809
12.3449
9.29347
6.49639
3.90243
1.43748
122.385
119.763
116.544
112.967
109.238
105.386
101.382
97.2136
92.8884
88.4183
83.8159
79.0947
74.2713
69.3655
64.4007
59.403
54.4018
49.4291
44.5186
39.7054
35.0241
30.5073
26.184
22.0768
18.2
14.5567
11.136
7.9112
4.83651
1.85064
122.426
119.914
116.838
113.418
109.852
106.167
102.335
98.3429
94.1966
89.9063
85.4824
80.9365
76.2827
71.5378
66.7217
61.8572
56.9692
52.0852
47.2343
42.4463
37.751
33.1762
28.7466
24.4815
20.3927
16.4824
12.7408
9.14351
5.64988
2.20941
122.448
120.031
117.077
113.794
110.368
106.827
103.143
99.3036
95.3121
91.1774
86.9083
82.5143
78.0073
73.4018
68.7146
63.9652
59.1752
54.3681
49.5688
44.803
40.096
35.4717
30.9512
26.5506
22.2798
18.1401
14.1221
10.204
6.34923
2.51606
122.459
120.121
117.272
114.105
110.799
107.381
103.824
100.114
96.2554
92.2538
88.117
83.853
79.4716
74.9852
70.4083
65.7573
61.051
56.3096
51.5544
46.8076
42.0909
37.4248
32.8271
28.3116
23.8863
19.5516
15.2986
11.1074
6.94493
2.776
122.461
120.189
117.427
114.358
111.153
107.838
104.388
100.788
97.0406
93.1509
89.1255
84.9708
80.6952
76.3089
71.8246
67.2563
62.6202
57.9338
53.2156
48.4847
43.7599
39.0587
34.3965
29.7848
25.23
20.732
16.2821
11.8618
7.44115
2.98999
122.464
120.246
117.557
114.569
111.447
108.217
104.855
101.345
97.6891
93.8916
89.9578
85.8931
81.7044
77.4006
72.9923
68.492
63.9135
59.2723
54.5844
49.8664
45.1349
40.4049
35.6897
30.999
26.3381
21.706
17.0943
12.4857
7.8526
3.16742
122.462
120.287
117.655
114.732
111.676
108.513
105.22
101.783
98.1993
94.475
90.6138
86.6204
82.5006
78.2619
73.9138
69.4671
64.9341
60.3283
55.6641
50.9562
46.219
41.4659
36.7085
31.955
27.2097
22.471
17.7307
12.9724
8.17058
3.30021
122.485
120.341
117.753
114.879
111.873
108.762
105.522
102.138
98.6099
94.9407
91.1344
87.1946
83.1265
78.9367
74.6335
70.2268
65.7275
61.1478
56.5008
51.7996
47.0574
42.2861
37.496
32.6944
27.8845
23.0646
18.2263
13.3537
8.42254
3.40741
122.489
120.365
117.807
114.966
111.994
108.916
105.711
102.364
98.8719
95.2394
91.4694
87.5652
83.5313
79.3739
75.1005
70.7202
66.2432
61.6808
57.0451
52.3484
47.6028
42.8194
38.0076
33.1739
28.321
23.4467
18.5424
13.5925
8.57344
3.46153
122.568
120.448
117.907
115.087
112.134
109.075
105.89
102.562
99.0896
95.4763
91.7248
87.8383
83.8212
79.679
75.419
71.05
66.5818
62.0252
57.392
52.6939
47.9427
43.1491
38.322
33.4677
28.5886
23.6822
18.7396
13.7442
8.66949
3.47905
)
;

boundaryField
{
    inlet
    {
        type            zeroGradient;
    }
    outlet
    {
        type            fixedValue;
        value           uniform 0;
    }
    flap
    {
        type            zeroGradient;
    }
    upperWall
    {
        type            zeroGradient;
    }
    lowerWall
    {
        type            zeroGradient;
    }
    frontAndBack
    {
        type            empty;
    }
}


// ************************************************************************* //
