/*--------------------------------*- C++ -*----------------------------------*\
  =========                 |
  \\      /  F ield         | OpenFOAM: The Open Source CFD Toolbox
   \\    /   O peration     | Website:  https://openfoam.org
    \\  /    A nd           | Version:  dev
     \\/     M anipulation  |
\*---------------------------------------------------------------------------*/
FoamFile
{
    version     2.0;
    format      ascii;
    class       surfaceScalarField;
    location    "1";
    object      phi;
}
// * * * * * * * * * * * * * * * * * * * * * * * * * * * * * * * * * * * * * //

dimensions      [0 3 -1 0 0 0 0];

internalField   nonuniform List<scalar> 
5457
(
0.198394
0.00160647
0.19641
0.00198389
0.194054
0.00235593
0.191283
0.00277114
0.188096
0.00318681
0.184497
0.00359863
0.180482
0.00401467
0.17604
0.00444211
0.171155
0.00488583
0.165805
0.00534959
0.159968
0.00583657
0.153619
0.00634939
0.146729
0.00688988
0.13927
0.00745868
0.131216
0.00805477
0.122541
0.0086748
0.113229
0.00931215
0.103273
0.00995597
0.0926828
0.0105899
0.0814917
0.0111911
0.0697627
0.011729
0.0575975
0.0121652
0.0451426
0.0124549
0.0325892
0.0125534
0.020137
0.0124522
0.00780777
0.0123293
-0.00347478
0.0112825
-0.00857411
0.00509933
-0.00787623
-0.000697887
-0.00787623
0.199904
0.00170247
0.199105
0.00278338
0.197825
0.00363534
0.196103
0.00449276
0.193937
0.00535359
0.191323
0.00621191
0.188259
0.00707935
0.184732
0.00796893
0.180727
0.00889051
0.176225
0.00985183
0.171202
0.0108596
0.165632
0.0119193
0.159487
0.0130351
0.152737
0.0142089
0.145352
0.0154395
0.137306
0.016721
0.128577
0.0180413
0.119153
0.01938
0.109037
0.0207057
0.0982548
0.0219732
0.0868621
0.0231216
0.0749553
0.0240721
0.0626833
0.0247269
0.0502669
0.0249698
0.0380601
0.0246589
0.0268264
0.0235629
0.0174576
0.0206514
0.00795199
0.0146049
0.000895042
0.00635906
-0.00698118
0.199757
0.00194559
0.199017
0.00352338
0.197809
0.00484319
0.196186
0.00611547
0.194157
0.00738328
0.191718
0.00865016
0.188868
0.00992966
0.185598
0.0112388
0.181897
0.0125921
0.177747
0.014001
0.173131
0.0154759
0.168025
0.0170254
0.162404
0.0186562
0.15624
0.0203723
0.149506
0.0221736
0.142173
0.0240538
0.134217
0.0259982
0.125616
0.0279805
0.116363
0.0299587
0.106465
0.0318711
0.095955
0.0336317
0.0849016
0.0351254
0.0734255
0.0362031
0.061723
0.0366722
0.0501068
0.0362752
0.039027
0.0346428
0.0286067
0.0310717
0.0183995
0.0248122
0.00908997
0.0156685
0.00210878
0.199679
0.00226623
0.198938
0.00426475
0.197751
0.00603052
0.196154
0.00771228
0.194163
0.00937463
0.191778
0.0110348
0.188998
0.0127094
0.185819
0.0144181
0.182232
0.0161787
0.178227
0.0180059
0.17379
0.0199128
0.168905
0.0219103
0.163554
0.0240073
0.157717
0.0262095
0.151373
0.0285181
0.144499
0.0309274
0.137075
0.0334222
0.129082
0.0359739
0.120505
0.0385354
0.111341
0.0410357
0.101599
0.043373
0.0913168
0.045408
0.0805642
0.0469556
0.0694609
0.0477756
0.0581767
0.0475593
0.0469
0.0459195
0.0356678
0.0423039
0.0243559
0.036124
0.0128193
0.0272051
0.0149281
0.199644
0.00262251
0.198894
0.00501404
0.197726
0.00719867
0.196159
0.00927998
0.194206
0.0113269
0.191873
0.0133686
0.189156
0.015426
0.186053
0.017521
0.182558
0.0196737
0.178662
0.0219015
0.174356
0.0242193
0.169627
0.0266396
0.164461
0.0291725
0.158846
0.031825
0.152765
0.0345987
0.146204
0.0374888
0.139146
0.0404803
0.131575
0.0435446
0.123477
0.0466335
0.114839
0.0496733
0.105656
0.0525567
0.0959298
0.055134
0.0856803
0.0572051
0.0749452
0.0585106
0.0637771
0.0587274
0.0522256
0.057471
0.0402599
0.0542697
0.0277241
0.0486598
0.0143719
0.0405573
0.0293
0.199629
0.0029934
0.198879
0.00576413
0.197734
0.00834351
0.196204
0.0108104
0.1943
0.0132308
0.192027
0.015642
0.189383
0.0180696
0.186366
0.0205377
0.182971
0.0230687
0.179191
0.0256817
0.175017
0.0283932
0.170439
0.0312172
0.165447
0.0341645
0.16003
0.0372427
0.154174
0.0404541
0.147869
0.0437945
0.141099
0.0472497
0.133851
0.0507924
0.126108
0.0543766
0.117851
0.0579309
0.109057
0.0613507
0.0997018
0.0644889
0.0897603
0.0671466
0.0792054
0.0690655
0.0680076
0.0699253
0.0561282
0.0693503
0.0434833
0.0669146
0.0299396
0.0622035
0.0153902
0.0551067
0.0446902
0.199626
0.00336701
0.198884
0.00650612
0.197768
0.00946009
0.196282
0.0122965
0.194435
0.0150774
0.192232
0.0178447
0.189673
0.0206285
0.186756
0.0234553
0.183475
0.0263492
0.179826
0.0293314
0.175799
0.0324198
0.171387
0.0356293
0.16658
0.0389719
0.161366
0.0424558
0.155736
0.0460843
0.149677
0.0498541
0.143173
0.0537529
0.13621
0.0577561
0.128764
0.0618221
0.120809
0.0658863
0.112306
0.0698532
0.103208
0.0735872
0.0934519
0.0769028
0.0829614
0.0795561
0.0716475
0.0812392
0.0594124
0.0815854
0.0461468
0.0801802
0.0317604
0.0765899
0.0162585
0.0706086
0.0609487
0.199631
0.00373599
0.198905
0.0072322
0.197822
0.0105428
0.196387
0.0137318
0.194606
0.0168583
0.192484
0.0199668
0.190021
0.0230913
0.187216
0.0262607
0.184064
0.029501
0.180561
0.0328348
0.176699
0.0362817
0.17247
0.0398579
0.167866
0.0435764
0.162875
0.0474468
0.157485
0.0514736
0.151684
0.0556555
0.145454
0.0599831
0.138773
0.0644365
0.131615
0.0689809
0.123939
0.0735618
0.115694
0.078098
0.106809
0.0824725
0.0971895
0.0865221
0.0867191
0.0900264
0.0752607
0.0926976
0.0626696
0.0941765
0.0488143
0.0940355
0.033628
0.0917762
0.0171916
0.0870451
0.0781403
0.199641
0.00409539
0.198937
0.00793588
0.197894
0.011586
0.196516
0.01511
0.194808
0.0185655
0.192776
0.021999
0.19042
0.0254473
0.187739
0.0289418
0.18473
0.0325101
0.181388
0.0361766
0.177708
0.0399622
0.173681
0.0438845
0.169299
0.0479583
0.164551
0.0521944
0.159425
0.0565997
0.153905
0.0611759
0.14797
0.0659179
0.141595
0.070812
0.134743
0.0758328
0.127365
0.0809393
0.119395
0.0860687
0.110739
0.0911285
0.101275
0.0959857
0.0908488
0.100453
0.0792754
0.104271
0.0663583
0.107094
0.051923
0.108471
0.035888
0.107811
0.018373
0.10456
0.0965133
0.199654
0.00444165
0.198978
0.00861185
0.19798
0.0125841
0.196665
0.016425
0.195038
0.0201919
0.193104
0.0239328
0.190865
0.0276868
0.188319
0.0314874
0.185465
0.0353641
0.182299
0.0393426
0.178816
0.0434453
0.175009
0.0476916
0.17087
0.0520977
0.166388
0.0566767
0.161549
0.0614382
0.156337
0.0663878
0.150729
0.071526
0.144694
0.0768471
0.13819
0.0823371
0.131158
0.0879712
0.123517
0.0937092
0.115157
0.0994887
0.105928
0.105215
0.095636
0.110744
0.084043
0.115864
0.0708799
0.120257
0.0558869
0.123464
0.0389029
0.124795
0.020023
0.12344
0.116536
0.19967
0.00477208
0.199026
0.00925573
0.198078
0.0135323
0.196831
0.0176713
0.195292
0.021731
0.193465
0.0257604
0.191351
0.0298007
0.188951
0.0338874
0.186263
0.0380513
0.183286
0.0423197
0.180015
0.0467165
0.176444
0.0512625
0.172566
0.0559758
0.168371
0.060872
0.163845
0.065964
0.158971
0.0712616
0.153725
0.0767719
0.148074
0.0824983
0.141971
0.0884399
0.135352
0.0945901
0.128127
0.100935
0.12017
0.107446
0.111308
0.114076
0.101311
0.120742
0.0898762
0.127299
0.076635
0.133498
0.0611777
0.138921
0.0431494
0.142823
0.022477
0.144112
0.139013
0.199688
0.00508456
0.199079
0.00986392
0.198186
0.0144261
0.197013
0.0188439
0.195567
0.0231768
0.193853
0.0274749
0.191872
0.0317812
0.189627
0.0361326
0.187117
0.0405615
0.18434
0.0450964
0.181294
0.0497624
0.177975
0.0545821
0.174375
0.0595753
0.170487
0.0647601
0.166299
0.0701526
0.161793
0.0757675
0.156946
0.0816185
0.151726
0.0877185
0.146086
0.0940801
0.13996
0.100716
0.133255
0.107639
0.125839
0.114862
0.117527
0.122389
0.108056
0.130213
0.0970642
0.138291
0.0840577
0.146504
0.0683994
0.154579
0.0493535
0.161869
0.0263418
0.167124
0.165355
0.199707
0.00537741
0.199138
0.0104334
0.198302
0.0152617
0.197207
0.0199383
0.19586
0.0245241
0.194265
0.0290704
0.192425
0.0336213
0.190342
0.0382152
0.188018
0.0428857
0.185452
0.0476623
0.182643
0.0525715
0.179588
0.057637
0.176283
0.0628805
0.17272
0.0683222
0.168892
0.0739814
0.164782
0.0798773
0.16037
0.0860298
0.155628
0.0924607
0.150513
0.0991954
0.144964
0.106265
0.138895
0.113709
0.13218
0.121576
0.124637
0.129932
0.115996
0.138853
0.105857
0.14843
0.0936152
0.158746
0.0783551
0.169839
0.0587137
0.181511
0.0328804
0.192958
0.198235
0.199728
0.00564932
0.1992
0.0109619
0.198425
0.0160361
0.197413
0.0209509
0.196168
0.0257687
0.194697
0.0305417
0.193003
0.0353151
0.19109
0.0401285
0.188959
0.0450163
0.186612
0.0500091
0.18405
0.055134
0.181271
0.060416
0.178273
0.0658782
0.175053
0.0715425
0.171603
0.0774309
0.167915
0.0835662
0.163971
0.0899735
0.159749
0.096682
0.155217
0.103728
0.150326
0.111156
0.145006
0.119029
0.139154
0.127429
0.132616
0.13647
0.125158
0.146312
0.116404
0.157183
0.105734
0.169416
0.0920483
0.183526
0.0732555
0.200304
0.0450941
0.221119
0.243329
0.19975
0.00589926
0.199265
0.0114472
0.198554
0.0167465
0.197627
0.0218785
0.196489
0.0269068
0.195146
0.0318846
0.193603
0.0368579
0.191864
0.0418671
0.189933
0.0469474
0.187812
0.0521297
0.185504
0.0574421
0.18301
0.0629101
0.180331
0.0685576
0.177465
0.0744081
0.174411
0.0804851
0.171163
0.086814
0.167713
0.0934234
0.164048
0.100347
0.160147
0.107629
0.155981
0.115322
0.151506
0.123504
0.146658
0.132276
0.141343
0.141784
0.135415
0.15224
0.128633
0.163964
0.120577
0.177473
0.11041
0.193692
0.096139
0.214575
0.0712516
0.246006
0.314581
0.00349415
-0.00349415
0.00202975
0.0014644
-0.00273774
0.00476749
-0.00982021
0.00708247
-0.0185353
0.00871507
-0.0284107
0.00987537
-0.039099
0.0106884
-0.0503258
0.0112268
-0.0618611
0.0115353
-0.0735036
0.0116425
-0.0850703
0.0115667
-0.0963897
0.0113194
-0.107296
0.0109068
-0.117628
0.0103315
-0.127221
0.00959295
-0.13591
0.00868886
-0.143525
0.00761551
-0.149894
0.00636873
-0.15484
0.00494577
-0.158187
0.0033469
-0.159738
0.00155108
-0.159228
-0.000509905
-0.156359
-0.00286834
-0.150779
-0.00558079
-0.142183
-0.00859538
-0.130257
-0.0119264
-0.114569
-0.0156877
-0.094298
-0.0202712
-0.0684989
-0.0257992
-0.0276633
-0.00560977
0.00211562
-0.012865
0.0087196
-0.0214287
0.0133312
-0.0312006
0.0168543
-0.0419717
0.0194862
-0.053504
0.0214076
-0.0655681
0.0227525
-0.0779569
0.0236156
-0.090484
0.0240624
-0.102979
0.0241373
-0.115281
0.0238693
-0.127238
0.0232762
-0.138699
0.0223671
-0.149511
0.021144
-0.159523
0.0196046
-0.168577
0.0177428
-0.176512
0.0155509
-0.183165
0.0130212
-0.188368
0.0101492
-0.191953
0.00693211
-0.193758
0.00335599
-0.193643
-0.000624755
-0.191467
-0.00504421
-0.187113
-0.00993553
-0.180454
-0.0152538
-0.171426
-0.0209543
-0.160056
-0.0270584
-0.146581
-0.0337458
-0.131495
-0.0408857
-0.0472398
-0.0108133
0.012929
-0.0215402
0.0194465
-0.0325294
0.0243204
-0.0439579
0.0282828
-0.0558221
0.0313504
-0.0680436
0.0336292
-0.0805087
0.0352176
-0.0930922
0.0361991
-0.105668
0.0366382
-0.118112
0.0365812
-0.130301
0.0360588
-0.142114
0.0350887
-0.153424
0.0336778
-0.164105
0.0318248
-0.174023
0.0295225
-0.18304
0.0267595
-0.191012
0.023523
-0.197792
0.0198013
-0.203229
0.0155865
-0.207174
0.0108767
-0.20949
0.00567211
-0.210054
-6.0432e-05
-0.208819
-0.00627966
-0.205683
-0.0130717
-0.200608
-0.0203284
-0.193624
-0.0279382
-0.184886
-0.0357963
-0.174711
-0.0439214
-0.163129
-0.0524671
-0.0609106
-0.0132406
0.0261696
-0.0259678
0.0321737
-0.0383995
0.0367521
-0.0507695
0.0406528
-0.0631693
0.0437502
-0.0756199
0.0460797
-0.0880965
0.0476942
-0.100547
0.04865
-0.112905
0.0489954
-0.125089
0.0487658
-0.137014
0.0479831
-0.148582
0.0466568
-0.159689
0.0447855
-0.170224
0.0423596
-0.180065
0.039363
-0.189082
0.0357766
-0.197139
0.0315804
-0.204095
0.0267572
-0.209805
0.0212966
-0.214128
0.0151991
-0.216933
0.00847698
-0.218139
0.00114628
-0.217676
-0.00674269
-0.215537
-0.0152108
-0.211717
-0.0241484
-0.206292
-0.0333635
-0.199453
-0.0426348
-0.191474
-0.0519007
-0.182469
-0.0614725
-0.0707056
-0.0140945
0.0402641
-0.0276363
0.0457155
-0.0406719
0.0497878
-0.0533815
0.0533623
-0.0658803
0.0562491
-0.0782409
0.0584403
-0.0904946
0.0599479
-0.102641
0.0607965
-0.114655
0.0610094
-0.126491
0.060602
-0.138087
0.0595793
-0.149367
0.0579358
-0.160238
0.0556571
-0.1706
0.052721
-0.180338
0.0491011
-0.18933
0.0447685
-0.197445
0.0396957
-0.204548
0.0338601
-0.2105
0.0272491
-0.215167
0.0198662
-0.21843
0.0117399
-0.220204
0.00292017
-0.220455
-0.00649157
-0.219196
-0.0164697
-0.216452
-0.0268926
-0.212325
-0.037491
-0.207008
-0.0479515
-0.200754
-0.0581544
-0.193832
-0.068395
-0.0778177
-0.0139713
0.0542354
-0.0274582
0.0592023
-0.0404023
0.0627319
-0.0529245
0.0658845
-0.0651324
0.068457
-0.0771172
0.0704251
-0.0889385
0.0717692
-0.100626
0.072484
-0.112182
0.0725649
-0.123582
0.0720024
-0.134783
0.07078
-0.14572
0.0688736
-0.156315
0.0662519
-0.166473
0.0628789
-0.176087
0.0587152
-0.18504
0.0537211
-0.193204
0.0478601
-0.200448
0.0411035
-0.206635
0.0334363
-0.211634
0.0248654
-0.215329
0.0154347
-0.217645
0.0052365
-0.218552
-0.00558498
-0.218084
-0.0169373
-0.216288
-0.028688
-0.21328
-0.0405
-0.209244
-0.0519866
-0.20444
-0.0629589
-0.199232
-0.0736027
-0.0829556
-0.0131732
0.0674086
-0.0259644
0.0719935
-0.0382598
0.0750272
-0.0501418
0.0777665
-0.0617048
0.0800201
-0.0730424
0.0817627
-0.084225
0.0829518
-0.0952961
0.0835551
-0.106271
0.0835402
-0.117141
0.0828717
-0.12787
0.0815095
-0.138405
0.0794088
-0.148674
0.0765204
-0.158588
0.0727926
-0.168045
0.0681722
-0.176931
0.0626076
-0.185123
0.0560524
-0.192491
0.0484713
-0.198902
0.0398467
-0.204226
0.0301899
-0.20835
0.0195591
-0.211196
0.0080822
-0.21273
-0.00405073
-0.212999
-0.0166688
-0.212068
-0.0296189
-0.210056
-0.0425117
-0.207144
-0.0548989
-0.203599
-0.0665042
-0.19983
-0.0773716
-0.0865378
-0.011866
0.0792747
-0.023473
0.0836005
-0.0346724
0.0862267
-0.0455289
0.088623
-0.0561288
0.09062
-0.0665635
0.0921974
-0.076904
0.0932922
-0.0871968
0.0938479
-0.0974619
0.0938054
-0.107694
0.0931035
-0.117863
0.091679
-0.127921
0.0894665
-0.137799
0.0863989
-0.147415
0.0824084
-0.156671
0.0774282
-0.165458
0.0713943
-0.173655
0.0642499
-0.181136
0.0559522
-0.18777
0.0464806
-0.193429
0.0358486
-0.197994
0.0241245
-0.201371
0.0114594
-0.203512
-0.0019107
-0.204476
-0.0157046
-0.204353
-0.0297412
-0.203258
-0.0436069
-0.201361
-0.056796
-0.198934
-0.0689307
-0.196402
-0.0799043
-0.0888191
-0.0101554
0.0894301
-0.0201892
0.0936342
-0.0299239
0.0959614
-0.0394246
0.0981237
-0.0487779
0.0999732
-0.0580734
0.101493
-0.0673775
0.102596
-0.0767324
0.103203
-0.0861543
0.103227
-0.0956355
0.102585
-0.105147
0.10119
-0.114641
0.0989602
-0.124052
0.0958103
-0.133302
0.0916583
-0.142298
0.0864245
-0.150938
0.0800335
-0.159105
0.0724178
-0.166679
0.0635259
-0.173531
0.0533324
-0.179532
0.0418493
-0.184554
0.0291471
-0.188481
0.0153864
-0.191222
0.000829834
-0.192854
-0.0140721
-0.193516
-0.02908
-0.193297
-0.0438259
-0.192352
-0.0577404
-0.190947
-0.0703359
-0.189508
-0.0813432
-0.0899564
-0.00811498
0.097545
-0.0162544
0.101774
-0.0242099
0.103917
-0.032067
0.105981
-0.0399223
0.107829
-0.0478664
0.109437
-0.0559569
0.110687
-0.0642251
0.111471
-0.0726766
0.111679
-0.0812952
0.111203
-0.0900475
0.109943
-0.0988835
0.107796
-0.10774
0.104666
-0.11654
0.100459
-0.125199
0.0950832
-0.133621
0.0884552
-0.1417
0.0804974
-0.149323
0.0711486
-0.156365
0.0603743
-0.162694
0.0481786
-0.168168
0.034621
-0.172638
0.0198567
-0.176002
0.00419351
-0.178332
-0.011742
-0.179788
-0.0276245
-0.180447
-0.0431669
-0.18044
-0.0577468
-0.180006
-0.0707705
-0.179569
-0.0817798
-0.09004
-0.00580193
0.103347
-0.0117737
0.107745
-0.017669
0.109812
-0.023626
0.111938
-0.0297622
0.113965
-0.0361714
0.115846
-0.0428963
0.117412
-0.0499495
0.118524
-0.0573183
0.119048
-0.0649724
0.118857
-0.0728692
0.11784
-0.0809545
0.115882
-0.0891631
0.112875
-0.097421
0.108717
-0.105648
0.103311
-0.11376
0.0965672
-0.121664
0.0884006
-0.129254
0.0787386
-0.136413
0.0675336
-0.143007
0.0547733
-0.148883
0.0404967
-0.15388
0.0248532
-0.157918
0.00823213
-0.161009
-0.00865149
-0.163292
-0.0253414
-0.16487
-0.0415889
-0.16584
-0.056777
-0.166381
-0.0702288
-0.166905
-0.0812561
-0.0891149
-0.00327613
0.106623
-0.00683674
0.111306
-0.0104001
0.113376
-0.014219
0.115757
-0.018445
0.118191
-0.0231708
0.120572
-0.0284116
0.122652
-0.0341511
0.124264
-0.0403493
0.125246
-0.0469545
0.125463
-0.0539134
0.124798
-0.0611644
0.123133
-0.068639
0.12035
-0.0762631
0.116341
-0.0839613
0.111009
-0.0916608
0.104267
-0.0992808
0.0960206
-0.106728
0.0861862
-0.113895
0.0746999
-0.120653
0.0615315
-0.126862
0.0467057
-0.132378
0.0303695
-0.137098
0.012952
-0.140944
-0.00480592
-0.144072
-0.0222133
-0.146632
-0.0390287
-0.148669
-0.0547399
-0.150262
-0.0686356
-0.151761
-0.0797569
-0.0871885
-0.000666502
0.10729
-0.00152196
0.112161
-0.00248854
0.114342
-0.00391609
0.117184
-0.00607572
0.12035
-0.00901185
0.123508
-0.0126932
0.126334
-0.0170585
0.128629
-0.0220298
0.130217
-0.0275254
0.130958
-0.0334825
0.130755
-0.0398317
0.129482
-0.0464996
0.127018
-0.0534093
0.12325
-0.0604874
0.118087
-0.0676767
0.111456
-0.0749105
0.103254
-0.0821077
0.0933833
-0.089167
0.0817592
-0.0959688
0.0683333
-0.102399
0.053136
-0.108344
0.0363145
-0.113685
0.0182924
-0.118219
-0.000270996
-0.122143
-0.0182898
-0.125733
-0.0354385
-0.128959
-0.0515139
-0.131754
-0.0658411
-0.134317
-0.0771935
-0.0842236
0.00199393
0.105296
0.00404226
0.110113
0.00606295
0.112322
0.00720713
0.11604
0.007201
0.120356
0.0061167
0.124592
0.0040577
0.128393
0.00112815
0.131559
-0.00258239
0.133927
-0.00695218
0.135328
-0.0118758
0.135679
-0.0172764
0.134883
-0.0230829
0.132824
-0.0292118
0.129379
-0.0355843
0.124459
-0.0421702
0.118042
-0.0489206
0.110005
-0.0557717
0.100234
-0.0626342
0.0886217
-0.0693829
0.075082
-0.0759169
0.0596701
-0.0821354
0.0425331
-0.0878992
0.0240561
-0.0929669
0.00479677
-0.09759
-0.0136668
-0.102182
-0.0308465
-0.106683
-0.047013
-0.110877
-0.0616472
-0.114684
-0.0733864
-0.0801428
0.00430271
0.100993
0.00974367
0.104672
0.0153662
0.106699
0.019191
0.112215
0.0212901
0.118257
0.0219846
0.123898
0.0214882
0.128889
0.0199737
0.133073
0.0175812
0.13632
0.0144215
0.138488
0.0106146
0.139486
0.00625278
0.139244
0.00139563
0.137681
-0.00392368
0.134699
-0.0095593
0.130095
-0.0154702
0.123953
-0.0216287
0.116163
-0.0280064
0.106612
-0.0345448
0.0951602
-0.0411033
0.0816405
-0.0476232
0.0661899
-0.0539847
0.0488945
-0.0599557
0.0300271
-0.0654393
0.0102804
-0.0707212
-0.00838481
-0.0761291
-0.0254386
-0.0818358
-0.0413063
-0.087584
-0.0558989
-0.0929027
-0.0680676
-0.0748234
0.207424
0.00613461
0.206967
0.011904
0.2063
0.0174142
0.20543
0.0227487
0.204364
0.0279722
0.20311
0.0331386
0.201673
0.0382947
0.200059
0.0434811
0.198273
0.0487337
0.196319
0.0540836
0.194202
0.0595592
0.191926
0.0651862
0.189495
0.0709891
0.186911
0.0769917
0.184178
0.0832184
0.181296
0.0896956
0.178266
0.0964533
0.175086
0.103527
0.171752
0.110963
0.168257
0.118818
0.164591
0.127169
0.160745
0.136123
0.156705
0.145824
0.152465
0.15648
0.148038
0.168392
0.143501
0.182009
0.139188
0.198005
0.136639
0.217124
0.145787
0.236859
0.24711
0.213257
0.212468
0.00634956
0.212051
0.012321
0.211442
0.0180229
0.21065
0.0235405
0.209683
0.0289392
0.208548
0.0342737
0.207252
0.0395907
0.205802
0.0449315
0.204204
0.0503315
0.202465
0.0558223
0.200593
0.0614318
0.198593
0.0671857
0.196475
0.073108
0.194244
0.0792224
0.191909
0.0855528
0.18948
0.092125
0.186965
0.098968
0.184376
0.106116
0.181728
0.113611
0.179039
0.121507
0.176337
0.12987
0.17367
0.13879
0.171113
0.148381
0.168808
0.158785
0.167027
0.170173
0.166338
0.182699
0.16799
0.196352
0.174286
0.210828
0.185994
0.225151
0.238417
0.194688
0.217635
0.0065418
0.217263
0.0126937
0.216719
0.0185662
0.216014
0.0242456
0.215155
0.029798
0.214151
0.035278
0.213009
0.0407327
0.211738
0.0462029
0.210345
0.051724
0.20884
0.057327
0.207233
0.0630392
0.205533
0.0688855
0.203752
0.0748892
0.201902
0.0810723
0.199997
0.0874574
0.198055
0.0940679
0.196093
0.10093
0.194137
0.108072
0.192218
0.11553
0.19038
0.123345
0.188683
0.131568
0.187217
0.140256
0.186122
0.149476
0.185613
0.159293
0.186035
0.169751
0.187897
0.180837
0.191826
0.192423
0.198295
0.204359
0.206787
0.216659
0.226983
0.218221
0.222929
0.00670916
0.222605
0.0130179
0.222133
0.0190381
0.221523
0.0248563
0.220782
0.0305389
0.219919
0.0361405
0.218944
0.0417077
0.217866
0.047281
0.216695
0.0528951
0.215442
0.05858
0.214119
0.0643622
0.21274
0.0702651
0.211319
0.0763101
0.209873
0.0825176
0.208424
0.088907
0.206994
0.0954982
0.205611
0.102312
0.204313
0.109371
0.203145
0.116699
0.202167
0.124323
0.201462
0.132272
0.201144
0.140574
0.201369
0.149251
0.202352
0.15831
0.204373
0.16773
0.207764
0.177447
0.212855
0.187332
0.22006
0.197154
0.230059
0.206659
0.213747
0.243295
0.228353
0.00684958
0.228081
0.0132898
0.227686
0.0194326
0.227178
0.025365
0.226564
0.0311528
0.225854
0.0368504
0.225058
0.0425037
0.224187
0.0481523
0.223252
0.0538299
0.222266
0.0595655
0.221245
0.0653837
0.220204
0.0713063
0.219161
0.0773524
0.218139
0.0835394
0.217163
0.0898831
0.216263
0.0963988
0.215474
0.103101
0.214842
0.110003
0.214421
0.117119
0.214285
0.12446
0.214523
0.132034
0.215254
0.139843
0.216627
0.147877
0.21883
0.156107
0.222087
0.164473
0.226655
0.172878
0.232829
0.181158
0.240962
0.189022
0.251422
0.196199
0.201663
0.263506
0.233909
0.00696114
0.233693
0.0135055
0.233381
0.0197446
0.232981
0.0257648
0.232503
0.0316315
0.231955
0.0373981
0.231349
0.0431097
0.230696
0.0488048
0.230011
0.0545157
0.229306
0.0602696
0.228601
0.0660896
0.227912
0.0719948
0.227263
0.0780019
0.226677
0.0841246
0.226186
0.0903747
0.225823
0.0967619
0.225629
0.103294
0.225656
0.109976
0.225963
0.116811
0.226626
0.123797
0.227737
0.130924
0.229406
0.138174
0.231767
0.145515
0.234979
0.152895
0.23922
0.160233
0.244685
0.167413
0.251571
0.174273
0.260014
0.180578
0.270081
0.186132
0.190454
0.28129
0.2396
0.00704209
0.239444
0.0136616
0.23922
0.0199691
0.238935
0.0260496
0.238599
0.0319675
0.238222
0.0377752
0.237815
0.0435164
0.237392
0.0492283
0.236966
0.0549415
0.236554
0.0606814
0.236175
0.0664687
0.23585
0.0723202
0.235602
0.0782492
0.235461
0.084266
0.235458
0.0903778
0.235631
0.096589
0.236024
0.102901
0.23669
0.109311
0.23769
0.115811
0.239098
0.122389
0.240999
0.129023
0.243493
0.135681
0.246693
0.142316
0.250722
0.148865
0.255712
0.155243
0.261788
0.161336
0.269051
0.167011
0.277536
0.172094
0.28724
0.176428
0.179765
0.297929
0.24543
0.00709089
0.245337
0.0137553
0.245204
0.0201018
0.24504
0.0262138
0.244853
0.0321543
0.244654
0.0379742
0.244454
0.0437158
0.244268
0.0494144
0.244111
0.0550989
0.244
0.0607925
0.243955
0.0665135
0.243999
0.072276
0.244158
0.0780901
0.244462
0.0839625
0.244944
0.0898959
0.245643
0.0958896
0.246605
0.101939
0.24788
0.108035
0.24953
0.114162
0.251619
0.120299
0.254226
0.126416
0.257433
0.132474
0.26133
0.138419
0.266009
0.144187
0.271557
0.149695
0.278047
0.154847
0.285525
0.159532
0.293993
0.163626
0.303414
0.167007
0.169549
0.31363
0.251402
0.00710619
0.251373
0.0137839
0.251336
0.0201391
0.251297
0.0262529
0.251265
0.0321866
0.251249
0.0379894
0.251263
0.0437017
0.251321
0.049357
0.251438
0.054982
0.251632
0.0605978
0.251926
0.0662202
0.252341
0.0718604
0.252906
0.0775256
0.25365
0.0832187
0.254607
0.0889387
0.255816
0.0946805
0.257321
0.100434
0.25917
0.106186
0.261417
0.111915
0.264122
0.117594
0.267349
0.123189
0.271165
0.128658
0.275637
0.133947
0.280828
0.138995
0.286794
0.143729
0.293571
0.148069
0.301175
0.151928
0.309583
0.155218
0.318737
0.157853
0.159773
0.328513
0.257518
0.00708692
0.257557
0.0137454
0.257618
0.020078
0.257707
0.0261633
0.257834
0.0320603
0.258007
0.0378164
0.258239
0.0434698
0.258544
0.049052
0.258938
0.0545876
0.259441
0.0600952
0.260072
0.0655884
0.260857
0.0710756
0.261822
0.0765611
0.262996
0.0820446
0.264413
0.0875219
0.266109
0.0929842
0.268125
0.0984181
0.270506
0.103805
0.273297
0.109123
0.276551
0.11434
0.280318
0.119423
0.284648
0.124327
0.289591
0.129005
0.295186
0.1334
0.301464
0.137451
0.308438
0.141095
0.3161
0.144266
0.324416
0.146902
0.33332
0.148948
0.150376
0.342718
0.263782
0.00703228
0.263889
0.0136382
0.264051
0.0199164
0.264272
0.0259423
0.26456
0.0317726
0.264924
0.0374524
0.265376
0.0430177
0.26593
0.0484978
0.266603
0.053915
0.267412
0.0592859
0.268379
0.0646214
0.269527
0.0699277
0.270881
0.0752065
0.272471
0.0804549
0.274327
0.0856658
0.276484
0.0908279
0.278976
0.0959254
0.281844
0.100938
0.285126
0.10584
0.288863
0.110603
0.293095
0.115191
0.297858
0.119564
0.303183
0.123679
0.309094
0.127489
0.315602
0.130943
0.322705
0.133993
0.330381
0.13659
0.33859
0.138693
0.347271
0.140267
0.141303
0.356344
0.270198
0.0069417
0.270375
0.0134613
0.270638
0.0196529
0.270992
0.0255885
0.271442
0.0313221
0.271998
0.0368963
0.272671
0.0423449
0.273474
0.0476948
0.274423
0.0529664
0.275535
0.0581737
0.276831
0.0633258
0.278332
0.0684266
0.280063
0.0734755
0.28205
0.0784678
0.284321
0.0833943
0.286907
0.0882421
0.289839
0.0929938
0.293148
0.0976286
0.296867
0.102121
0.301027
0.106443
0.305656
0.110562
0.310779
0.114442
0.316414
0.118045
0.322569
0.121333
0.329245
0.124268
0.336427
0.12681
0.344088
0.128929
0.352186
0.130595
0.360664
0.131789
0.132512
0.369455
0.276768
0.00681495
0.277015
0.0132142
0.277381
0.019287
0.277868
0.0251015
0.278481
0.0307087
0.279229
0.0361486
0.280121
0.0414529
0.28117
0.046646
0.28239
0.0517461
0.283798
0.0567655
0.285413
0.0617111
0.287254
0.066585
0.289345
0.071385
0.291708
0.0761049
0.294368
0.0807342
0.297351
0.0852591
0.300683
0.0896621
0.304389
0.0939224
0.308494
0.0980161
0.31302
0.101917
0.317987
0.105595
0.323407
0.109021
0.329289
0.112163
0.335631
0.114991
0.342426
0.117473
0.349651
0.119585
0.357278
0.121302
0.365263
0.12261
0.373556
0.123496
0.123969
0.382099
0.283496
0.00665204
0.283813
0.0128971
0.284281
0.0188189
0.2849
0.0244818
0.285676
0.0299335
0.286613
0.0352115
0.287721
0.0403449
0.289011
0.0453561
0.290496
0.0502611
0.292191
0.0550704
0.294113
0.0597892
0.296279
0.0644183
0.29871
0.0689542
0.301425
0.0733897
0.304446
0.0777137
0.307792
0.0819124
0.311486
0.0859687
0.315545
0.0898629
0.319988
0.0935731
0.324829
0.0970756
0.330079
0.100345
0.335743
0.103357
0.341821
0.106086
0.348305
0.108507
0.35518
0.110599
0.362422
0.112343
0.369999
0.113725
0.377872
0.114737
0.385994
0.115374
0.115647
0.394316
0.290385
0.00645325
0.290772
0.0125104
0.291341
0.0182497
0.292092
0.023731
0.293026
0.0289991
0.294149
0.0340885
0.295468
0.0390259
0.296993
0.0438317
0.298734
0.04852
0.300705
0.0530996
0.302919
0.0575743
0.305394
0.061944
0.308144
0.0662041
0.311186
0.0703471
0.314538
0.0743621
0.318215
0.0782355
0.322233
0.0819512
0.326604
0.0854914
0.331341
0.0888365
0.33645
0.0919661
0.341936
0.0948592
0.347798
0.0974953
0.354029
0.0998545
0.360617
0.101919
0.367542
0.103673
0.374779
0.105106
0.382297
0.106208
0.390058
0.106976
0.398021
0.107411
0.107525
0.406142
0.29744
0.00621914
0.297895
0.0120553
0.298564
0.0175811
0.299443
0.0228518
0.300533
0.0279089
0.301837
0.0327843
0.303361
0.0375023
0.305112
0.042081
0.307098
0.0465331
0.309332
0.0508659
0.311824
0.0550821
0.314588
0.0591806
0.317635
0.0631568
0.320979
0.0670029
0.324633
0.0707084
0.328608
0.0742607
0.332914
0.0776453
0.337559
0.0808463
0.342549
0.0838467
0.347885
0.0866295
0.353567
0.0891775
0.359588
0.0914745
0.365936
0.0935057
0.372597
0.0952582
0.379549
0.0967218
0.386765
0.0978892
0.394216
0.098757
0.401866
0.0993255
0.409679
0.0995983
0.0995881
0.417616
0.304664
0.00595045
0.305186
0.0115334
0.305951
0.0168154
0.306956
0.0218474
0.308197
0.0266675
0.309677
0.0313049
0.311397
0.0357815
0.313365
0.0401136
0.315586
0.0443122
0.318068
0.0483833
0.320821
0.052329
0.323854
0.0561477
0.327176
0.0598346
0.330797
0.0633823
0.334724
0.066781
0.338966
0.0700194
0.343527
0.0730845
0.34841
0.0759628
0.353617
0.0786399
0.359144
0.081102
0.364987
0.0833354
0.371133
0.0853279
0.37757
0.0870686
0.38428
0.0885489
0.391239
0.0897624
0.398422
0.0907059
0.4058
0.0913789
0.413342
0.0917843
0.421012
0.0919276
0.0918218
0.428779
0.312061
0.00564816
0.312648
0.0109465
0.313507
0.0159555
0.314633
0.0207219
0.31602
0.0252803
0.317668
0.0296571
0.319577
0.0338721
0.321751
0.0379398
0.324194
0.0418696
0.32691
0.0456667
0.329907
0.0493324
0.33319
0.0528651
0.336764
0.0562599
0.340636
0.0595101
0.344811
0.0626069
0.34929
0.0655404
0.354075
0.0682993
0.359165
0.0708724
0.364557
0.0732479
0.370244
0.0754148
0.376217
0.0773627
0.382462
0.0790825
0.388964
0.0805669
0.395703
0.0818104
0.402655
0.0828099
0.409796
0.0835646
0.417099
0.0840765
0.424533
0.0843501
0.432068
0.0843921
0.084215
0.439675
0.319634
0.00531335
0.320284
0.0102967
0.321235
0.0150048
0.322477
0.0194799
0.324004
0.0237532
0.325813
0.0278485
0.327901
0.0317834
0.33027
0.0355706
0.332922
0.0392183
0.335857
0.042731
0.33908
0.0461095
0.342593
0.0493519
0.346399
0.052454
0.3505
0.0554097
0.354895
0.0582113
0.359585
0.0608502
0.364567
0.0633173
0.369837
0.065603
0.375387
0.0676982
0.381207
0.0695944
0.387286
0.0712839
0.393608
0.0727604
0.400155
0.0740193
0.406908
0.0750575
0.413844
0.0758744
0.420937
0.0764711
0.428163
0.0768511
0.435493
0.0770198
0.442901
0.0769844
0.076757
0.450359
0.327389
0.00494725
0.3281
0.00958651
0.329137
0.0139669
0.330491
0.0181263
0.332152
0.0220926
0.334113
0.0258869
0.336372
0.0295248
0.338925
0.0330173
0.341772
0.0363716
0.344912
0.0395913
0.348344
0.042677
0.352069
0.0456269
0.356086
0.0484373
0.360393
0.0511028
0.364987
0.053617
0.369864
0.0559727
0.375019
0.0581623
0.380444
0.0601784
0.386128
0.0620139
0.39206
0.0636625
0.398225
0.0651188
0.404607
0.0663787
0.411187
0.0674397
0.417943
0.0683007
0.424855
0.0689627
0.431898
0.0694281
0.439048
0.0697013
0.446279
0.0697883
0.453567
0.0696963
0.0694368
0.460888
0.33533
0.0045511
0.336098
0.00881836
0.337219
0.0128456
0.33868
0.0166662
0.340467
0.0203051
0.342573
0.0237806
0.344992
0.0271061
0.347718
0.0302913
0.350747
0.0333423
0.354077
0.036262
0.357703
0.0390509
0.361622
0.0417074
0.365831
0.0442283
0.370325
0.0466091
0.375098
0.0488443
0.380142
0.0509283
0.38545
0.0528549
0.39101
0.0546185
0.39681
0.0562138
0.402836
0.0576362
0.409073
0.0588823
0.415501
0.0599498
0.422103
0.0608376
0.428858
0.0615462
0.435743
0.0620775
0.442736
0.0624349
0.449815
0.0626232
0.456954
0.0626485
0.464133
0.062518
0.0622421
0.471327
0.343461
0.00412611
0.344284
0.00799468
0.345486
0.0116445
0.347047
0.0151049
0.348955
0.0183973
0.351198
0.0215375
0.353767
0.0245369
0.356655
0.0274035
0.359854
0.0301427
0.36336