/*--------------------------------*- C++ -*----------------------------------*\
  =========                 |
  \\      /  F ield         | OpenFOAM: The Open Source CFD Toolbox
   \\    /   O peration     | Website:  https://openfoam.org
    \\  /    A nd           | Version:  dev
     \\/     M anipulation  |
\*---------------------------------------------------------------------------*/
FoamFile
{
    version     2.0;
    format      ascii;
    class       volVectorField;
    location    "1";
    object      U;
}
// * * * * * * * * * * * * * * * * * * * * * * * * * * * * * * * * * * * * * //

dimensions      [0 1 -1 0 0 0 0];

internalField   nonuniform List<vector> 
2790
(
(9.94351 0 0.0208051)
(9.87364 0 0.0301665)
(9.7703 0 0.0368652)
(9.64062 0 0.043724)
(9.49041 0 0.0508394)
(9.32068 0 0.05816)
(9.13069 0 0.065813)
(8.91965 0 0.0739568)
(8.68682 0 0.0827257)
(8.43135 0 0.09224)
(8.1522 0 0.102619)
(7.84812 0 0.113984)
(7.51777 0 0.126457)
(7.15976 0 0.140151)
(6.77268 0 0.155168)
(6.35523 0 0.17158)
(5.90637 0 0.18941)
(5.42546 0 0.208606)
(4.91253 0 0.229008)
(4.36856 0 0.250298)
(3.79585 0 0.271956)
(3.19835 0 0.293207)
(2.58208 0 0.312995)
(1.95522 0 0.330108)
(1.32678 0 0.344448)
(0.726302 0 0.362861)
(0.0506302 0 0.296288)
(-0.471468 0 -0.111803)
(-0.446676 0 -0.278476)
(-0.228006 0 -0.406636)
(9.99802 0 0.0415744)
(9.97936 0 0.064131)
(9.9308 0 0.0817527)
(9.85527 0 0.100078)
(9.75717 0 0.119389)
(9.63758 0 0.139526)
(9.49594 0 0.160735)
(9.33152 0 0.18336)
(9.14362 0 0.207698)
(8.93138 0 0.234012)
(8.69375 0 0.262554)
(8.42951 0 0.293568)
(8.13727 0 0.327276)
(7.81559 0 0.363859)
(7.46297 0 0.403422)
(7.07799 0 0.44595)
(6.65939 0 0.49125)
(6.20629 0 0.538865)
(5.7184 0 0.587982)
(5.19634 0 0.637322)
(4.64198 0 0.685021)
(4.05893 0 0.72853)
(3.45303 0 0.764548)
(2.83324 0 0.789065)
(2.21247 0 0.797666)
(1.6185 0 0.786029)
(1.04819 0 0.716771)
(0.611104 0 0.513528)
(0.155161 0 0.174207)
(-0.0149076 0 -0.451158)
(9.99512 0 0.0446812)
(9.9735 0 0.0782067)
(9.92695 0 0.107721)
(9.85619 0 0.138154)
(9.76431 0 0.170203)
(9.65248 0 0.203842)
(9.52049 0 0.239403)
(9.3678 0 0.277374)
(9.19384 0 0.318218)
(8.99794 0 0.362366)
(8.77925 0 0.410239)
(8.5367 0 0.462252)
(8.2691 0 0.518792)
(7.97514 0 0.580188)
(7.6534 0 0.646656)
(7.30247 0 0.718232)
(6.92099 0 0.794666)
(6.5078 0 0.875293)
(6.06211 0 0.958861)
(5.5838 0 1.04334)
(5.07371 0 1.12569)
(4.53418 0 1.20164)
(3.96962 0 1.26543)
(3.38744 0 1.30946)
(2.79887 0 1.32354)
(2.22351 0 1.29249)
(1.66982 0 1.17862)
(1.1661 0 0.928377)
(0.674003 0 0.528298)
(0.331586 0 -0.178427)
(9.99355 0 0.0515517)
(9.96975 0 0.0972887)
(9.92304 0 0.139649)
(9.85355 0 0.182231)
(9.76348 0 0.22633)
(9.65396 0 0.272342)
(9.52501 0 0.320779)
(9.37628 0 0.372285)
(9.2074 0 0.427497)
(9.01791 0 0.487022)
(8.80722 0 0.551455)
(8.57459 0 0.621383)
(8.31915 0 0.697365)
(8.03997 0 0.779897)
(7.736 0 0.869352)
(7.40616 0 0.965889)
(7.04938 0 1.06933)
(6.6646 0 1.17899)
(6.25097 0 1.29344)
(5.80794 0 1.41024)
(5.33556 0 1.5256)
(4.83481 0 1.634)
(4.30808 0 1.72773)
(3.75979 0 1.7963)
(3.19653 0 1.82538)
(2.62855 0 1.79499)
(2.0614 0 1.6719)
(1.50354 0 1.41926)
(0.926626 0 1.02582)
(0.484371 0 0.454826)
(9.99284 0 0.0598464)
(9.96789 0 0.116198)
(9.92109 0 0.169902)
(9.85276 0 0.223639)
(9.76453 0 0.279051)
(9.6573 0 0.336893)
(9.53118 0 0.397814)
(9.38591 0 0.462541)
(9.22119 0 0.531812)
(9.03669 0 0.606338)
(8.83194 0 0.686815)
(8.60639 0 0.773929)
(8.35941 0 0.868339)
(8.09031 0 0.970643)
(7.79836 0 1.08131)
(7.4828 0 1.2006)
(7.14284 0 1.32842)
(6.77767 0 1.46411)
(6.3865 0 1.60626)
(5.96861 0 1.75227)
(5.52348 0 1.89802)
(5.05091 0 2.03733)
(4.5513 0 2.16142)
(4.02594 0 2.25824)
(3.47694 0 2.31169)
(2.90772 0 2.301)
(2.31942 0 2.19817)
(1.71384 0 1.97374)
(1.0575 0 1.61568)
(0.514856 0 1.08655)
(9.99255 0 0.0687518)
(9.96718 0 0.135095)
(9.92072 0 0.19963)
(9.85383 0 0.2644)
(9.7678 0 0.331064)
(9.66335 0 0.400591)
(9.54055 0 0.473748)
(9.39924 0 0.551344)
(9.23916 0 0.634203)
(9.06003 0 0.723136)
(8.86145 0 0.818934)
(8.64296 0 0.922373)
(8.40405 0 1.0342)
(8.14417 0 1.15508)
(7.86272 0 1.28558)
(7.55911 0 1.42603)
(7.23267 0 1.57642)
(6.88271 0 1.7362)
(6.50845 0 1.90402)
(6.10896 0 2.07739)
(5.68319 0 2.2522)
(5.22996 0 2.42221)
(4.74795 0 2.57841)
(4.23582 0 2.70841)
(3.69217 0 2.79591)
(3.11583 0 2.82064)
(2.50421 0 2.75778)
(1.85751 0 2.58131)
(1.13862 0 2.27895)
(0.530037 0 1.8039)
(9.99249 0 0.077868)
(9.96721 0 0.153862)
(9.92153 0 0.228719)
(9.85638 0 0.30412)
(9.77292 0 0.381648)
(9.6717 0 0.46242)
(9.55279 0 0.54734)
(9.41606 0 0.637309)
(9.2613 0 0.733239)
(9.08827 0 0.836025)
(8.89662 0 0.946543)
(8.68594 0 1.06564)
(8.45576 0 1.19414)
(8.20557 0 1.33278)
(7.93484 0 1.48219)
(7.64297 0 1.64278)
(7.32931 0 1.81464)
(6.99309 0 1.99736)
(6.63338 0 2.1898)
(6.24894 0 2.38971)
(5.83818 0 2.59334)
(5.39896 0 2.79484)
(4.92852 0 2.98569)
(4.42344 0 3.15404)
(3.87961 0 3.2842)
(3.29269 0 3.35661)
(2.65739 0 3.348)
(1.97459 0 3.23307)
(1.20415 0 2.99704)
(0.543605 0 2.57761)
(9.99259 0 0.0869605)
(9.96776 0 0.172308)
(9.92323 0 0.257006)
(9.86015 0 0.342585)
(9.77961 0 0.430559)
(9.68207 0 0.522143)
(9.56757 0 0.618364)
(9.43603 0 0.72021)
(9.28729 0 0.828671)
(9.12112 0 0.944723)
(8.93723 0 1.06932)
(8.73523 0 1.20338)
(8.51469 0 1.3478)
(8.27512 0 1.50339)
(8.01596 0 1.67088)
(7.73657 0 1.85077)
(7.4362 0 2.0433)
(7.11391 0 2.24827)
(6.76849 0 2.4648)
(6.39832 0 2.69109)
(6.00118 0 2.92397)
(5.57401 0 3.1584)
(5.11278 0 3.38682)
(4.61226 0 3.59849)
(4.06615 0 3.77883)
(3.46756 0 3.90907)
(2.80884 0 3.96627)
(2.09182 0 3.9236)
(1.27286 0 3.76092)
(0.561853 0 3.39705)
(9.99279 0 0.0958789)
(9.96868 0 0.190263)
(9.92563 0 0.284344)
(9.86493 0 0.379627)
(9.78766 0 0.47759)
(9.69421 0 0.579514)
(9.58463 0 0.686523)
(9.45885 0 0.799692)
(9.31676 0 0.920084)
(9.15819 0 1.04875)
(8.98285 0 1.18671)
(8.79042 0 1.33498)
(8.58049 0 1.49452)
(8.35256 0 1.66624)
(8.10606 0 1.85097)
(7.84028 0 2.04936)
(7.55434 0 2.26184)
(7.24711 0 2.48847)
(6.91707 0 2.72879)
(6.56216 0 2.98156)
(6.17951 0 3.24442)
(5.76523 0 3.51342)
(5.31404 0 3.78238)
(4.81908 0 4.04214)
(4.27189 0 4.27967)
(3.66303 0 4.47717)
(2.98186 0 4.61147)
(2.22997 0 4.65251)
(1.35899 0 4.57222)
(0.589995 0 4.26701)
(9.99306 0 0.104519)
(9.96987 0 0.207582)
(9.92859 0 0.31059)
(9.87057 0 0.415085)
(9.7969 0 0.52254)
(9.70793 0 0.634283)
(9.60372 0 0.751522)
(9.48423 0 0.875408)
(9.34939 0 1.00708)
(9.19907 0 1.14764)
(9.03305 0 1.29821)
(8.85103 0 1.45986)
(8.65263 0 1.63365)
(8.43738 0 1.82059)
(8.2047 0 2.02165)
(7.95384 0 2.23765)
(7.6838 0 2.46926)
(7.3933 0 2.71689)
(7.08055 0 2.98058)
(6.74309 0 3.25981)
(6.37752 0 3.5532)
(5.97916 0 3.85818)
(5.54162 0 4.17031)
(5.05644 0 4.48255)
(4.51283 0 4.78403)
(3.89822 0 5.05858)
(3.19753 0 5.28297)
(2.40944 0 5.42333)
(1.47794 0 5.44112)
(0.634815 0 5.2046)
(9.99338 0 0.112804)
(9.97128 0 0.224148)
(9.93201 0 0.335611)
(9.87694 0 0.448806)
(9.80716 0 0.56522)
(9.72304 0 0.686225)
(9.6246 0 0.813094)
(9.51188 0 0.947049)
(9.38484 0 1.08929)
(9.24339 0 1.24099)
(9.08736 0 1.40333)
(8.91653 0 1.57747)
(8.73055 0 1.76455)
(8.52899 0 1.96571)
(8.31129 0 2.18205)
(8.0767 0 2.4146)
(7.82419 0 2.66433)
(7.55238 0 2.93204)
(7.25932 0 3.21835)
(6.94233 0 3.52355)
(6.59763 0 3.84746)
(6.21996 0 4.1891)
(5.80205 0 4.54619)
(5.33396 0 4.91443)
(4.80249 0 5.28609)
(4.19112 0 5.64802)
(3.47814 0 5.97858)
(2.6549 0 6.24117)
(1.6513 0 6.38512)
(0.70755 0 6.24085)
(9.99374 0 0.120676)
(9.97286 0 0.23986)
(9.9358 0 0.359288)
(9.88392 0 0.480649)
(9.81832 0 0.605463)
(9.73935 0 0.735137)
(9.64707 0 0.871001)
(9.54153 0 1.01434)
(9.42276 0 1.16639)
(9.29073 0 1.32842)
(9.14533 0 1.50165)
(8.98638 0 1.68731)
(8.81362 0 1.88664)
(8.6267 0 2.1009)
(8.42509 0 2.33133)
(8.20811 0 2.57919)
(7.97478 0 2.84574)
(7.72373 0 3.13223)
(7.45304 0 3.43989)
(7.15998 0 3.76992)
(6.84071 0 4.12339)
(6.48976 0 4.50114)
(6.09942 0 4.90344)
(5.65875 0 5.32943)
(5.15243 0 5.77592)
(4.55962 0 6.23514)
(3.84981 0 6.69087)
(3.00057 0 7.10872)
(1.91467 0 7.4286)
(0.829895 0 7.42983)
(9.99414 0 0.128088)
(9.97458 0 0.254638)
(9.9399 0 0.381517)
(9.89143 0 0.510493)
(9.83025 0 0.643119)
(9.7567 0 0.78084)
(9.67089 0 0.92503)
(9.57291 0 1.07702)
(9.46284 0 1.23811)
(9.3407 0 1.40959)
(9.20646 0 1.59276)
(9.06002 0 1.78891)
(8.90121 0 1.99936)
(8.72975 0 2.22548)
(8.54525 0 2.46865)
(8.34714 0 2.73036)
(8.13455 0 3.01215)
(7.9063 0 3.31569)
(7.66065 0 3.64283)
(7.39513 0 3.99566)
(7.10617 0 4.37653)
(6.78867 0 4.78817)
(6.43519 0 5.23364)
(6.03486 0 5.71614)
(5.57144 0 6.23849)
(5.02097 0 6.8016)
(4.34377 0 7.40122)
(3.49719 0 8.01756)
(2.33335 0 8.5992)
(1.04915 0 8.87346)
(9.99456 0 0.135003)
(9.97642 0 0.268414)
(9.94426 0 0.402209)
(9.89937 0 0.538228)
(9.8428 0 0.678063)
(9.77492 0 0.823188)
(9.69586 0 0.975013)
(9.60575 0 1.13491)
(9.50472 0 1.30421)
(9.39288 0 1.48426)
(9.27026 0 1.67638)
(9.13685 0 1.88193)
(8.99258 0 2.1023)
(8.83732 0 2.33893)
(8.67081 0 2.59337)
(8.49265 0 2.86725)
(8.30222 0 3.16238)
(8.0986 0 3.48082)
(7.88046 0 3.82494)
(7.64583 0 4.19762)
(7.3919 0 4.60237)
(7.11451 0 5.04367)
(6.80759 0 5.52724)
(6.46193 0 6.06054)
(6.06311 0 6.65326)
(5.58815 0 7.31791)
(4.99386 0 8.0704)
(4.21958 0 8.92756)
(3.03786 0 9.90425)
(1.48089 0 10.7942)
(9.995 0 0.141392)
(9.97834 0 0.281132)
(9.94881 0 0.421285)
(9.90766 0 0.563754)
(9.85588 0 0.710161)
(9.79386 0 0.862007)
(9.72176 0 1.02073)
(9.63978 0 1.18773)
(9.54809 0 1.36437)
(9.44686 0 1.55202)
(9.33621 0 1.75204)
(9.21625 0 1.96582)
(9.08703 0 2.1948)
(8.94854 0 2.4405)
(8.80071 0 2.70454)
(8.64339 0 2.98871)
(8.47624 0 3.29501)
(8.29875 0 3.62577)
(8.11014 0 3.98377)
(7.9092 0 4.37246)
(7.69423 0 4.79622)
(7.4627 0 5.26083)
(7.21095 0 5.77409)
(6.93343 0 6.34688)
(6.62143 0 6.9949)
(6.26098 0 7.74195)
(5.82263 0 8.62724)
(5.26402 0 9.7231)
(4.31878 0 11.214)
(2.45357 0 13.7605)
(0.109008 0 -0.190637)
(0.206785 0 -0.000961083)
(0.00594498 0 0.123548)
(-0.29768 0 0.190628)
(-0.701255 0 0.227829)
(-1.17173 0 0.247704)
(-1.68983 0 0.256398)
(-2.24071 0 0.257262)
(-2.81216 0 0.252308)
(-3.39363 0 0.242842)
(-3.97565 0 0.229755)
(-4.54946 0 0.21368)
(-5.1067 0 0.195073)
(-5.63919 0 0.174268)
(-6.1388 0 0.151508)
(-6.5973 0 0.126964)
(-7.00633 0 0.100744)
(-7.35738 0 0.0729011)
(-7.64169 0 0.0434368)
(-7.8501 0 0.0121832)
(-7.97279 0 -0.021483)
(-8.00034 0 -0.059195)
(-7.91846 0 -0.103546)
(-7.70784 0 -0.154253)
(-7.35843 0 -0.211521)
(-6.85428 0 -0.276641)
(-6.15356 0 -0.352694)
(-5.17693 0 -0.444637)
(-3.88961 0 -0.546522)
(-2.6161 0 -0.612783)
(-0.206687 0 -0.104419)
(-0.434917 0 0.210839)
(-0.845065 0 0.405116)
(-1.30564 0 0.53241)
(-1.82423 0 0.616602)
(-2.38596 0 0.670715)
(-2.9792 0 0.702587)
(-3.59322 0 0.717256)
(-4.2184 0 0.718118)
(-4.84593 0 0.707552)
(-5.46765 0 0.687256)
(-6.07581 0 0.658454)
(-6.66283 0 0.622024)
(-7.22121 0 0.578593)
(-7.74334 0 0.528612)
(-8.22146 0 0.472412)
(-8.64763 0 0.410252)
(-9.0137 0 0.34237)
(-9.31137 0 0.269018)
(-9.53216 0 0.190366)
(-9.66755 0 0.106024)
(-9.70911 0 0.0144384)
(-9.65105 0 -0.0855756)
(-9.48727 0 -0.192891)
(-9.21415 0 -0.306077)
(-8.82644 0 -0.425113)
(-8.30573 0 -0.552255)
(-7.61912 0 -0.69264)
(-6.80522 0 -0.839511)
(-6.2049 0 -0.948615)
(-0.384604 0 0.382092)
(-0.798937 0 0.672608)
(-1.35274 0 0.874739)
(-1.91081 0 1.02413)
(-2.49471 0 1.12724)
(-3.09889 0 1.19261)
(-3.7181 0 1.22727)
(-4.34618 0 1.23677)
(-4.97686 0 1.22533)
(-5.60392 0 1.19613)
(-6.22122 0 1.15155)
(-6.82269 0 1.09336)
(-7.40216 0 1.02286)
(-7.95334 0 0.941038)
(-8.46968 0 0.848652)
(-8.94441 0 0.746344)
(-9.37044 0 0.634714)
(-9.74047 0 0.514417)
(-10.047 0 0.386253)
(-10.2825 0 0.251153)
(-10.4395 0 0.10992)
(-10.5105 0 -0.0372119)
(-10.4922 0 -0.191035)
(-10.3818 0 -0.35241)
(-10.1774 0 -0.518623)
(-9.87878 0 -0.6869)
(-9.47617 0 -0.855715)
(-8.94961 0 -1.0276)
(-8.34147 0 -1.20436)
(-7.92764 0 -1.36109)
(-0.45627 0 0.95996)
(-0.976589 0 1.23201)
(-1.61902 0 1.42299)
(-2.23416 0 1.56948)
(-2.85303 0 1.67077)
(-3.47471 0 1.73243)
(-4.09875 0 1.76019)
(-4.72297 0 1.75923)
(-5.34426 0 1.73385)
(-5.95893 0 1.68743)
(-6.56281 0 1.62259)
(-7.15133 0 1.54127)
(-7.71947 0 1.44488)
(-8.26183 0 1.33445)
(-8.77253 0 1.21072)
(-9.24531 0 1.07424)
(-9.67349 0 0.925486)
(-10.05 0 0.764918)
(-10.3677 0 0.593138)
(-10.6193 0 0.410939)
(-10.798 0 0.219317)
(-10.8977 0 0.0191106)
(-10.9135 0 -0.189179)
(-10.8471 0 -0.403363)
(-10.6982 0 -0.620264)
(-10.4687 0 -0.835156)
(-10.1533 0 -1.04343)
(-9.74028 0 -1.24546)
(-9.27067 0 -1.44843)
(-8.96354 0 -1.6331)
(-0.474472 0 1.62009)
(-1.03937 0 1.85757)
(-1.7227 0 2.01758)
(-2.35998 0 2.14203)
(-2.98893 0 2.22599)
(-3.60981 0 2.27261)
(-4.22516 0 2.28573)
(-4.83553 0 2.26934)
(-5.44015 0 2.22698)
(-6.03719 0 2.16151)
(-6.62394 0 2.07516)
(-7.19688 0 1.96957)
(-7.7518 0 1.84593)
(-8.28386 0 1.70508)
(-8.78765 0 1.54769)
(-9.25722 0 1.37432)
(-9.68621 0 1.18562)
(-10.0679 0 0.982347)
(-10.3952 0 0.765577)
(-10.6614 0 0.536776)
(-10.8601 0 0.297866)
(-10.9857 0 0.0511444)
(-11.033 0 -0.200857)
(-11.0061 0 -0.457427)
(-10.9056 0 -0.714606)
(-10.7342 0 -0.965566)
(-10.4902 0 -1.20325)
(-10.1679 0 -1.42639)
(-9.80578 0 -1.64321)
(-9.57432 0 -1.83312)
(-0.461759 0 2.30852)
(-1.02886 0 2.50586)
(-1.714 0 2.62619)
(-2.3433 0 2.71903)
(-2.96015 0 2.77741)
(-3.5638 0 2.80288)
(-4.15844 0 2.7975)
(-4.74609 0 2.76384)
(-5.32744 0 2.7043)
(-5.90189 0 2.62089)
(-6.4677 0 2.51519)
(-7.02211 0 2.38836)
(-7.56152 0 2.24123)
(-8.08153 0 2.07441)
(-8.57711 0 1.88838)
(-9.0426 0 1.68357)
(-9.47185 0 1.46055)
(-9.85828 0 1.22005)
(-10.195 0 0.963192)
(-10.4753 0 0.691626)
(-10.693 0 0.407866)
(-10.8428 0 0.115478)
(-10.9206 0 -0.181348)
(-10.929 0 -0.47963)
(-10.8716 0 -0.775306)
(-10.7509 0 -1.05984)
(-10.5677 0 -1.32439)
(-10.3218 0 -1.56618)
(-10.0476 0 -1.79199)
(-9.87475 0 -1.97942)
(-0.429332 0 2.97896)
(-0.967996 0 3.13867)
(-1.62387 0 3.21897)
(-2.21995 0 3.27811)
(-2.80499 0 3.30866)
(-3.37612 0 3.31142)
(-3.93837 0 3.28696)
(-4.49441 0 3.23643)
(-5.04566 0 3.16094)
(-5.59219 0 3.06145)
(-6.13283 0 2.93869)
(-6.66533 0 2.79315)
(-7.18648 0 2.62513)
(-7.69221 0 2.43487)
(-8.17775 0 2.22257)
(-8.63767 0 1.98851)
(-9.066 0 1.73317)
(-9.45628 0 1.4574)
(-9.80178 0 1.16253)
(-10.0958 0 0.850683)
(-10.3321 0 0.525151)
(-10.5058 0 0.190832)
(-10.6135 0 -0.146488)
(-10.655 0 -0.482441)
(-10.6372 0 -0.812508)
(-10.5622 0 -1.12671)
(-10.4329 0 -1.41467)
(-10.2532 0 -1.67184)
(-10.0536 0 -1.90244)
(-9.92889 0 -2.08409)
(-0.383123 0 3.59838)
(-0.869735 0 3.72699)
(-1.47161 0 3.77145)
(-2.01352 0 3.79959)
(-2.54943 0 3.80444)
(-3.07386 0 3.78654)
(-3.59244 0 3.74521)
(-4.10791 0 3.68028)
(-4.62188 0 3.59161)
(-5.13466 0 3.47903)
(-5.64532 0 3.34237)
(-6.15185 0 3.18141)
(-6.65128 0 2.99591)
(-7.1398 0 2.78569)
(-7.61286 0 2.55068)
(-8.06527 0 2.29098)
(-8.49125 0 2.00697)
(-8.88454 0 1.69953)
(-9.23856 0 1.37015)
(-9.54659 0 1.02132)
(-9.80215 0 0.656951)
(-10 0 0.282976)
(-10.1374 0 -0.0933202)
(-10.21 0 -0.464952)
(-10.2296 0 -0.826801)
(-10.1972 0 -1.16811)
(-10.1169 0 -1.47721)
(-9.99617 0 -1.74744)
(-9.86175 0 -1.98011)
(-9.77853 0 -2.15463)
(-0.326749 0 4.14337)
(-0.742062 0 4.24915)
(-1.26988 0 4.26413)
(-1.73993 0 4.26689)
(-2.21151 0 4.25117)
(-2.67633 0 4.21742)
(-3.14062 0 4.16373)
(-3.60679 0 4.0887)
(-4.07627 0 3.99097)
(-4.54923 0 3.86932)
(-5.02468 0 3.7227)
(-5.50066 0 3.55022)
(-5.9743 0 3.35111)
(-6.44198 0 3.12481)
(-6.89938 0 2.87094)
(-7.34159 0 2.58941)
(-7.76313 0 2.28049)
(-8.15805 0 1.94502)
(-8.51998 0 1.58467)
(-8.84215 0 1.20222)
(-9.11762 0 0.802046)
(-9.34057 0 0.390723)
(-9.50816 0 -0.0231436)
(-9.61065 0 -0.428551)
(-9.6665 0 -0.819499)
(-9.67521 0 -1.18576)
(-9.64125 0 -1.51426)
(-9.5747 0 -1.79598)
(-9.49906 0 -2.02907)
(-9.45336 0 -2.19573)
(-0.262725 0 4.596)
(-0.590313 0 4.6881)
(-1.02737 0 4.68099)
(-1.41026 0 4.66583)
(-1.80415 0 4.63689)
(-2.19774 0 4.59426)
(-2.59812 0 4.5346)
(-3.00694 0 4.45526)
(-3.42513 0 4.35372)
(-3.85236 0 4.22783)
(-4.28732 0 4.0758)
(-4.72791 0 3.89615)
(-5.17123 0 3.68767)
(-5.61377 0 3.44946)
(-6.05146 0 3.18092)
(-6.47974 0 2.88181)
(-6.89359 0 2.55226)
(-7.28754 0 2.19307)
(-7.65558 0 1.80595)
(-7.99096 0 1.39376)
(-8.28613 0 0.960964)
(-8.53405 0 0.514391)
(-8.73001 0 0.0645779)
(-8.86646 0 -0.373154)
(-8.95851 0 -0.790785)
(-9.00894 0 -1.1802)
(-9.02094 0 -1.52688)
(-9.00621 0 -1.81937)
(-8.98573 0 -2.05213)
(-8.97568 0 -2.21026)
(-0.193086 0 4.94169)
(-0.418381 0 5.02974)
(-0.750405 0 5.00822)
(-1.0323 0 4.98406)
(-1.33671 0 4.95108)
(-1.64892 0 4.90843)
(-1.9771 0 4.85077)
(-2.32166 0 4.77416)
(-2.68262 0 4.67497)
(-3.05882 0 4.55029)
(-3.4484 0 4.39781)
(-3.84889 0 4.21562)
(-4.25728 0 4.00219)
(-4.67006 0 3.75642)
(-5.08335 0 3.4776)
(-5.49303 0 3.16542)
(-5.89466 0 2.81992)
(-6.28337 0 2.44176)
(-6.65366 0 2.03251)
(-6.99894 0 1.59485)
(-7.31115 0 1.13301)
(-7.58179 0 0.654086)
(-7.80493 0 0.17118)
(-7.98213 0 -0.29732)
(-8.11087 0 -0.739943)
(-8.20521 0 -1.15081)
(-8.26524 0 -1.51482)
(-8.30291 0 -1.81822)
(-8.33693 0 -2.05093)
(-8.36284 0 -2.19988)
(-0.120013 0 5.16858)
(-0.229756 0 5.26188)
(-0.443971 0 5.23315)
(-0.611407 0 5.21046)
(-0.815895 0 5.18463)
(-1.03813 0 5.15271)
(-1.28758 0 5.10649)
(-1.56253 0 5.04067)
(-1.86169 0 4.95063)
(-2.18262 0 4.83297)
(-2.52267 0 4.68523)
(-2.87895 0 4.50524)
(-3.2482 0 4.29132)
(-3.62679 0 4.04228)
(-4.01095 0 3.75749)
(-4.39702 0 3.43676)
(-4.78119 0 3.08004)
(-5.15923 0 2.68782)
(-5.52625 0 2.26139)
(-5.87609 0 1.80307)
(-6.20084 0 1.31676)
(-6.49149 0 0.809871)
(-6.74275 0 0.297509)
(-6.96052 0 -0.199882)
(-7.12556 0 -0.665975)
(-7.26629 0 -1.09599)
(-7.37848 0 -1.47633)
(-7.47239 0 -1.79163)
(-7.56374 0 -2.02592)
(-7.62868 0 -2.16529)
(-0.0467661 0 5.26868)
(-0.0291844 0 5.37328)
(-0.112584 0 5.34377)
(-0.150644 0 5.33479)
(-0.246043 0 5.33069)
(-0.371604 0 5.32244)
(-0.53805 0 5.29826)
(-0.740091 0 5.2517)
(-0.974632 0 5.17755)
(-1.23743 0 5.07285)
(-1.52485 0 4.93516)
(-1.83366 0 4.76214)
(-2.16028 0 4.55212)
(-2.50088 0 4.30394)
(-2.85164 0 4.01723)
(-3.20936 0 3.6923)
(-3.57107 0 3.32893)
(-3.9332 0 2.9274)
(-4.29142 0 2.48864)
(-4.64005 0 2.01463)
(-4.97146 0 1.50931)
(-5.27656 0 0.980318)
(-5.55151 0 0.443243)
(-5.80686 0 -0.0815702)
(-6.00425 0 -0.568694)
(-6.1919 0 -1.01365)
(-6.36094 0 -1.40834)
(-6.51765 0 -1.73678)
(-6.67321 0 -1.97598)
(-6.78417 0 -2.10607)
(0.0240408 0 5.24003)
(0.174634 0 5.34977)
(0.242736 0 5.32533)
(0.345045 0 5.3467)
(0.36794 0 5.38307)
(0.342376 0 5.41324)
(0.26214 0 5.4233)
(0.136221 0 5.4063)
(-0.0305417 0 5.35687)
(-0.235617 0 5.27034)
(-0.469263 0 5.14667)
(-0.72856 0 4.98421)
(-1.01003 0 4.78132)
(-1.30966 0 4.53727)
(-1.62324 0 4.25319)
(-1.9481 0 3.9286)
(-2.28254 0 3.56326)
(-2.62392 0 3.15719)
(-2.96879 0 2.71079)
(-3.31182 0 2.22566)
(-3.64495 0 1.70675)
(-3.95756 0 1.16166)
(-4.24641 0 0.604733)
(-4.52509 0 0.0558215)
(-4.75361 0 -0.449187)
(-4.98367 0 -0.902411)
(-5.21137 0 -1.30705)
(-5.43758 0 -1.64849)
(-5.66781 0 -1.89736)
(-5.83777 0 -2.02014)
(0.0794168 0 5.10235)
(0.373481 0 5.18301)
(0.622736 0 5.16543)
(0.880885 0 5.24259)
(1.02545 0 5.34073)
(1.09531 0 5.42401)
(1.09778 0 5.47906)
(1.04553 0 5.49957)
(0.94641 0 5.48156)
(0.805138 0 5.42131)
(0.629197 0 5.31818)
(0.423472 0 5.1722)
(0.191799 0 4.98278)
(-0.0625175 0 4.74831)
(-0.340002 0 4.46539)
(-0.62953 0 4.14227)
(-0.932081 0 3.77725)
(-1.24676 0 3.36939)
(-1.57181 0 2.91829)
(-1.90275 0 2.42641)
(-2.23165 0 1.89647)
(-2.54666 0 1.33604)
(-2.83953 0 0.765716)
(-3.11839 0 0.208202)
(-3.39214 0 -0.311729)
(-3.6522 0 -0.765159)
(-3.93255 0 -1.17013)
(-4.22937 0 -1.51981)
(-4.54443 0 -1.78287)
(-4.7955 0 -1.90316)
(9.99547 0 0.147336)
(9.98036 0 0.292968)
(9.95362 0 0.439031)
(9.9164 0 0.587479)
(9.86966 0 0.739961)
(9.8138 0 0.897997)
(9.74904 0 1.06304)
(9.67562 0 1.23652)
(9.59377 0 1.4198)
(9.50375 0 1.61427)
(9.40577 0 1.8213)
(9.30005 0 2.04232)
(9.18677 0 2.27878)
(9.0661 0 2.53224)
(8.93818 0 2.80437)
(8.80312 0 3.09705)
(8.66097 0 3.41237)
(8.51169 0 3.75283)
(8.35518 0 4.12141)
(8.1912 0 4.52187)
(8.01943 0 4.95901)
(7.83948 0 5.43921)
(7.65093 0 5.97115)
(7.45364 0 6.56712)
(7.24828 0 7.24516)
(7.03896 0 8.03321)
(6.83716 0 8.97773)
(6.72522 0 10.1595)
(7.06361 0 11.7015)
(7.14598 0 14.1129)
(9.99596 0 0.152848)
(9.9825 0 0.30393)
(9.95868 0 0.455432)
(9.92558 0 0.609345)
(9.8841 0 0.767339)
(9.83465 0 0.930948)
(9.77751 0 1.10164)
(9.71295 0 1.28083)
(9.64129 0 1.46991)
(9.56286 0 1.67026)
(9.47797 0 1.88326)
(9.38695 0 2.11031)
(9.29015 0 2.35289)
(9.18791 0 2.61255)
(9.08062 0 2.89097)
(8.96866 0 3.19)
(8.85248 0 3.51178)
(8.73257 0 3.85879)
(8.60954 0 4.234)
(8.48418 0 4.64112)
(8.35759 0 5.0848)
(8.23152 0 5.57112)
(8.10882 0 6.10808)
(7.99452 0 6.70648)
(7.8979 0 7.38099)
(7.83791 0 8.15136)
(7.84794 0 9.04248)
(7.97618 0 10.0806)
(8.4664 0 11.2064)
(8.76626 0 12.1527)
(9.99648 0 0.157834)
(9.98473 0 0.313845)
(9.96396 0 0.470252)
(9.93514 0 0.629072)
(9.89911 0 0.791988)
(9.85631 0 0.960533)
(9.80703 0 1.13617)
(9.75162 0 1.32031)
(9.69045 0 1.51434)
(9.62392 0 1.71961)
(9.55245 0 1.9375)
(9.47651 0 2.16937)
(9.39656 0 2.41666)
(9.31317 0 2.68088)
(9.22694 0 2.96367)
(9.13856 0 3.26681)
(9.04885 0 3.59233)
(8.95882 0 3.94254)
(8.86974 0 4.32021)
(8.78328 0 4.72863)
(8.70178 0 5.17182)
(8.62863 0 5.65475)
(8.56887 0 6.18345)
(8.53029 0 6.76516)
(8.52486 0 7.40785)
(8.571 0 8.11842)
(8.69424 0 8.89709)
(8.8976 0 9.73198)
(9.29897 0 10.5717)
(9.74427 0 11.2201)
(9.99701 0 0.162237)
(9.98703 0 0.322594)
(9.96941 0 0.483309)
(9.945 0 0.646408)
(9.91459 0 0.813576)
(9.87861 0 0.986337)
(9.8374 0 1.16614)
(9.79135 0 1.35438)
(9.7409 0 1.55242)
(9.68651 0 1.76157)
(9.62871 0 1.98316)
(9.56807 0 2.21852)
(9.50521 0 2.46901)
(9.44086 0 2.73607)
(9.37585 0 3.0212)
(9.31114 0 3.32607)
(9.24791 0 3.65249)
(9.18757 0 4.0025)
(9.13192 0 4.37843)
(9.08333 0 4.78294)
(9.04492 0 5.2191)
(9.02096 0 5.69033)
(9.0173 0 6.20033)
(9.042 0 6.7526)
(9.10574 0 7.34956)
(9.22198 0 7.9908)
(9.40896 0 8.66978)
(9.669 0 9.3737)
(10.0646 0 10.0941)
(10.6196 0 10.727)
(9.99755 0 0.166006)
(9.98939 0 0.330078)
(9.97498 0 0.494453)
(9.95509 0 0.661157)
(9.93041 0 0.83186)
(9.90138 0 1.00807)
(9.86839 0 1.19121)
(9.83185 0 1.38265)
(9.79225 0 1.5837)
(9.75014 0 1.79562)
(9.70612 0 2.01969)
(9.66087 0 2.25714)
(9.61513 0 2.50926)
(9.5698 0 2.77735)
(9.52587 0 3.06277)
(9.48456 0 3.36696)
(9.44728 0 3.69147)
(9.41578 0 4.03795)
(9.39223 0 4.40821)
(9.37937 0 4.80415)
(9.38067 0 5.22777)
(9.40063 0 5.68101)
(9.44499 0 6.1655)
(9.52102 0 6.68209)
(9.63761 0 7.2302)
(9.80511 0 7.8069)
(10.0377 0 8.40582)
(10.3421 0 9.01535)
(10.7418 0 9.62839)
(11.2907 0 10.1762)
(9.99811 0 0.169091)
(9.99178 0 0.336199)
(9.98065 0 0.503542)
(9.96533 0 0.673129)
(9.94645 0 0.846607)
(9.92446 0 1.02546)
(9.89975 0 1.21107)
(9.87278 0 1.40475)
(9.84409 0 1.60777)
(9.81428 0 1.82132)
(9.78402 0 2.0466)
(9.75408 0 2.28474)
(9.72531 0 2.53689)
(9.69871 0 2.80422)
(9.67544 0 3.08788)
(9.65686 0 3.38908)
(9.64458 0 3.70901)
(9.64053 0 4.04892)
(9.64705 0 4.41004)
(9.66701 0 4.79352)
(9.70391 0 5.20038)
(9.76203 0 5.63129)
(9.84657 0 6.08637)
(9.9637 0 6.56477)
(10.1206 0 7.06422)
(10.3251 0 7.58051)
(10.5865 0 8.10669)
(10.9102 0 8.63054)
(11.2987 0 9.14025)
(11.8075 0 9.59762)
(9.99866 0 0.171448)
(9.9942 0 0.340868)
(9.98635 0 0.510444)
(9.97564 0 0.682151)
(9.9626 0 0.857604)
(9.94765 0 1.03824)
(9.93123 0 1.22541)
(9.91381 0 1.42035)
(9.89598 0 1.62427)
(9.87838 0 1.8383)
(9.86172 0 2.06349)
(9.84684 0 2.3009)
(9.83468 0 2.55152)
(9.82631 0 2.81634)
(9.82299 0 3.0963)
(9.82616 0 3.39231)
(9.83753 0 3.70526)
(9.85908 0 4.03593)
(9.89319 0 4.38501)
(9.94264 0 4.75299)
(10.0107 0 5.14005)
(10.1012 0 5.5459)
(10.2186 0 5.96957)
(10.3678 0 6.40914)
(10.5541 0 6.86134)
(10.783 0 7.32121)
(11.0595 0 7.78171)
(11.387 0 8.23232)
(11.7609 0 8.66251)
(12.2344 0 9.0538)
(9.99922 0 0.173037)
(9.99661 0 0.344005)
(9.99206 0 0.51504)
(9.98594 0 0.688069)
(9.97871 0 0.864663)
(9.97077 0 1.04621)
(9.96257 0 1.23399)
(9.95461 0 1.42919)
(9.94748 0 1.63293)
(9.94186 0 1.84624)
(9.93851 0 2.07008)
(9.93828 0 2.30536)
(9.94218 0 2.55293)
(9.95131 0 2.81357)
(9.96698 0 3.088)
(9.99064 0 3.37687)
(10.024 0 3.6807)
(10.069 0 3.99989)
(10.128 0 4.33465)
(10.2034 0 4.68488)
(10.2981 0 5.05014)
(10.4155 0 5.42944)
(10.5591 0 5.82112)
(10.7325 0 6.22264)
(10.9395 0 6.63036)
(11.1834 0 7.03935)
(11.4669 0 7.44337)
(11.7916 0 7.83444)
(12.1515 0 8.20444)
(12.5948 0 8.54351)
(9.99977 0 0.173822)
(9.99901 0 0.345541)
(9.99772 0 0.517228)
(9.99615 0 0.690751)
(9.99466 0 0.867623)
(9.99364 0 1.04918)
(9.99352 0 1.23662)
(9.99482 0 1.43106)
(9.99815 0 1.63353)
(10.0042 0 1.84496)
(10.0137 0 2.06619)
(10.0276 0 2.298)
(10.0468 0 2.54106)
(10.0725 0 2.79597)
(10.106 0 3.06322)
(10.1487 0 3.3432)
(10.2022 0 3.63613)
(10.2683 0 3.94205)
(10.3492 0 4.26076)
(10.447 0 4.59173)
(10.5642 0 4.93406)
(10.7034 0 5.28631)
(10.8673 0 5.64646)
(11.0586 0 6.01175)
(11.2796 0 6.37859)
(11.5323 0 6.74252)
(11.8177 0 7.09834)
(12.1363 0 7.43998)
(12.4821 0 7.76118)
(12.898 0 8.05596)
(10.0003 0 0.173773)
(10.0014 0 0.345418)
(10.0033 0 0.516924)
(10.0062 0 0.690088)
(10.0103 0 0.866358)
(10.0161 0 1.047)
(10.0238 0 1.23313)
(10.0341 0 1.4258)
(10.0475 0 1.62593)
(10.0648 0 1.83434)
(10.0866 0 2.05176)
(10.1139 0 2.27881)
(10.1476 0 2.51601)
(10.1888 0 2.76378)
(10.2388 0 3.02241)
(10.2988 0 3.29203)
(10.3705 0 3.5726)
(10.4554 0 3.86387)
(10.5552 0 4.16533)
(10.672 0 4.47615)
(10.8077 0 4.79511)
(10.9643 0 5.12056)
(11.1436 0 5.45033)
(11.3476 0 5.7817)
(11.5776 0 6.11136)
(11.8345 0 6.43545)
(12.1184 0 6.74968)
(12.429 0 7.0494)
(12.7606 0 7.32986)
(13.1523 0 7.58731)
(10.0008 0 0.172868)
(10.0037 0 0.34359)
(10.0087 0 0.514062)
(10.016 0 0.685999)
(10.0256 0 0.860775)
(10.0378 0 1.03958)
(10.0532 0 1.22345)
(10.0722 0 1.41334)
(10.0953 0 1.61008)
(10.1232 0 1.81437)
(10.1567 0 2.02682)
(10.1965 0 2.24792)
(10.2437 0 2.47805)
(10.2992 0 2.71743)
(10.3642 0 2.96618)
(10.4399 0 3.22422)
(10.5277 0 3.4913)
(10.6288 0 3.76695)
(10.745 0 4.05042)
(10.8775 0 4.34068)
(11.0281 0 4.63638)
(11.1981 0 4.93576)
(11.3889 0 5.23669)
(11.6015 0 5.53662)
(11.8366 0 5.83262)
(12.0944 0 6.12143)
(12.3746 0 6.39956)
(12.6761 0 6.66348)
(12.9941 0 6.90964)
(13.3644 0 7.13564)
(10.0014 0 0.17109)
(10.0059 0 0.340024)
(10.0139 0 0.508597)
(10.0254 0 0.67843)
(10.0403 0 0.850816)
(10.0588 0 1.02686)
(10.0815 0 1.20752)
(10.1087 0 1.39366)
(10.1409 0 1.58599)
(10.1789 0 1.78512)
(10.2233 0 1.99154)
(10.2748 0 2.20561)
(10.3344 0 2.42756)
(10.4029 0 2.65747)
(10.4815 0 2.8953)
(10.571 0 3.1408)
(10.6728 0 3.39356)
(10.7879 0 3.65294)
(10.9177 0 3.91806)
(11.0631 0 4.18778)
(11.2254 0 4.46068)
(11.4055 0 4.73505)
(11.6043 0 5.00887)
(11.8223 0 5.27984)
(12.0596 0 5.54544)
(12.3161 0 5.80296)
(12.5909 0 6.04962)
(12.8831 0 6.28272)
(13.188 0 6.49965)
(13.5391 0 6.69878)
(10.0019 0 0.168429)
(10.008 0 0.334703)
(10.019 0 0.500504)
(10.0344 0 0.667355)
(10.0543 0 0.836461)
(10.0789 0 1.00884)
(10.1084 0 1.18537)
(10.1433 0 1.3668)
(10.1842 0 1.55377)
(10.2315 0 1.74677)
(10.286 0 1.94617)
(10.3482 0 2.15223)
(10.4191 0 2.36504)
(10.4993 0 2.58458)
(10.5898 0 2.81065)
(10.6915 0 3.04289)
(10.8053 0 3.28076)
(10.9322 0 3.52353)
(11.0731 0 3.77023)
(11.2288 0 4.01971)
(11.4 0 4.27055)
(11.5875 0 4.52114)
(11.7916 0 4.76965)
(12.0123 0 5.01405)
(12.2497 0 5.2522)
(12.5031 0 5.4819)
(12.7717 0 5.70094)
(13.0543 0 5.90726)
(13.3469 0 6.09891)
(13.6807 0 6.2748)
(10.0023 0 0.164882)
(10.01 0 0.327621)
(10.0237 0 0.48978)
(10.043 0 0.652777)
(10.0677 0 0.817725)
(10.0978 0 0.985556)
(10.1338 0 1.15706)
(10.176 0 1.33289)
(10.2248 0 1.51358)
(10.2808 0 1.69954)
(10.3444 0 1.89105)
(10.4164 0 2.08823)
(10.4973 0 2.2911)
(10.5879 0 2.49951)
(10.6889 0 2.71317)
(10.801 0 2.93164)
(10.9249 0 3.15429)
(11.0615 0 3.38034)
(11.2113 0 3.60882)
(11.3749 0 3.83856)
(11.5528 0 4.06825)
(11.7452 0 4.29639)
(11.9523 0 4.52135)
(12.1739 0 4.7414)
(12.4096 0 4.95476)
(12.6588 0 5.15962)
(12.9205 0 5.35425)
(13.1935 0 5.53708)
(13.4745 0 5.70665)
(13.7924 0 5.86221)
(10.0028 0 0.160453)
(10.012 0 0.318787)
(10.0282 0 0.476442)
(10.0511 0 0.634725)
(10.0802 0 0.794658)
(10.1156 0 0.957084)
(10.1575 0 1.1227)
(10.2064 0 1.29208)
(10.2626 0 1.46566)
(10.3264 0 1.64377)
(10.3983 0 1.82658)
(10.479 0 2.01414)
(10.5688 0 2.20638)
(10.6684 0 2.40307)
(10.7784 0 2.60386)
(10.8993 0 2.80823)
(11.0316 0 3.01553)
(11.176 0 3.22495)
(11.3327 0 3.43555)
(11.5022 0 3.64622)
(11.6846 0 3.85574)
(11.8801 0 4.06278)
(12.0884 0 4.26591)
(12.3092 0 4.46367)
(12.5421 0 4.65456)
(12.7863 0 4.83716)
(13.0407 0 5.01009)
(13.3043 0 5.17214)
(13.5741 0 5.32224)
(13.8774 0 5.45987)
(10.0032 0 0.155153)
(10.0137 0 0.308222)
(10.0324 0 0.460525)
(10.0586 0 0.613256)
(10.0918 0 0.767342)
(10.132 0 0.923539)
(10.1795 0 1.08246)
(10.2345 0 1.24459)
(10.2973 0 1.41029)
(10.3682 0 1.57981)
(10.4475 0 1.75323)
(10.5358 0 1.93055)
(10.6334 0 2.11161)
(10.7407 0 2.29613)
(10.8583 0 2.48372)
(10.9865 0 2.67383)
(11.1256 0 2.86579)
(11.276 0 3.05883)
(11.438 0 3.25203)
(11.6116 0 3.44438)
(11.7969 0 3.63477)
(11.9937 0 3.82203)
(12.2018 0 4.00494)
(12.4207 0 4.18226)
(12.6498 0 4.35277)
(12.8883 0 4.51532)
(13.1353 0 4.66884)
(13.3896 0 4.81241)
(13.6488 0 4.9452)
(13.9386 0 5.06689)
(10.0036 0 0.148996)
(10.0154 0 0.29596)
(10.0363 0 0.442082)
(10.0655 0 0.588446)
(10.1025 0 0.735887)
(10.1472 0 0.885073)
(10.1997 0 1.03653)
(10.2602 0 1.19068)
(10.3289 0 1.34781)
(10.406 0 1.50807)
(10.4919 0 1.67151)
(10.5868 0 1.83805)
(10.6911 0 2.0075)
(10.805 0 2.17954)
(10.9288 0 2.35374)
(11.0629 0 2.52955)
(11.2073 0 2.70633)
(11.3624 0 2.88333)
(11.528 0 3.05971)
(11.7043 0 3.23454)
(11.891 0 3.40684)
(12.0879 0 3.5756)
(12.2947 0 3.73977)
(12.5107 0 3.89834)
(12.7353 0 4.0503)
(12.9678 0 4.19474)
(13.2071 0 4.33081)
(13.4525 0 4.45782)
(13.7015 0 4.57514)
(13.9786 0 4.68257)
(10.0039 0 0.142005)
(10.0169 0 0.282043)
(10.0398 0 0.421182)
(10.0718 0 0.560395)
(10.1123 0 0.700426)
(10.1609 0 0.841862)
(10.2179 0 0.985156)
(10.2833 0 1.13065)
(10.3573 0 1.27856)
(10.44 0 1.429)
(10.5315 0 1.58195)
(10.6321 0 1.73729)
(10.742 0 1.8948)
(10.8613 0 2.05413)
(10.9902 0 2.21487)