/*--------------------------------*- C++ -*----------------------------------*\
  =========                 |
  \\      /  F ield         | OpenFOAM: The Open Source CFD Toolbox
   \\    /   O peration     | Website:  https://openfoam.org
    \\  /    A nd           | Version:  dev
     \\/     M anipulation  |
\*---------------------------------------------------------------------------*/
FoamFile
{
    version     2.0;
    format      ascii;
    class       surfaceVectorField;
    location    "1";
    object      Uf;
}
// * * * * * * * * * * * * * * * * * * * * * * * * * * * * * * * * * * * * * //

dimensions      [0 1 -1 0 0 0 0];

internalField   nonuniform List<vector> 
5457
(
(9.91968 0 0.0255417)
(9.97076 0 0.0393358)
(9.82048 0 0.0335559)
(9.9265 0 0.0497525)
(9.70269 0 0.0403356)
(9.85055 0 0.0605119)
(9.56413 0 0.0473242)
(9.74794 0 0.0728982)
(9.40479 0 0.0545434)
(9.62379 0 0.0858607)
(9.22486 0 0.0620322)
(9.47913 0 0.0993014)
(9.02412 0 0.0699335)
(9.31332 0 0.113462)
(8.80202 0 0.0783937)
(9.12559 0 0.128579)
(8.55773 0 0.0875397)
(8.91522 0 0.144843)
(8.29025 0 0.0974916)
(8.68137 0 0.162428)
(7.99842 0 0.10837)
(8.42297 0 0.181501)
(7.68095 0 0.120295)
(8.13881 0 0.202224)
(7.33645 0 0.133386)
(7.82752 0 0.224746)
(6.96352 0 0.14775)
(7.48768 0 0.249186)
(6.56078 0 0.163472)
(7.11782 0 0.27561)
(6.12704 0 0.180601)
(6.71661 0 0.304006)
(5.66143 0 0.199123)
(6.28288 0 0.334236)
(5.16364 0 0.218929)
(5.81587 0 0.365988)
(4.63414 0 0.23978)
(5.31546 0 0.39871)
(4.07458 0 0.261256)
(4.78245 0 0.431536)
(3.48813 0 0.282709)
(4.21891 0 0.463217)
(2.87987 0 0.303219)
(3.62864 0 0.492068)
(2.25713 0 0.321654)
(3.01755 0 0.51597)
(1.62946 0 0.337364)
(2.39423 0 0.53263)
(1.00685 0 0.353764)
(1.76963 0 0.541115)
(0.390388 0 0.329177)
(1.1724 0 0.548735)
(-0.173739 0 0.0898041)
(0.549409 0 0.514296)
(-0.428706 0 -0.196135)
(0.0698184 0 0.238067)
(-0.393811 0 -0.343322)
(-0.145758 0 -0.0333697)
(-0.121457 0 -0.385714)
(9.9952 0 0.0529875)
(9.99657 0 0.0416865)
(9.95523 0 0.0730471)
(9.97643 0 0.0698025)
(9.89125 0 0.0910251)
(9.92888 0 0.0933734)
(9.80517 0 0.109849)
(9.85573 0 0.118187)
(9.69683 0 0.129578)
(9.76074 0 0.144239)
(9.56617 0 0.150257)
(9.64503 0 0.171413)
(9.41294 0 0.172183)
(9.50822 0 0.200075)
(9.2366 0 0.195674)
(9.34966 0 0.230664)
(9.03636 0 0.221012)
(9.16873 0 0.263564)
(8.81125 0 0.248453)
(8.96466 0 0.299128)
(8.5601 0 0.278246)
(8.7365 0 0.337701)
(8.28161 0 0.310623)
(8.4831 0 0.379622)
(7.97435 0 0.345786)
(8.20319 0 0.425202)
(7.63683 0 0.383877)
(7.89536 0 0.474703)
(7.2676 0 0.42494)
(7.55819 0 0.528292)
(6.86529 0 0.468871)
(7.19023 0 0.585981)
(6.42883 0 0.515342)
(6.79019 0 0.647547)
(5.95763 0 0.563717)
(6.35704 0 0.712423)
(5.45184 0 0.612947)
(5.89026 0 0.779566)
(4.91274 0 0.661457)
(5.39007 0 0.847299)
(4.34311 0 0.707036)
(4.85785 0 0.91315)
(3.74777 0 0.746754)
(4.29655 0 0.973683)
(3.13417 0 0.776953)
(3.71132 0 1.02436)
(2.51334 0 0.793417)
(3.11034 0 1.05945)
(1.903 0 0.791778)
(2.50567 0 1.07157)
(1.34132 0 0.750986)
(1.921 0 1.04871)
(0.87288 0 0.613935)
(1.35901 0 0.941359)
(0.3976 0 0.34184)
(0.888602 0 0.681846)
(0.0447521 0 -0.142212)
(0.414582 0 0.30406)
(0.158339 0 -0.341882)
(9.98784 0 0.0616443)
(9.99434 0 0.0476397)
(9.95084 0 0.0931403)
(9.97163 0 0.0883601)
(9.89045 0 0.123119)
(9.925 0 0.124397)
(9.80932 0 0.15437)
(9.85487 0 0.160875)
(9.70783 0 0.187224)
(9.76389 0 0.198924)
(9.58592 0 0.221835)
(9.65322 0 0.238695)
(9.4434 0 0.258616)
(9.52275 0 0.28063)
(9.27991 0 0.29804)
(9.37204 0 0.325313)
(9.09483 0 0.340556)
(9.20062 0 0.373299)
(8.88737 0 0.386589)
(9.00793 0 0.425109)
(8.65655 0 0.436556)
(8.79324 0 0.481256)
(8.40125 0 0.49086)
(8.55565 0 0.542247)
(8.1202 0 0.549857)
(8.29413 0 0.608561)
(7.81202 0 0.613819)
(8.00755 0 0.680616)
(7.47532 0 0.682872)
(7.6947 0 0.758714)
(7.10867 0 0.756906)
(7.35432 0 0.842958)
(6.71083 0 0.835461)
(6.98518 0 0.93314)
(6.28081 0 0.917576)
(6.5862 0 1.02858)
(5.81815 0 1.00161)
(6.15654 0 1.12794)
(5.32326 0 1.08501)
(5.69587 0 1.22897)
(4.79775 0 1.16412)
(5.20464 0 1.32823)
(4.24508 0 1.23392)
(4.68449 0 1.42078)
(3.67127 0 1.28771)
(4.13885 0 1.49979)
(3.08615 0 1.31658)
(3.57362 0 1.55597)
(2.50534 0 1.30783)
(2.9977 0 1.57636)
(1.95135 0 1.23487)
(2.42603 0 1.54184)
(1.43033 0 1.052)
(1.86561 0 1.41635)
(0.919973 0 0.725947)
(1.33482 0 1.15838)
(0.454498 0 0.170713)
(0.800314 0 0.749196)
(0.407978 0 0.103271)
(9.98397 0 0.0746935)
(9.99319 0 0.0554907)
(9.9469 0 0.118722)
(9.96882 0 0.106952)
(9.88753 0 0.161194)
(9.92206 0 0.154893)
(9.80769 0 0.204544)
(9.85316 0 0.202881)
(9.70813 0 0.249611)
(9.764 0 0.252576)
(9.58889 0 0.29685)
(9.65563 0 0.304498)
(9.4499 0 0.34684)
(9.52809 0 0.359191)
(9.29094 0 0.400221)
(9.38109 0 0.417338)
(9.11161 0 0.457615)
(9.2143 0 0.479625)
(8.91136 0 0.519624)
(9.0273 0 0.546708)
(8.68952 0 0.586837)
(8.81958 0 0.61923)
(8.44527 0 0.659828)
(8.59049 0 0.697828)
(8.17772 0 0.739124)
(8.33928 0 0.783113)
(7.88586 0 0.825159)
(8.06514 0 0.87563)
(7.56864 0 0.918197)
(7.76718 0 0.975803)
(7.22496 0 1.01823)
(7.44448 0 1.08384)
(6.85376 0 1.12482)
(7.09611 0 1.1996)
(6.45409 0 1.2369)
(6.72113 0 1.32242)
(6.02526 0 1.35254)
(6.31873 0 1.45085)
(5.56703 0 1.46861)
(5.88828 0 1.58236)
(5.07996 0 1.58045)
(5.42952 0 1.71295)
(4.56584 0 1.68143)
(4.94286 0 1.83669)
(4.02821 0 1.76243)
(4.42969 0 1.94523)
(3.47305 0 1.81102)
(3.89287 0 2.02708)
(2.90884 0 1.81)
(3.33674 0 2.06672)
(2.345 0 1.73271)
(2.76813 0 2.04373)
(1.78339 0 1.54407)
(2.19041 0 1.92835)
(1.21779 0 1.22019)
(1.60869 0 1.68649)
(0.640967 0 0.73691)
(0.992062 0 1.30082)
(0.499614 0 0.731058)
(9.98219 0 0.0883588)
(9.99269 0 0.0642147)
(9.94472 0 0.143371)
(9.96753 0 0.125744)
(9.88631 0 0.197092)
(9.9209 0 0.184897)
(9.80793 0 0.251676)
(9.8533 0 0.244121)
(9.71031 0 0.308318)
(9.76616 0 0.305175)
(9.59363 0 0.367718)
(9.66033 0 0.368897)
(9.4578 0 0.430564)
(9.53586 0 0.435966)
(9.30266 0 0.497591)
(9.39257 0 0.507151)
(9.1279 0 0.56952)
(9.23018 0 0.583238)
(8.93312 0 0.647057)
(9.04836 0 0.664989)
(8.7178 0 0.730892)
(8.84669 0 0.75315)
(8.48134 0 0.821698)
(8.62467 0 0.848453)
(8.22307 0 0.920103)
(8.38173 0 0.951603)
(7.9423 0 1.02664)
(8.11724 0 1.06324)
(7.63827 0 1.14167)
(7.83054 0 1.18386)
(7.3102 0 1.26527)
(7.52095 0 1.31378)
(6.95729 0 1.39708)
(7.18775 0 1.45294)
(6.57876 0 1.53604)
(6.83019 0 1.60073)
(6.17386 0 1.68014)
(6.44747 0 1.75574)
(5.74197 0 1.82601)
(6.03879 0 1.91543)
(5.28279 0 1.96851)
(5.60334 0 2.07564)
(4.79649 0 2.10012)
(5.14043 0 2.2301)
(4.28401 0 2.21041)
(4.64962 0 2.36984)
(3.74726 0 2.28529)
(4.13088 0 2.48256)
(3.18886 0 2.30628)
(3.58456 0 2.55203)
(2.61128 0 2.24897)
(3.01177 0 2.55784)
(2.01299 0 2.08461)
(2.41181 0 2.47379)
(1.3862 0 1.79257)
(1.78567 0 2.27173)
(0.718593 0 1.34796)
(1.09806 0 1.93926)
(0.522447 0 1.43488)
(9.98146 0 0.10232)
(9.99252 0 0.0732962)
(9.94395 0 0.167748)
(9.9672 0 0.144554)
(9.88671 0 0.232402)
(9.92113 0 0.214302)
(9.81019 0 0.29813)
(9.85511 0 0.28438)
(9.71499 0 0.366243)
(9.77036 0 0.356471)
(9.60133 0 0.437607)
(9.66752 0 0.431629)
(9.46915 0 0.513009)
(9.54667 0 0.510678)
(9.31831 0 0.593268)
(9.40765 0 0.594472)
(9.14856 0 0.679201)
(9.25023 0 0.683883)
(8.95955 0 0.771608)
(9.07415 0 0.779765)
(8.75086 0 0.871272)
(8.87903 0 0.882949)
(8.52197 0 0.978953)
(8.66445 0 0.994248)
(8.27237 0 1.09536)
(8.4299 0 1.11444)
(8.00149 0 1.22111)
(8.17487 0 1.24424)
(7.70872 0 1.35664)
(7.89878 0 1.38422)
(7.39343 0 1.50212)
(7.60104 0 1.53476)
(7.05496 0 1.65726)
(7.28099 0 1.69591)
(6.69257 0 1.82111)
(6.9379 0 1.86716)
(6.30542 0 1.99174)
(6.57091 0 2.04727)
(5.89254 0 2.16584)
(6.17895 0 2.23385)
(5.45283 0 2.33822)
(5.76069 0 2.42295)
(4.98509 0 2.50124)
(5.31446 0 2.60849)
(4.48801 0 2.64418)
(4.83823 0 2.78169)
(3.96027 0 2.75268)
(4.32963 0 2.9304)
(3.40038 0 2.80842)
(3.78589 0 3.03864)
(2.80641 0 2.78884)
(3.20426 0 3.08656)
(2.17417 0 2.66849)
(2.5808 0 3.05019)
(1.49698 0 2.42833)
(1.91605 0 2.90403)
(0.769512 0 2.03859)
(1.17138 0 2.63494)
(0.536821 0 2.18857)
(9.98132 0 0.116319)
(9.99254 0 0.0824445)
(9.94422 0 0.191738)
(9.96749 0 0.163162)
(9.88839 0 0.26687)
(9.92238 0 0.242981)
(9.81408 0 0.343348)
(9.85826 0 0.323475)
(9.72175 0 0.422517)
(9.77627 0 0.406224)
(9.61162 0 0.505388)
(9.67689 0 0.492411)
(9.48367 0 0.592862)
(9.56018 0 0.582996)
(9.3378 0 0.685847)
(9.42604 0 0.678922)
(9.17377 0 0.785246)
(9.2743 0 0.781138)
(8.99128 0 0.891944)
(9.1047 0 0.890581)
(8.78995 0 1.0068)
(8.91692 0 1.00816)
(8.56935 0 1.13066)
(8.71058 0 1.13477)
(8.32898 0 1.26429)
(8.48522 0 1.27126)
(8.06832 0 1.40838)
(8.24035 0 1.4184)
(7.78681 0 1.56344)
(7.9754 0 1.57687)
(7.48383 0 1.72973)
(7.68977 0 1.74712)
(7.15867 0 1.90709)
(7.38276 0 1.92932)
(6.81049 0 2.09473)
(7.0535 0 2.12315)
(6.43821 0 2.29095)
(6.70093 0 2.32759)
(6.04044 0 2.49274)
(6.32363 0 2.54061)
(5.61532 0 2.69529)
(5.91968 0 2.75874)
(5.16041 0 2.89141)
(5.48649 0 2.9765)
(4.6726 0 3.07087)
(5.02065 0 3.18586)
(4.14807 0 3.2199)
(4.51785 0 3.3755)
(3.58237 0 3.32084)
(3.97288 0 3.53029)
(2.97062 0 3.35225)
(3.38012 0 3.6311)
(2.30734 0 3.28985)
(2.73311 0 3.65488)
(1.58802 0 3.11365)
(2.0332 0 3.57568)
(0.812923 0 2.78482)
(1.2385 0 3.37617)
(0.552729 0 2.98477)
(9.98155 0 0.130144)
(9.99269 0 0.0914794)
(9.94525 0 0.215163)
(9.96822 0 0.181371)
(9.89111 0 0.300307)
(9.92443 0 0.270791)
(9.81935 0 0.387097)
(9.86254 0 0.361232)
(9.7303 0 0.476898)
(9.78364 0 0.454204)
(9.6242 0 0.570829)
(9.68814 0 0.550969)
(9.50106 0 0.669895)
(9.5761 0 0.6526)
(9.36079 0 0.775089)
(9.44744 0 0.760126)
(9.2032 0 0.88739)
(9.30203 0 0.874573)
(9.02803 0 1.00776)
(9.13965 0 0.996954)
(8.83493 0 1.13715)
(8.96004 0 1.12826)
(8.6235 0 1.27645)
(8.76283 0 1.26945)
(8.39328 0 1.42653)
(8.54759 0 1.42145)
(8.14373 0 1.58814)
(8.31384 0 1.58514)
(7.87427 0 1.7619)
(8.06101 0 1.76127)
(7.5842 0 1.94819)
(7.78842 0 1.95043)
(7.27269 0 2.14701)
(7.49527 0 2.15294)
(6.93867 0 2.35783)
(7.18051 0 2.36873)
(6.58073 0 2.5793)
(6.84278 0 2.59712)
(6.19695 0 2.80892)
(6.48024 0 2.83659)
(5.78471 0 3.04259)
(6.09034 0 3.08435)
(5.34044 0 3.27398)
(5.66962 0 3.3359)
(4.85947 0 3.49392)
(5.21341 0 3.58436)
(4.33596 0 3.68974)
(4.71567 0 3.81975)
(3.76303 0 3.84473)
(4.16902 0 4.02823)
(3.13348 0 3.93801)
(3.56529 0 4.19149)
(2.44071 0 3.94468)
(2.89535 0 4.28645)
(1.6814 0 3.84129)
(2.1609 0 4.28466)
(0.85958 0 3.57681)
(1.31592 0 4.16209)
(0.575924 0 3.82668)
(9.98203 0 0.143635)
(9.99292 0 0.10028)
(9.94685 0 0.237866)
(9.96928 0 0.199018)
(9.89469 0 0.332555)
(9.92711 0 0.297584)
(9.82578 0 0.429194)
(9.86775 0 0.397486)
(9.74042 0 0.529161)
(9.79228 0 0.500202)
(9.63881 0 0.633658)
(9.70107 0 0.607047)
(9.521 0 0.743784)
(9.59417 0 0.719186)
(9.38695 0 0.860608)
(9.47154 0 0.837732)
(9.23649 0 0.985185)
(9.33308 0 0.963782)
(9.0694 0 1.11855)
(9.17863 0 1.09842)
(8.88538 0 1.26173)
(9.00795 0 1.24271)
(8.68404 0 1.4157)
(8.82072 0 1.39769)
(8.46495 0 1.58141)
(8.61656 0 1.56439)
(8.22757 0 1.75971)
(8.39497 0 1.74375)
(7.97126 0 1.95135)
(8.15538 0 1.93667)
(7.69524 0 2.15687)
(7.89706 0 2.14389)
(7.3985 0 2.37651)
(7.61907 0 2.36595)
(7.07973 0 2.61007)
(7.32021 0 2.60309)
(6.73713 0 2.85669)
(6.99881 0 2.85509)
(6.36826 0 3.11457)
(6.65262 0 3.12107)
(5.96973 0 3.38053)
(6.27852 0 3.39914)
(5.53693 0 3.64951)
(5.8722 0 3.68603)
(5.06375 0 3.91381)
(5.42783 0 3.97641)
(4.54244 0 4.16232)
(4.93776 0 4.26213)
(3.96377 0 4.3796)
(4.39236 0 4.53115)
(3.31792 0 4.54512)
(3.78062 0 4.76639)
(2.59615 0 4.63224)
(3.08969 0 4.94446)
(1.7944 0 4.61188)
(2.31971 0 5.03327)
(0.918649 0 4.41779)
(1.41846 0 4.99957)
(0.612405 0 4.72644)
(9.98269 0 0.156666)
(9.99322 0 0.108758)
(9.94889 0 0.259702)
(9.97058 0 0.21597)
(9.89898 0 0.363462)
(9.9303 0 0.323221)
(9.83323 0 0.469454)
(9.87375 0 0.432079)
(9.75191 0 0.579079)
(9.80203 0 0.544022)
(9.65522 0 0.693603)
(9.71548 0 0.660408)
(9.54325 0 0.814205)
(9.61416 0 0.782477)
(9.41597 0 0.942029)
(9.49805 0 0.911416)
(9.27327 0 1.0782)
(9.36711 0 1.04839)
(9.11497 0 1.22382)
(9.22123 0 1.19455)
(8.94081 0 1.38)
(9.06021 0 1.35103)
(8.75046 0 1.54779)
(8.88378 0 1.51895)
(8.54349 0 1.72824)
(8.69159 0 1.69941)
(8.31938 0 1.92232)
(8.48319 0 1.8935)
(8.07745 0 2.13094)
(8.258 0 2.10223)
(7.81685 0 2.35484)
(8.01527 0 2.32654)
(7.53645 0 2.59455)
(7.754 0 2.56724)
(7.23469 0 2.85031)
(7.47284 0 2.82495)
(6.90948 0 3.12186)
(7.16993 0 3.09998)
(6.55788 0 3.40826)
(6.84271 0 3.39222)
(6.17585 0 3.70751)
(6.48758 0 3.70089)
(5.75784 0 4.01611)
(6.09956 0 4.02419)
(5.29639 0 4.3283)
(5.67183 0 4.35875)
(4.7818 0 4.63509)
(5.1952 0 4.6988)
(4.20215 0 4.92295)
(4.65766 0 5.03493)
(3.544 0 5.17212)
(4.04467 0 5.35223)
(2.79435 0 5.35399)
(3.33783 0 5.62789)
(1.94515 0 5.43233)
(2.53217 0 5.82618)
(1.00115 0 5.32144)
(1.56462 0 5.90232)
(0.671182 0 5.70701)
(9.98348 0 0.169141)
(9.99356 0 0.116849)
(9.95128 0 0.280545)
(9.97207 0 0.232118)
(9.90388 0 0.392885)
(9.9339 0 0.347575)
(9.84156 0 0.507708)
(9.88043 0 0.464864)
(9.76461 0 0.626445)
(9.81274 0 0.585488)
(9.67323 0 0.750418)
(9.73119 0 0.71084)
(9.56753 0 0.880872)
(9.63584 0 0.842221)
(9.44753 0 1.01902)
(9.52671 0 0.980883)
(9.31317 0 1.16604)
(9.4038 0 1.12805)
(9.16432 0 1.32313)
(9.26706 0 1.28494)
(9.00076 0 1.49144)
(9.11635 0 1.45275)
(8.82222 0 1.67213)
(8.95145 0 1.63268)
(8.62831 0 1.86633)
(8.77208 0 1.82592)
(8.41854 0 2.07517)
(8.57784 0 2.03366)
(8.19225 0 2.29972)
(8.36819 0 2.25709)
(7.94856 0 2.54096)
(8.1424 0 2.49734)
(7.68627 0 2.79978)
(7.89949 0 2.75553)
(7.40371 0 3.0769)
(7.63805 0 3.03269)
(7.09857 0 3.37278)
(7.35618 0 3.32975)
(6.76762 0 3.68744)
(7.05115 0 3.64745)
(6.40635 0 4.02032)
(6.71917 0 3.98625)
(6.00849 0 4.36978)
(6.35486 0 4.34605)
(5.56541 0 4.73251)
(5.95073 0 4.72585)
(5.06554 0 5.10248)
(5.49636 0 5.12299)
(4.49381 0 5.46921)
(4.97746 0 5.53183)
(3.83175 0 5.81527)
(4.37537 0 5.94155)
(3.05889 0 6.11144)
(3.66397 0 6.33249)
(2.15747 0 6.314)
(2.82774 0 6.66785)
(1.12385 0 6.31212)
(1.78299 0 6.89078)
(0.768722 0 6.80775)
(9.98438 0 0.18098)
(9.99394 0 0.1245)
(9.95397 0 0.300288)
(9.97372 0 0.24737)
(9.90928 0 0.420694)
(9.93785 0 0.370532)
(9.85065 0 0.543802)
(9.88768 0 0.495711)
(9.77836 0 0.671075)
(9.82428 0 0.624441)
(9.69263 0 0.803881)
(9.74802 0 0.758151)
(9.59361 0 0.943524)
(9.65898 0 0.898193)
(9.48135 0 1.09127)
(9.55722 0 1.04587)
(9.35584 0 1.24838)
(9.4428 0 1.20247)
(9.21701 0 1.41607)
(9.31572 0 1.36925)
(9.06471 0 1.59558)
(9.1759 0 1.54747)
(8.89873 0 1.78816)
(9.0232 0 1.7384)
(8.71876 0 1.99505)
(8.85742 0 1.94333)
(8.52436 0 2.21749)
(8.67822 0 2.16356)
(8.31493 0 2.45674)
(8.48517 0 2.40041)
(8.08963 0 2.71406)
(8.27762 0 2.65525)
(7.8473 0 2.99069)
(8.05467 0 2.92948)
(7.5863 0 3.2879)
(7.81502 0 3.22459)
(7.30428 0 3.60687)
(7.55685 0 3.5421)
(6.99798 0 3.94876)
(7.27755 0 3.88368)
(6.66274 0 4.31452)
(6.97344 0 4.25104)
(6.29196 0 4.70469)
(6.63921 0 4.646)
(5.87635 0 5.11898)
(6.2673 0 5.07021)
(5.40282 0 5.55534)
(5.8468 0 5.52482)
(4.85321 0 6.00827)
(5.36194 0 6.0095)
(4.20288 0 6.46573)
(4.79029 0 6.52043)
(3.41997 0 6.90229)
(4.09679 0 7.04624)
(2.46768 0 7.27057)
(3.24888 0 7.55703)
(1.31709 0 7.42922)
(2.12401 0 7.99109)
(0.939521 0 8.09775)
(9.98536 0 0.192119)
(9.99435 0 0.131671)
(9.95688 0 0.318836)
(9.9755 0 0.261653)
(9.9151 0 0.446775)
(9.94208 0 0.391996)
(9.86037 0 0.577598)
(9.8954 0 0.524502)
(9.79301 0 0.712803)
(9.83652 0 0.660742)
(9.71323 0 0.853797)
(9.76581 0 0.802176)
(9.62123 0 1.00193)
(9.68337 0 0.950196)
(9.5171 0 1.15853)
(9.58933 0 1.10615)
(9.40089 0 1.32488)
(9.48378 0 1.27137)
(9.27259 0 1.50227)
(9.36679 0 1.44716)
(9.13214 0 1.692)
(9.23836 0 1.63482)
(8.97939 0 1.89539)
(9.09843 0 1.8357)
(8.81413 0 2.11377)
(8.9469 0 2.05115)
(8.63602 0 2.34852)
(8.78354 0 2.28257)
(8.44458 0 2.60107)
(8.60803 0 2.53142)
(8.23909 0 2.87294)
(8.41989 0 2.79928)
(8.01852 0 3.16573)
(8.21839 0 3.08782)
(7.78141 0 3.48122)
(8.00245 0 3.39891)
(7.52565 0 3.82135)
(7.77056 0 3.73469)
(7.24821 0 4.18837)
(7.52048 0 4.09764)
(6.94476 0 4.58481)
(7.24903 0 4.49073)
(6.60901 0 5.01357)
(6.95159 0 4.9176)
(6.23185 0 5.47777)
(6.62139 0 5.3827)
(5.79981 0 5.98044)
(6.24839 0 5.89144)
(5.29285 0 6.52341)
(5.81728 0 6.4501)
(4.68076 0 7.10499)
(5.30456 0 7.06528)
(3.91775 0 7.71308)
(4.66882 0 7.74185)
(2.93569 0 8.31186)
(3.85839 0 8.474)
(1.64402 0 8.73797)
(2.6856 0 9.22632)
(1.26502 0 9.70797)
(9.9864 0 0.202506)
(9.99478 0 0.138329)
(9.95998 0 0.336111)
(9.97738 0 0.274905)
(9.92127 0 0.471031)
(9.94653 0 0.411885)
(9.87064 0 0.608981)
(9.90352 0 0.55114)
(9.80841 0 0.751493)
(9.84934 0 0.694274)
(9.73484 0 0.900008)
(9.78439 0 0.842775)
(9.65015 0 1.05592)
(9.70881 0 0.998067)
(9.55449 0 1.22057)
(9.62276 0 1.16154)
(9.44795 0 1.39531)
(9.52641 0 1.33453)
(9.33062 0 1.58146)
(9.41987 0 1.51841)
(9.20249 0 1.78038)
(9.30323 0 1.71451)
(9.06354 0 1.99343)
(9.17655 0 1.92421)
(8.91366 0 2.22203)
(9.0398 0 2.14893)
(8.75264 0 2.46767)
(8.89293 0 2.39015)
(8.58017 0 2.73194)
(8.73576 0 2.64945)
(8.39573 0 3.01658)
(8.56802 0 2.92855)
(8.19854 0 3.3235)
(8.38923 0 3.22937)
(7.98747 0 3.65494)
(8.19868 0 3.55409)
(7.76087 0 4.01351)
(7.9953 0 3.90533)
(7.51631 0 4.40241)
(7.77752 0 4.28625)
(7.25029 0 4.82566)
(7.54306 0 4.70085)
(6.95768 0 5.28834)
(7.28861 0 5.15432)
(6.6308 0 5.79707)
(7.00927 0 5.65354)
(6.25788 0 6.36044)
(6.69768 0 6.20789)
(5.82022 0 6.98955)
(6.34227 0 6.83047)
(5.28672 0 7.69865)
(5.92457 0 7.54017)
(4.60242 0 8.5041)
(5.40824 0 8.36571)
(3.66277 0 9.42174)
(4.7418 0 9.35137)
(2.2547 0 10.3545)
(3.67832 0 10.5729)
(1.96723 0 11.9163)
(9.9875 0 0.212097)
(9.99523 0 0.144449)
(9.96324 0 0.352046)
(9.97933 0 0.287077)
(9.92771 0 0.493371)
(9.95117 0 0.430132)
(9.88134 0 0.637832)
(9.91195 0 0.575541)
(9.82443 0 0.786991)
(9.86264 0 0.724937)
(9.75729 0 0.942317)
(9.80364 0 0.879831)
(9.68014 0 1.10523)
(9.73515 0 1.04167)
(9.59321 0 1.27711)
(9.65736 0 1.21186)
(9.49666 0 1.45932)
(9.5705 0 1.39178)
(9.39062 0 1.65322)
(9.47477 0 1.5828)
(9.27522 0 1.8602)
(9.37034 0 1.78629)
(9.15052 0 2.08168)
(9.25736 0 2.00365)
(9.01654 0 2.31912)
(9.13596 0 2.23634)
(8.87326 0 2.5741)
(9.00621 0 2.48589)
(8.72055 0 2.84833)
(8.86816 0 2.75396)
(8.55816 0 3.14369)
(8.72176 0 3.04237)
(8.38566 0 3.46237)
(8.56687 0 3.35319)
(8.2024 0 3.80691)
(8.40322 0 3.68883)
(8.00735 0 4.18044)
(8.23035 0 4.0522)
(7.79903 0 4.58687)
(8.04755 0 4.4469)
(7.57528 0 5.0313)
(7.85378 0 4.87759)
(7.3329 0 5.52053)
(7.64755 0 5.35039)
(7.06717 0 6.06391)
(7.4268 0 5.87371)
(6.77074 0 6.67476)
(7.18865 0 6.45944)
(6.43166 0 7.37289)
(6.92897 0 7.12517)
(6.02883 0 8.18988)
(6.64266 0 7.89874)
(5.52052 0 9.18172)
(6.32036 0 8.82912)
(4.80695 0 10.4775)
(5.98089 0 10.0176)
(3.56258 0 12.5025)
(5.66541 0 11.7629)
(4.75569 0 15.4056)
(0.174707 0 -0.0969325)
(-0.0488395 0 -0.171115)
(0.101487 0 0.0605493)
(-0.114066 0 0.0700207)
(-0.136887 0 0.156687)
(-0.41956 0 0.222575)
(-0.491011 0 0.209006)
(-0.801662 0 0.322842)
(-0.926764 0 0.237648)
(-1.26274 0 0.38788)
(-1.42053 0 0.251999)
(-1.77885 0 0.42914)
(-1.95495 0 0.256825)
(-2.33451 0 0.453499)
(-2.51629 0 0.254815)
(-2.91697 0 0.465094)
(-3.09306 0 0.247632)
(-3.51528 0 0.466589)
(-3.67518 0 0.236377)
(-4.11978 0 0.4598)
(-4.25351 0 0.221814)
(-4.72165 0 0.446018)
(-4.81948 0 0.204488)
(-5.31264 0 0.426173)
(-5.36482 0 0.184794)
(-5.88477 0 0.400941)
(-5.8814 0 0.163024)
(-6.4302 0 0.370821)
(-6.36104 0 0.139382)
(-6.94107 0 0.336182)
(-6.79549 0 0.114011)
(-7.40938 0 0.297307)
(-7.17626 0 0.086989)
(-7.82698 0 0.254425)
(-7.4947 0 0.058345)
(-8.18554 0 0.207747)
(-7.74199 0 0.0279968)
(-8.47653 0 0.15752)
(-7.90933 0 -0.00444875)
(-8.69113 0 0.104079)
(-7.98689 0 -0.0401137)
(-8.82017 0 0.0470948)
(-7.96139 0 -0.0811055)
(-8.85473 0 -0.0151164)
(-7.81797 0 -0.128597)
(-8.78476 0 -0.0830252)
(-7.53893 0 -0.182545)
(-8.59756 0 -0.157723)
(-7.10917 0 -0.243692)
(-8.28629 0 -0.237183)
(-6.51285 0 -0.314213)
(-7.84036 0 -0.321327)
(-5.72846 0 -0.398116)
(-7.22965 0 -0.412684)
(-4.7149 0 -0.494971)
(-6.39803 0 -0.520663)
(-3.42494 0 -0.579257)
(-5.34742 0 -0.646998)
(-4.4105 0 -0.677362)
(-0.280489 0 0.0513265)
(-0.295645 0 0.103606)
(-0.643249 0 0.306817)
(-0.616927 0 0.41693)
(-1.07144 0 0.468002)
(-1.0989 0 0.622381)
(-1.56003 0 0.574003)
(-1.60823 0 0.768276)
(-2.09859 0 0.643335)
(-2.15947 0 0.867269)
(-2.6752 0 0.686461)
(-2.74242 0 0.93028)
(-3.2784 0 0.709834)
(-3.34865 0 0.965369)
(-3.89784 0 0.717682)
(-3.9697 0 0.978327)
(-4.5242 0 0.712898)
(-4.59763 0 0.973294)
(-5.14894 0 0.697525)
(-5.22492 0 0.953262)
(-5.76407 0 0.673027)
(-5.84444 0 0.920414)
(-6.36192 0 0.640457)
(-6.44925 0 0.876347)
(-6.93493 0 0.600568)
(-7.0325 0 0.822227)
(-7.47556 0 0.553901)
(-7.58727 0 0.758911)
(-7.97614 0 0.500848)
(-8.10651 0 0.687037)
(-8.42884 0 0.441703)
(-8.58293 0 0.607105)
(-8.8256 0 0.376717)
(-9.00904 0 0.519536)
(-9.15823 0 0.306132)
(-9.37709 0 0.424749)
(-9.4184 0 0.230162)
(-9.67918 0 0.323247)
(-9.59766 0 0.148699)
(-9.90731 0 0.215569)
(-9.68791 0 0.0607783)
(-10.0535 0 0.101897)
(-9.68216 0 -0.034971)
(-10.1098 0 -0.0185212)
(-9.57337 0 -0.138592)
(-10.0716 0 -0.146007)
(-9.35564 0 -0.248808)
(-9.93452 0 -0.280795)
(-9.02272 0 -0.364884)
(-9.69578 0 -0.420917)
(-8.57132 0 -0.487924)
(-9.35261 0 -0.564561)
(-8.00279 0 -0.621608)
(-8.89095 0 -0.711804)
(-7.32905 0 -0.765198)
(-8.28437 0 -0.866759)
(-6.57473 0 -0.893411)
(-7.57335 0 -1.02534)
(-7.06627 0 -1.15671)
(-0.540667 0 0.525614)
(-0.420437 0 0.633156)
(-1.07701 0 0.772465)
(-0.887763 0 0.929839)
(-1.62647 0 0.948541)
(-1.48588 0 1.13542)
(-2.19789 0 1.07507)
(-2.07248 0 1.28923)
(-2.7911 0 1.15953)
(-2.67387 0 1.39531)
(-3.40218 0 1.20973)
(-3.2868 0 1.46137)
(-4.02544 0 1.23196)
(-3.90842 0 1.49425)
(-4.65461 0 1.23112)
(-4.53457 0 1.49962)
(-5.2834 0 1.21091)
(-5.16056 0 1.48197)
(-5.90559 0 1.17411)
(-5.78142 0 1.44471)
(-6.51507 0 1.1228)
(-6.39202 0 1.39045)
(-7.10569 0 1.05853)
(-6.98701 0 1.32108)
(-7.67122 0 0.982439)
(-7.56082 0 1.23802)
(-8.20526 0 0.895397)
(-8.10758 0 1.14227)
(-8.70115 0 0.798109)
(-8.62111 0 1.03461)
(-9.15199 0 0.691196)
(-9.09486 0 0.915629)
(-9.5506 0 0.575284)
(-9.52197 0 0.785878)
(-9.8896 0 0.451101)
(-9.89525 0 0.645913)
(-10.1615 0 0.31951)
(-10.2073 0 0.496421)
(-10.3587 0 0.18138)
(-10.4509 0 0.338235)
(-10.4745 0 0.037233)
(-10.6187 0 0.17222)
(-10.5027 0 -0.113204)
(-10.7041 0 -0.00179154)
(-10.4409 0 -0.270758)
(-10.7029 0 -0.181767)
(-10.2841 0 -0.434523)
(-10.6144 0 -0.369429)
(-10.0304 0 -0.601756)
(-10.4378 0 -0.560947)
(-9.68121 0 -0.770299)
(-10.1737 0 -0.752727)
(-9.24431 0 -0.94063)
(-9.81475 0 -0.941664)
(-8.73553 0 -1.11492)
(-9.34495 0 -1.12812)
(-8.15647 0 -1.28179)
(-8.80607 0 -1.31578)
(-8.44559 0 -1.49145)
(-0.66203 0 1.09436)
(-0.465371 0 1.28157)
(-1.29839 0 1.32636)
(-1.00798 0 1.53839)
(-1.91998 0 1.49536)
(-1.67086 0 1.71581)
(-2.53848 0 1.61952)
(-2.29707 0 1.85309)
(-3.15846 0 1.70123)
(-2.92098 0 1.94718)
(-3.78099 0 1.74615)
(-3.54226 0 2.00242)
(-4.40482 0 1.75972)
(-4.16196 0 2.02363)
(-5.02737 0 1.74669)
(-4.77925 0 2.01543)
(-5.64523 0 1.71092)
(-5.3922 0 1.9818)
(-6.25446 0 1.6554)
(-5.99806 0 1.92592)
(-6.85068 0 1.58242)
(-6.59337 0 1.85026)
(-7.42908 0 1.49365)
(-7.1741 0 1.75662)
(-7.98447 0 1.39032)
(-7.73564 0 1.64634)
(-8.51121 0 1.27332)
(-8.27284 0 1.52039)
(-9.00324 0 1.14329)
(-8.78009 0 1.37947)
(-9.4541 0 1.00075)
(-9.25127 0 1.22417)
(-9.85696 0 0.846161)
(-9.67985 0 1.05506)
(-10.2048 0 0.680054)
(-10.0589 0 0.872815)
(-10.4903 0 0.503127)
(-10.3815 0 0.678285)
(-10.7064 0 0.316273)
(-10.6403 0 0.472648)
(-10.8466 0 0.12041)
(-10.829 0 0.257384)
(-10.907 0 -0.0837898)
(-10.9417 0 0.0339821)
(-10.8838 0 -0.294991)
(-10.9733 0 -0.19517)
(-10.7769 0 -0.510517)
(-10.9266 0 -0.429883)
(-10.5859 0 -0.726426)
(-10.8019 0 -0.666358)
(-10.3146 0 -0.93805)
(-10.6014 0 -0.898899)
(-9.97266 0 -1.14324)
(-10.3217 0 -1.12156)
(-9.5737 0 -1.34573)
(-9.9541 0 -1.33306)
(-9.12343 0 -1.53966)
(-9.53823 0 -1.54162)
(-9.26893 0 -1.7313)
(-0.704724 0 1.73741)
(-0.468115 0 1.97181)
(-1.38181 0 1.93662)
(-1.03412 0 2.1859)
(-2.0336 0 2.07906)
(-1.71835 0 2.32439)
(-2.66907 0 2.18351)
(-2.35164 0 2.43243)
(-3.29402 0 2.24902)
(-2.97454 0 2.50346)
(-3.91205 0 2.27909)
(-3.58681 0 2.53956)
(-4.52473 0 2.27763)
(-4.1918 0 2.54354)
(-5.13205 0 2.24841)
(-4.79081 0 2.51862)
(-5.73275 0 2.19464)
(-5.38379 0 2.46775)
(-6.32456 0 2.11885)
(-5.96954 0 2.39338)
(-6.90437 0 2.023)
(-6.54582 0 2.29741)
(-7.46833 0 1.90849)
(-7.10949 0 2.18128)
(-8.0119 0 1.77634)
(-7.65666 0 2.04599)
(-8.52998 0 1.62732)
(-8.1827 0 1.89229)
(-9.01688 0 1.46204)
(-8.68238 0 1.72073)
(-9.46648 0 1.2811)
(-9.14991 0 1.53184)
(-9.87224 0 1.0852)
(-9.57903 0 1.32619)
(-10.2274 0 0.875257)
(-9.96307 0 1.10451)
(-10.525 0 0.652544)
(-10.2951 0 0.867867)
(-10.7584 0 0.418749)
(-10.5684 0 0.617783)
(-10.9215 0 0.17598)
(-10.7765 0 0.356454)
(-11.0102 0 -0.0733505)
(-10.9142 0 0.08657)
(-11.0228 0 -0.327609)
(-10.9768 0 -0.187901)
(-10.9598 0 -0.58448)
(-10.9676 0 -0.465462)
(-10.8226 0 -0.838586)
(-10.8886 0 -0.742081)
(-10.6162 0 -1.08299)
(-10.7426 0 -1.0101)
(-10.3504 0 -1.31348)
(-10.529 0 -1.26142)
(-10.0377 0 -1.5335)
(-10.2449 0 -1.49369)
(-9.6916 0 -1.73703)
(-9.9267 0 -1.71523)
(-9.72453 0 -1.90544)
(-0.698566 0 2.40601)
(-0.445546 0 2.65601)
(-1.37291 0 2.56531)
(-0.998429 0 2.83078)
(-2.02012 0 2.67206)
(-1.66893 0 2.9287)
(-2.64622 0 2.74787)
(-2.28163 0 3.00324)
(-3.25662 0 2.78999)
(-2.88257 0 3.0468)
(-3.85586 0 2.80022)
(-3.46996 0 3.06036)
(-4.44693 0 2.78087)
(-4.0484 0 3.04511)
(-5.0313 0 2.73442)
(-4.62025 0 3.0028)
(-5.60908 0 2.66309)
(-5.18655 0 2.93515)
(-6.1791 0 2.56867)
(-5.74704 0 2.84362)
(-6.73914 0 2.45253)
(-6.30027 0 2.72932)
(-7.28602 0 2.31567)
(-6.84372 0 2.59308)
(-7.81576 0 2.15882)
(-7.374 0 2.43546)
(-8.32366 0 1.98251)
(-7.88687 0 2.25687)
(-8.80436 0 1.7872)
(-8.37743 0 2.05765)
(-9.25198 0 1.57339)
(-8.84014 0 1.83817)
(-9.6602 0 1.34174)
(-9.26892 0 1.59895)
(-10.0224 0 1.09316)
(-9.65728 0 1.34079)
(-10.3317 0 0.829031)
(-9.99841 0 1.06492)
(-10.5817 0 0.551442)
(-10.2856 0 0.773244)
(-10.7664 0 0.263419)
(-10.5126 0 0.468638)
(-10.8822 0 -0.0311614)
(-10.6743 0 0.155239)
(-10.9276 0 -0.328706)
(-10.767 0 -0.16166)
(-10.9042 0 -0.625701)
(-10.792 0 -0.478679)
(-10.8144 0 -0.915874)
(-10.7544 0 -0.791624)
(-10.664 0 -1.19054)
(-10.6566 0 -1.09117)
(-10.4622 0 -1.44384)
(-10.5003 0 -1.36757)
(-10.222 0 -1.67774)
(-10.2875 0 -1.61709)
(-9.96161 0 -1.88459)
(-10.0506 0 -1.84583)
(-9.90182 0 -2.03125)
(-0.658662 0 3.05786)
(-0.406228 0 3.30113)
(-1.29822 0 3.17834)
(-0.918866 0 3.44239)
(-1.91299 0 3.24818)
(-1.54774 0 3.50272)
(-2.50709 0 3.2932)
(-2.11674 0 3.54486)
(-3.08524 0 3.31002)
(-2.67721 0 3.56143)
(-3.65212 0 3.29933)
(-3.22499 0 3.55305)
(-4.21125 0 3.26199)
(-3.76541 0 3.51958)
(-4.7648 0 3.19913)
(-4.30116 0 3.46145)
(-5.31357 0 3.11179)
(-4.83377 0 3.37909)
(-5.85704 0 3.00081)
(-5.36343 0 3.27288)
(-6.39351 0 2.86679)
(-5.88908 0 3.14305)
(-6.92027 0 2.71014)
(-6.40859 0 2.98973)
(-7.4337 0 2.53114)
(-6.91888 0 2.81294)
(-7.92938 0 2.32999)
(-7.416 0 2.6127)
(-8.40223 0 2.10694)
(-7.89531 0 2.38907)
(-8.84656 0 1.86237)
(-8.35147 0 2.14224)
(-9.25617 0 1.59694)
(-8.77862 0 1.87265)
(-9.62456 0 1.31173)
(-9.17041 0 1.58112)
(-9.94508 0 1.00847)
(-9.52017 0 1.26909)
(-10.2113 0 0.689862)
(-9.82119 0 0.938819)
(-10.4175 0 0.359989)
(-10.0671 0 0.593868)
(-10.5598 0 0.0241878)
(-10.2529 0 0.239601)
(-10.6365 0 -0.312457)
(-10.3754 0 -0.11725)
(-10.6499 0 -0.645502)
(-10.4325 0 -0.47109)
(-10.6034 0 -0.96773)
(-10.4334 0 -0.81731)
(-10.5028 0 -1.26897)
(-10.3797 0 -1.14537)
(-10.3572 0 -1.54172)
(-10.2749 0 -1.44418)
(-10.1799 0 -1.78576)
(-10.1247 0 -1.70815)
(-9.99149 0 -1.99218)
(-9.95769 0 -1.94035)
(-9.85371 0 -2.11896)
(-0.593302 0 3.66192)
(-0.354936 0 3.88223)
(-1.17365 0 3.74895)
(-0.805898 0 3.99738)
(-1.73362 0 3.78535)
(-1.37075 0 4.02558)
(-2.27645 0 3.80199)
(-1.87673 0 4.03973)
(-2.80644 0 3.7956)
(-2.38047 0 4.0332)
(-3.32818 0 3.76612)
(-2.8751 0 4.00649)
(-3.8452 0 3.71313)
(-3.36653 0 3.95832)
(-4.35984 0 3.63647)
(-3.85735 0 3.88785)
(-4.8731 0 3.53599)
(-4.34908 0 3.7943)
(-5.38468 0 3.41152)
(-4.84195 0 3.67697)
(-5.89316 0 3.26285)
(-5.335 0 3.5352)
(-6.39604 0 3.08976)
(-5.82625 0 3.3684)
(-6.88996 0 2.89205)
(-6.31279 0 3.17608)
(-7.37076 0 2.66959)
(-6.79089 0 2.95784)
(-7.83356 0 2.42238)
(-7.25612 0 2.71345)
(-8.2729 0 2.15067)
(-7.70343 0 2.4429)
(-8.68277 0 1.85509)
(-8.12719 0 2.14652)
(-9.05682 0 1.53681)
(-8.52129 0 1.82515)
(-9.38851 0 1.19782)
(-8.87927 0 1.48038)
(-9.67145 0 0.841312)
(-9.19437 0 1.11479)
(-9.89971 0 0.472198)
(-9.45989 0 0.732485)
(-10.0686 0 0.0970761)
(-9.67029 0 0.33972)
(-10.1756 0 -0.276916)
(-9.82276 0 -0.0553059)
(-10.2238 0 -0.643714)
(-9.91032 0 -0.44384)
(-10.2177 0 -0.995418)
(-9.94804 0 -0.820687)
(-10.1629 0 -1.32081)
(-9.93619 0 -1.17488)
(-10.0681 0 -1.61071)
(-9.87905 0 -1.49409)
(-9.94672 0 -1.86238)
(-9.78544 0 -1.77048)
(-9.82009 0 -2.06632)
(-9.68041 0 -2.00386)
(-9.61595 0 -2.17482)
(-0.507771 0 4.19563)
(-0.294737 0 4.37956)
(-1.00946 0 4.25655)
(-0.666187 0 4.47715)
(-1.4962 0 4.26549)
(-1.14862 0 4.48005)
(-1.97123 0 4.25913)
(-1.5751 0 4.4728)
(-2.43889 0 4.2345)
(-2.00783 0 4.44948)
(-2.90367 0 4.19089)
(-2.43703 0 4.41043)
(-3.36887 0 4.12667)
(-2.86937 0 4.35308)
(-3.83662 0 4.04042)
(-3.30687 0 4.2754)
(-4.30771 0 3.93087)
(-3.7507 0 4.17541)
(-4.78177 0 3.79688)
(-4.20079 0 4.05141)
(-5.25735 0 3.63749)
(-4.656 0 3.90196)
(-5.73203 0 3.45185)
(-5.11428 0 3.72584)
(-6.20261 0 3.23931)
(-5.57276 0 3.52205)
(-6.6651 0 2.99939)
(-6.02787 0 3.28984)
(-7.11492 0 2.73186)
(-6.47542 0 3.02872)
(-7.54688 0 2.43679)
(-6.91066 0 2.73851)
(-7.95527 0 2.11476)
(-7.32836 0 2.41939)
(-8.33396 0 1.767)
(-7.72279 0 2.0722)
(-8.67655 0 1.39573)
(-8.08778 0 1.6986)
(-8.97659 0 1.00452)
(-8.41656 0 1.30139)
(-9.22772 0 0.598842)
(-8.70188 0 0.884985)
(-9.42407 0 0.186263)
(-8.93731 0 0.456139)
(-9.56109 0 -0.223425)
(-9.11909 0 0.0240199)
(-9.64272 0 -0.621689)
(-9.23855 0 -0.397702)
(-9.67578 0 -1.00044)
(-9.3125 0 -0.802442)
(-9.66483 0 -1.34805)
(-9.34207 0 -1.18078)
(-9.61761 0 -1.65344)