/*--------------------------------*- C++ -*----------------------------------*\
  =========                 |
  \\      /  F ield         | OpenFOAM: The Open Source CFD Toolbox
   \\    /   O peration     | Website:  https://openfoam.org
    \\  /    A nd           | Version:  dev
     \\/     M anipulation  |
\*---------------------------------------------------------------------------*/
FoamFile
{
    version     2.0;
    format      ascii;
    class       surfaceScalarField;
    location    "8.3";
    object      phi;
}
// * * * * * * * * * * * * * * * * * * * * * * * * * * * * * * * * * * * * * //

dimensions      [0 3 -1 0 0 0 0];

internalField   nonuniform List<scalar> 
5457
(
0.198418
0.00158238
0.19648
0.00193736
0.194192
0.00228808
0.191509
0.00268357
0.188427
0.00308119
0.184951
0.00347676
0.181072
0.00387858
0.176778
0.00429402
0.17205
0.00472824
0.166865
0.00518526
0.161196
0.00566856
0.155015
0.00618109
0.14829
0.00672505
0.140988
0.00730143
0.133079
0.00790961
0.124532
0.00854656
0.115326
0.00920601
0.105449
0.0098773
0.0949048
0.0105442
0.0837212
0.0111836
0.0719565
0.0117647
0.0597081
0.0122483
0.0471194
0.0125887
0.0343793
0.0127401
0.0216844
0.0126949
0.00903429
0.0126501
-0.00291828
0.0119526
-0.00847295
0.00555467
-0.0080433
-0.000429647
-0.0080433
0.199928
0.00165422
0.199176
0.0026898
0.197965
0.00349901
0.196332
0.00431675
0.194272
0.00514124
0.191781
0.00596684
0.188855
0.00680557
0.185478
0.00767091
0.181633
0.00857318
0.177297
0.0095207
0.172445
0.0105207
0.167047
0.0115795
0.16107
0.0127019
0.154481
0.0138905
0.147246
0.0151448
0.139332
0.0164598
0.130714
0.0178241
0.121374
0.0192176
0.111309
0.0206091
0.100539
0.0219536
0.0891145
0.0231893
0.0771268
0.024236
0.0647208
0.0249947
0.0521134
0.0253476
0.0396532
0.0251551
0.0281035
0.0241998
0.018593
0.0214631
0.0087952
0.0153525
0.00118251
0.00718304
-0.00686079
0.199781
0.00187365
0.199087
0.00338364
0.197946
0.00463993
0.196409
0.00585336
0.194483
0.00706737
0.192164
0.00828589
0.189447
0.00952301
0.186321
0.0107964
0.182773
0.0121211
0.178784
0.0135096
0.174332
0.0149729
0.169391
0.0165206
0.163932
0.0181606
0.157925
0.0198978
0.151337
0.0217332
0.144135
0.0236617
0.136289
0.0256697
0.127775
0.0277316
0.118578
0.0298062
0.1087
0.0318316
0.098168
0.0337212
0.0870456
0.0353584
0.0754488
0.0365914
0.0635717
0.0372247
0.05173
0.0369968
0.040395
0.0355348
0.029737
0.0321211
0.0191646
0.0259249
0.00959677
0.0167509
0.00273598
0.199703
0.00217059
0.199008
0.00407894
0.197887
0.00576046
0.196376
0.00736427
0.194488
0.00895549
0.192222
0.0105519
0.189575
0.0121707
0.186539
0.0138324
0.183104
0.0155556
0.179258
0.0173562
0.174982
0.019248
0.17026
0.0212433
0.165068
0.0233523
0.159384
0.0255821
0.153182
0.027935
0.146436
0.030407
0.139122
0.0329842
0.131214
0.0356391
0.122695
0.0383255
0.113554
0.0409727
0.103797
0.0434783
0.0934543
0.0457011
0.082593
0.0474527
0.0713302
0.0484874
0.0598384
0.0484886
0.0483146
0.0470585
0.036809
0.0436267
0.0251865
0.0375474
0.0133349
0.0286025
0.0160708
0.199667
0.00250317
0.198964
0.0047822
0.197863
0.00686177
0.196381
0.00884595
0.194532
0.0108043
0.192318
0.0127665
0.189734
0.0147545
0.186775
0.016791
0.183434
0.0188973
0.179698
0.0210919
0.175555
0.023391
0.17099
0.0258085
0.165986
0.0283562
0.160525
0.0310424
0.15459
0.0338707
0.148159
0.0368377
0.141213
0.0399302
0.133731
0.0431208
0.125694
0.0463626
0.117085
0.0495823
0.107891
0.052672
0.0981119
0.0554803
0.0877619
0.0578028
0.0768758
0.0593735
0.0655059
0.0598585
0.0537054
0.058859
0.0414518
0.0558803
0.0285862
0.0504131
0.0148515
0.0423372
0.0309224
0.199653
0.00285037
0.198949
0.00548626
0.197871
0.00793971
0.196427
0.0102901
0.194627
0.0126042
0.192473
0.01492
0.189964
0.0172642
0.187093
0.0196619
0.183853
0.0221366
0.180236
0.0247092
0.176229
0.0273975
0.171821
0.0302172
0.166996
0.0331811
0.16174
0.0362985
0.156037
0.0395737
0.14987
0.0430045
0.143222
0.0465786
0.136072
0.0502704
0.128399
0.0540351
0.12018
0.0578022
0.111385
0.0614666
0.101986
0.0648793
0.0919515
0.0678372
0.0812506
0.0700743
0.0698509
0.0712583
0.0577138
0.0709961
0.044758
0.068836
0.0308472
0.0643239
0.0158721
0.0573123
0.0467945
0.19965
0.00320032
0.198954
0.00618224
0.197904
0.00898933
0.196505
0.0116898
0.194763
0.0143465
0.19268
0.017002
0.190257
0.0196878
0.187487
0.0224315
0.184365
0.0252587
0.180882
0.0281921
0.177028
0.0312515
0.172792
0.0344539
0.168159
0.0378133
0.163118
0.0413402
0.157651
0.0450401
0.151744
0.0489122
0.145376
0.0529464
0.138526
0.0571202
0.131167
0.0613937
0.123266
0.0657033
0.114779
0.0699536
0.105651
0.0740075
0.0958129
0.0776753
0.0851822
0.0807051
0.0736642
0.0827763
0.0611577
0.0835027
0.047552
0.0824418
0.0327562
0.0791197
0.0167816
0.0732869
0.063576
0.199655
0.00354566
0.198975
0.00686235
0.197959
0.0100051
0.19661
0.0130385
0.194934
0.0160225
0.192934
0.0190026
0.190607
0.0220139
0.187952
0.0250867
0.184962
0.0282487
0.18163
0.0315243
0.177947
0.034935
0.173901
0.0384993
0.169482
0.0422329
0.164674
0.0461477
0.159463
0.0502512
0.15383
0.0545447
0.147755
0.0590219
0.14121
0.0636652
0.134161
0.0684423
0.126564
0.0733005
0.118358
0.0781593
0.109465
0.0829007
0.0997821
0.0873584
0.0891825
0.0913046
0.0775202
0.0944386
0.0646427
0.0963802
0.0504133
0.0966711
0.034765
0.0947679
0.0177881
0.0902638
0.0813641
0.199664
0.00388148
0.199006
0.00752015
0.19803
0.0109813
0.196739
0.01433
0.195137
0.0176245
0.193227
0.0209124
0.191009
0.0242317
0.18848
0.0276153
0.185636
0.0310927
0.182471
0.03469
0.178975
0.0384304
0.17514
0.0423343
0.170954
0.0464189
0.166404
0.0506982
0.161473
0.0551824
0.156141
0.0598763
0.150384
0.0647785
0.144171
0.0698785
0.137459
0.0751543
0.130192
0.0805675
0.122294
0.0860576
0.113662
0.0915325
0.104163
0.0968575
0.0936282
0.101839
0.0818587
0.106208
0.0686435
0.109595
0.0537966
0.111518
0.0372324
0.111332
0.0190811
0.108415
0.100445
0.199677
0.00420426
0.199047
0.00815038
0.198116
0.0119126
0.196887
0.0155582
0.195367
0.0191454
0.193556
0.022723
0.191456
0.0263315
0.189065
0.0300061
0.18638
0.0337779
0.183395
0.0376748
0.180104
0.0417217
0.176498
0.0459405
0.172566
0.0503506
0.168296
0.0549685
0.163671
0.0598074
0.158671
0.0648768
0.153268
0.0701814
0.147426
0.0757198
0.141098
0.0814824
0.134217
0.0874488
0.126692
0.0935826
0.1184
0.0998242
0.109178
0.10608
0.0988127
0.112204
0.0870451
0.117976
0.0735823
0.123058
0.0581414
0.126959
0.0405462
0.128927
0.0208981
0.128063
0.121343
0.199693
0.00451133
0.199095
0.00874875
0.198213
0.0127942
0.197053
0.0167179
0.19562
0.0205788
0.193916
0.0244268
0.191943
0.0283045
0.1897
0.032249
0.187185
0.0362929
0.184394
0.0404657
0.181322
0.0447939
0.177962
0.049301
0.174304
0.0540086
0.170336
0.0589358
0.166044
0.0640996
0.161406
0.0695144
0.156396
0.075192
0.150974
0.0811412
0.14509
0.0873669
0.13867
0.0938687
0.131614
0.100638
0.123784
0.107655
0.114989
0.114875
0.104975
0.122219
0.0934099
0.12954
0.0798883
0.13658
0.0639584
0.142889
0.0452268
0.147659
0.0236069
0.149683
0.14495
0.199711
0.00480063
0.199148
0.00931175
0.19832
0.0136218
0.197234
0.0178041
0.195894
0.0219189
0.194303
0.0260171
0.192465
0.030143
0.190379
0.0343351
0.188044
0.0386276
0.185459
0.0430513
0.182619
0.0476339
0.179519
0.0524007
0.176152
0.0573753
0.172509
0.0625795
0.168574
0.0680337
0.164331
0.0737578
0.159752
0.0797708
0.154801
0.0860921
0.149427
0.0927414
0.143556
0.0997394
0.137086
0.107108
0.129872
0.114869
0.121708
0.123039
0.112305
0.131622
0.101262
0.140584
0.0880327
0.149809
0.07191
0.159012
0.0520745
0.167494
0.0278781
0.17388
0.172828
0.19973
0.00507055
0.199205
0.00983651
0.198435
0.0143918
0.197427
0.0188128
0.196185
0.0231609
0.194714
0.0274883
0.193016
0.0318403
0.191094
0.0362569
0.188949
0.0407734
0.186578
0.0454216
0.183982
0.0502304
0.181156
0.0552266
0.178096
0.0604353
0.174795
0.0658808
0.171241
0.0715869
0.167421
0.0775781
0.163312
0.0838804
0.158881
0.0905227
0.154084
0.0975388
0.148853
0.104969
0.143096
0.112866
0.136673
0.121292
0.129384
0.130328
0.120931
0.140075
0.11087
0.150645
0.098527
0.162152
0.082883
0.174656
0.0624177
0.18796
0.0351119
0.201185
0.20794
0.199751
0.00531984
0.199266
0.0103207
0.198557
0.0151012
0.19763
0.0197403
0.19649
0.0243007
0.195143
0.0288355
0.193592
0.0333911
0.19184
0.0380083
0.18989
0.0427234
0.187743
0.0475688
0.185399
0.0525744
0.182858
0.0577679
0.180117
0.0631758
0.177174
0.0688242
0.174021
0.0747397
0.170649
0.0809504
0.167041
0.0874878
0.163175
0.0943887
0.159016
0.101698
0.154512
0.109473
0.149589
0.117789
0.144136
0.126745
0.137983
0.136481
0.130873
0.147185
0.12239
0.159128
0.11184
0.172702
0.097992
0.188503
0.0785086
0.207443
0.0486396
0.231054
0.25658
0.199772
0.00554752
0.19933
0.0107626
0.198684
0.0157476
0.19784
0.0205838
0.196806
0.0253351
0.195587
0.0300552
0.194186
0.0347912
0.19261
0.0395845
0.190862
0.0444721
0.188944
0.0494868
0.186859
0.0546588
0.18461
0.0600166
0.182199
0.0655874
0.179625
0.0713982
0.176887
0.0774774
0.173982
0.0838556
0.170902
0.0905676
0.167636
0.0976552
0.164163
0.10517
0.160456
0.11318
0.15647
0.121775
0.152139
0.131076
0.147362
0.141257
0.141982
0.152566
0.135733
0.165377
0.128145
0.18029
0.118277
0.198371
0.103877
0.221843
0.0776383
0.257293
0.334218
0.00382819
-0.00382819
0.0074843
-0.00365611
0.0105
-0.0030157
0.0128485
-0.00234847
0.0145994
-0.00175088
0.0158303
-0.00123098
0.0166106
-0.000780271
0.0170026
-0.00039195
0.0170722
-6.96915e-05
0.0168646
0.000207688
0.0164506
0.00041393
0.0158854
0.000565267
0.0152187
0.000666658
0.0144994
0.000719277
0.0137731
0.000726354
0.0130794
0.000693643
0.0124495
0.000629934
0.0119036
0.000545912
0.01145
0.000453541
0.0110854
0.000364678
0.0107967
0.00028864
0.0105664
0.000230303
0.0103769
0.000189496
0.0102147
0.000162211
0.0100713
0.000143373
0.0099416
0.000129743
0.00982103
0.000120571
0.00970465
0.000116384
0.00958937
0.00011528
9.58439e-05
0.00354882
-0.00737702
0.00696238
-0.00706967
0.00984298
-0.00589629
0.0121763
-0.00468179
0.0140315
-0.0036061
0.0154798
-0.00267928
0.0165824
-0.00188283
0.0173899
-0.00119943
0.0179341
-0.000613915
0.0182538
-0.000111979
0.018355
0.000312712
0.0182827
0.000637536
0.0180881
0.0008613
0.0178196
0.000987738
0.0175232
0.00102279
0.0172389
0.000977908
0.0169975
0.000871334
0.0168188
0.000724647
0.0167103
0.000562012
0.0166678
0.000407196
0.0166781
0.000278348
0.0167238
0.000184593
0.0167881
0.000125147
0.0168589
9.14834e-05
0.0169293
7.29365e-05
0.0169961
6.2919e-05
0.0170569
5.97526e-05
0.0171089
6.44613e-05
0.0171489
7.52386e-05
8.49384e-05
0.00301146
-0.0103885
0.00581707
-0.00987527
0.00815015
-0.00822938
0.0100394
-0.00657106
0.0115561
-0.00512283
0.012759
-0.00388211
0.0136959
-0.0028198
0.0144077
-0.00191116
0.0149343
-0.00114057
0.0153198
-0.000497483
0.0155921
4.04067e-05
0.0157317
0.000498028
0.0157766
0.000816374
0.0157613
0.00100298
0.0157194
0.00106473
0.0156792
0.00101815
0.0156622
0.000888329
0.0156817
0.000705059
0.0157415
0.000502225
0.015835
0.000313679
0.0159486
0.000164841
0.0160639
6.92296e-05
0.0161648
2.4243e-05
0.0162444
1.19083e-05
0.0163063
1.10171e-05
0.0163587
1.05047e-05
0.0164093
9.17196e-06
0.0164604
1.3395e-05
0.0165065
2.90774e-05
6.32609e-05
0.00241869
-0.0128072
0.00450614
-0.0119627
0.00617032
-0.00989356
0.00750645
-0.00790719
0.00858511
-0.00620149
0.00944939
-0.00474639
0.0101322
-0.00350262
0.0106587
-0.00243769
0.0110538
-0.00153563
0.0113486
-0.000792276
0.0115732
-0.000184216
0.0117445
0.000326699
0.0118484
0.000712509
0.0119086
0.000942814
0.0119489
0.00102444
0.0119856
0.000981407
0.0120298
0.000844148
0.0120871
0.000647748
0.0121558
0.00043356
0.0122259
0.000243597
0.0122851
0.00010558
0.0123212
3.31238e-05
0.0123248
2.0619e-05
0.0122947
4.20096e-05
0.0122385
6.72295e-05
0.0121651
8.39574e-05
0.0120845
8.97658e-05
0.0120024
9.54568e-05
0.0119189
0.000112616
0.000139823
0.00173061
-0.0145378
0.00301716
-0.0132493
0.00393923
-0.0108156
0.00465682
-0.00862478
0.005231
-0.00677567
0.00569156
-0.00520695
0.00606073
-0.00387178
0.00635119
-0.00272816
0.00657411
-0.00175854
0.00674776
-0.000965925
0.00690948
-0.000345941
0.00705131
0.000184867
0.00712282
0.000641004
0.00715804
0.00090759
0.00716947
0.00101301
0.00716093
0.000989946
0.00713381
0.000871266
0.00708893
0.000692628
0.00702451
0.000497985
0.00693287
0.000335228
0.00681089
0.000227561
0.00665448
0.000189535
0.00645884
0.000216264
0.00621539
0.000285459
0.00592965
0.000352964
0.00561632
0.000397296
0.00529103
0.000415047
0.00496651
0.000419979
0.00466048
0.000418647
0.000370555
0.000947428
-0.0154852
0.00134499
-0.0136468
0.00147504
-0.0109457
0.00152363
-0.00867337
0.00152348
-0.00677551
0.00150352
-0.005187
0.00147905
-0.00384731
0.00146162
-0.00271074
0.00146077
-0.00175769
0.00149229
-0.000997442
0.00152476
-0.000378408
0.00150505
0.000204572
0.00143729
0.000708773
0.001318
0.00102688
0.00114855
0.00118246
0.000915659
0.00122284
0.000608696
0.00117823
0.000226074
0.00107525
-0.00021293
0.000936989
-0.000677528
0.000799826
-0.00114362
0.000693657
-0.0015867
0.00063261
-0.00198646
0.000616024
-0.00233569
0.000634688
-0.00264543
0.000662706
-0.00292953
0.000681398
-0.00320012
0.00068563
-0.00345971
0.00067957
-0.00369291
0.000651853
0.000572237
-2.46698e-05
-0.0154605
-0.000516438
-0.0131551
-0.001199
-0.0102631
-0.0018868
-0.00798556
-0.00254478
-0.00611754
-0.00314139
-0.00459038
-0.00365903
-0.00332967
-0.00409577
-0.002274
-0.00448205
-0.00137141
-0.00488499
-0.000594506
-0.00532751
6.41122e-05
-0.00569827
0.000575336
-0.00594619
0.000956691
-0.006183
0.00126369
-0.00646011
0.00145958
-0.00678644
0.00154916
-0.00715805
0.00154984
-0.00756481
0.00148201
-0.00799764
0.00136981
-0.0084432
0.00124539
-0.00888574
0.00113619
-0.00930849
0.00105536
-0.00969468
0.00100222
-0.010028
0.000967971
-0.010305
0.000939728
-0.0105338
0.000910257
-0.0107283
0.000880097
-0.0108976
0.000848872
-0.0110462
0.000800468
0.000735725
-0.000988923
-0.0144716
-0.00250669
-0.0116373
-0.00406655
-0.00870327
-0.0055763
-0.00647582
-0.0069628
-0.00473103
-0.00820726
-0.00334593
-0.0093012
-0.00223573
-0.0102465
-0.00132866
-0.0110631
-0.000554797
-0.0117499
9.22834e-05
-0.0122588
0.000572927
-0.0126347
0.000951321
-0.0129629
0.0012848
-0.0132565
0.0015573
-0.013546
0.00174913
-0.0138502
0.00185339
-0.0141744
0.00187399
-0.0145171
0.00182472
-0.0148768
0.00172954
-0.0152499
0.00161849
-0.0156291
0.00151534
-0.0160018
0.00142809
-0.0163501
0.00135055
-0.0166541
0.00127193
-0.0169014
0.00118707
-0.0170934
0.00110216
-0.017242
0.00102875
-0.0173623
0.000969166
-0.0174732
0.000911401
0.000866474
-0.0021163
-0.0123553
-0.00466167
-0.00909192
-0.00718544
-0.00617951
-0.00951429
-0.00414696
-0.0115643
-0.00268105
-0.0133271
-0.00158306
-0.0148175
-0.000745329
-0.0160574
-8.87712e-05
-0.0170234
0.00041115
-0.0177238
0.000792739
-0.0182633
0.00111239
-0.0187121
0.00140009
-0.0190831
0.00165588
-0.0193984
0.00187254
-0.0196857
0.00203647
-0.0199666
0.00213431
-0.0202517
0.00215901
-0.0205442
0.00211722
-0.0208463
0.00203166
-0.0211601
0.00193236
-0.0214851
0.00184025
-0.0218133
0.00175631
-0.0221277
0.00166501
-0.0224058
0.00154998
-0.0226298
0.00141106
-0.0227965
0.00126887
-0.0229174
0.00114964
-0.0230111
0.00106291
-0.0231011
0.00100136
0.000973179
-0.0034577
-0.00889761
-0.00716254
-0.00538708
-0.0106915
-0.00265059
-0.0137924
-0.001046
-0.0164129
-6.05862e-05
-0.0185031
0.000507162
-0.0201029
0.000854488
-0.0212961
0.00110442
-0.0221994
0.00131442
-0.0229212
0.00151452
-0.0235125
0.00170375
-0.023994
0.0018816
-0.024384
0.00204586
-0.0247064
0.00219493
-0.0249899
0.00231997
-0.0252575
0.00240186
-0.02552
0.00242156
-0.0257803
0.00237749
-0.0260411
0.00229252
-0.0263095
0.00220072
-0.0265919
0.00212271
-0.0268865
0.0020509
-0.0271774
0.00195584
-0.0274381
0.00181071
-0.0276449
0.00161786
-0.0277907
0.00141472
-0.0278888
0.00124767
-0.0279624
0.00113655
-0.0280354
0.00107432
0.00105884
-0.00532957
-0.00356804
-0.0108661
0.000149461
-0.0152695
0.00175276
-0.0186628
0.00234738
-0.0212001
0.00247666
-0.0231231
0.00243019
-0.0246287
0.00236007
-0.02582
0.0022957
-0.0267649
0.00225936
-0.0275176
0.0022672
-0.0281252
0.00231136
-0.0286146
0.00237104
-0.0290045
0.00243575
-0.0293204
0.00251077
-0.0295947
0.00259428
-0.0298528
0.00265994
-0.0301029
0.00267168
-0.0303421
0.00261671
-0.0305709
0.00252134
-0.0308011
0.0024309
-0.0310486
0.00237024
-0.0313189
0.00232117
-0.0315968
0.0022337
-0.0318496
0.00206357
-0.0320446
0.00181282
-0.0321702
0.00154031
-0.032244
0.00132155
-0.0322974
0.00118987
-0.0323537
0.00113065
0.00112493
-0.00793248
0.00436444
-0.0143928
0.0066098
-0.0190804
0.00644037
-0.0225841
0.00585104
-0.025227
0.00511956
-0.0272298
0.00443296
-0.0287628
0.00389307
-0.029952
0.00348488
-0.0308769
0.00318429
-0.0316056
0.00299593
-0.0321942
0.00289999
-0.0326693
0.00284607
-0.0330413
0.00280774
-0.0333343
0.00280382
-0.0335892
0.00284911
-0.0338371
0.0029079
-0.0340813
0.00291587
-0.0343067
0.0028421
-0.034507
0.00272161
-0.0346998
0.00262372
-0.0349148
0.00258525
-0.0351676
0.00257403
-0.0354432
0.00250931
-0.0356988
0.00231912
-0.0358873
0.00200128
-0.0359905
0.00164355
-0.0360344
0.00136541
-0.0360635
0.00121904
-0.0361029
0.00117006
0.00117291
-0.00992928
0.0142937
-0.0176521
0.0143326
-0.0230202
0.0118084
-0.0267173
0.00954815
-0.0293493
0.00775155
-0.031241
0.00632472
-0.0326563
0.00530833
-0.0337519
0.00458053
-0.0345882
0.00402056
-0.0352359
0.00364366
-0.0357697
0.00343378
-0.0362128
0.00328915
-0.0365516
0.0031466
-0.0368019
0.0030541
-0.0370213
0.00306851
-0.037256
0.00314254
-0.0375011
0.00316101
-0.0377193
0.00306032
-0.03789
0.00289233
-0.0380391
0.0027728
-0.0382182
0.00276428
-0.0384583
0.00281421
-0.0387434
0.00279439
-0.0390146
0.00259031
-0.0392029
0.00218961
-0.0392791
0.0017197
-0.0392819
0.0013682
-0.0392799
0.00121708
-0.0393032
0.00119336
0.00120568
-0.0131726
0.0274663
-0.0227105
0.0238706
-0.0281037
0.0172016
-0.0313667
0.0128112
-0.0336815
0.0100664
-0.0352117
0.00785483
-0.0363172
0.00641387
-0.0372258
0.00548915
-0.0379123
0.00470708
-0.0384187
0.00415
-0.0388624
0.00387749
-0.0392678
0.0036946
-0.0395644
0.00344316
-0.0397441
0.00323384
-0.0399016
0.00322592
-0.0401176
0.00335861
-0.0403758
0.00341919
-0.0405975
0.00328197
-0.040734
0.00302885
-0.0408236
0.00286246
-0.0409557
0.0028963
-0.041186
0.00304459
-0.0414948
0.00310317
-0.0417987
0.00289426
-0.0419956
0.00238644
-0.0420366
0.00176069
-0.0419795
0.00131117
-0.0419349
0.00117249
-0.0419461
0.00120452
0.00123102
-0.0187529
0.0462192
-0.0303225
0.0354402
-0.0350373
0.0219163
-0.0366274
0.0144013
-0.0382922
0.0117312
-0.0390834
0.008646
-0.0396013
0.00693183
-0.0403131
0.00620088
-0.0408659
0.00525994
-0.0411518
0.00443586
-0.0414461
0.0041718
-0.0418177
0.00406616
-0.0420731
0.00369859
-0.0421448
0.00330559
-0.0421967
0.00327778
-0.0423904
0.00355231
-0.0426877
0.00371645
-0.0429337
0.00352801
-0.0430265
0.00312165
-0.0430248
0.0028608
-0.043086
0.00295742
-0.0433066
0.00326525
-0.0436568
0.00345334
-0.0440163
0.00325372
-0.0442337
0.00260387
-0.0442268
0.00175382
-0.0440787
0.00116307
-0.043972
0.00106573
-0.0439809
0.0012135
0.00126891
0.207447
0.00576028
0.207034
0.0111752
0.206432
0.0163501
0.205647
0.0213682
0.204688
0.0262942
0.203561
0.0311826
0.202271
0.0360806
0.200826
0.0410302
0.19923
0.0460683
0.197488
0.051228
0.195608
0.0565396
0.193593
0.0620314
0.191449
0.0677308
0.189182
0.0736651
0.186797
0.0798631
0.184297
0.0863558
0.181685
0.0931793
0.178963
0.100377
0.176132
0.108002
0.173189
0.116123
0.170131
0.124833
0.166951
0.134256
0.163646
0.144562
0.160216
0.155996
0.156683
0.16891
0.15314
0.183833
0.149949
0.201562
0.148781
0.223011
0.160404
0.24567
0.25889
0.235732
0.21249
0.00595268
0.212118
0.011548
0.211574
0.0168936
0.210868
0.022074
0.210008
0.0271546
0.209
0.03219
0.207853
0.0372276
0.206574
0.0423093
0.205171
0.0474718
0.203651
0.0527479
0.202023
0.0581675
0.200296
0.0637582
0.19848
0.0695468
0.196586
0.0755597
0.194624
0.0818247
0.192608
0.0883717
0.190553
0.0952348
0.188475
0.102455
0.186396
0.11008
0.184345
0.118175
0.182361
0.126817
0.180506
0.136111
0.178877
0.146191
0.177647
0.157226
0.177136
0.169421
0.177996
0.182973
0.18164
0.197918
0.190665
0.213986
0.206076
0.230259
0.245822
0.219144
0.217658
0.0061226
0.217329
0.011877
0.21685
0.0173723
0.21623
0.0226937
0.215478
0.0279069
0.214602
0.0330665
0.213609
0.0382197
0.212511
0.0434078
0.211316
0.0486671
0.210034
0.0540294
0.208678
0.0595236
0.20726
0.0651761
0.205795
0.0710123
0.204298
0.0770566
0.202788
0.0833344
0.201287
0.0898724
0.199822
0.0967003
0.198424
0.103852
0.197136
0.111368
0.196013
0.119297
0.195134
0.127696
0.194612
0.136634
0.194616
0.146186
0.19541
0.156432
0.197404
0.167428
0.201207
0.17917
0.207589
0.191536
0.217213
0.204362
0.229806
0.217666
0.228875
0.246753
0.222951
0.00626804
0.22267
0.0121582
0.222262
0.0177804
0.221736
0.0232199
0.2211
0.0285424
0.220365
0.033802
0.219539
0.0390452
0.218634
0.0443127
0.217662
0.0496396
0.216635
0.0550565
0.215567
0.0605908
0.214476
0.0662671
0.213381
0.0721081
0.212301
0.0781358
0.211264
0.0843715
0.210299
0.0908373
0.209443
0.0975563
0.208742
0.104554
0.208254
0.111857
0.208055
0.119496
0.208249
0.127502
0.208975
0.135907
0.210427
0.144735
0.212867
0.153992
0.216643
0.163652
0.222174
0.173639
0.229911
0.183799
0.240427
0.193846
0.254641
0.203453
0.210368
0.273148
0.228374
0.00638714
0.228144
0.0123882
0.227812
0.0181129
0.227386
0.0236462
0.226875
0.0290531
0.22629
0.034387
0.225641
0.0396936
0.224942
0.0450123
0.224205
0.0503767
0.223445
0.0558159
0.222681
0.0613551
0.221932
0.0670165
0.22122
0.0728198
0.220572
0.0787833
0.22002
0.0849236
0.219601
0.0912567
0.219359
0.0977979
0.219351
0.104562
0.219645
0.111562
0.22033
0.118811
0.221518
0.126314
0.223355
0.13407
0.226026
0.142064
0.229761
0.150257
0.23484
0.158572
0.241594
0.166886
0.2504
0.174992
0.261708
0.182539
0.27599
0.18917
0.193801
0.292556
0.233929
0.00647822
0.233754
0.0125637
0.233502
0.018365
0.233182
0.0239664
0.232803
0.0294318
0.232376
0.0348135
0.231914
0.0401558
0.23143
0.0454967
0.230939
0.050868
0.230458
0.0562968
0.230007
0.0618057
0.22961
0.067414
0.229291
0.0731382
0.229082
0.0789919
0.229019
0.0849868
0.229144
0.0911321
0.229507
0.0974348
0.23017
0.103899
0.231207
0.110525
0.23271
0.117308
0.23479
0.124234
0.237583
0.131277
0.241254
0.138394
0.245995
0.145516
0.252026
0.152541
0.259591
0.159321
0.268931
0.165652
0.280228
0.171242
0.293577
0.175821
0.178873
0.308505
0.23962
0.00653978
0.239502
0.0126817
0.239334
0.0185328
0.239125
0.0241754
0.238884
0.0296724
0.238623
0.0350744
0.238355
0.0404243
0.238094
0.045758
0.237856
0.0511055
0.237662
0.0564913
0.237532
0.0619355
0.237492
0.0674542
0.23757
0.0730598
0.2378
0.0787617
0.238221
0.0845659
0.238878
0.0904753
0.239824
0.0964888
0.241122
0.102601
0.242847
0.108801
0.245086
0.115069
0.247942
0.121378
0.251535
0.127684
0.256001
0.133928
0.26149
0.140028
0.268157
0.145874
0.276154
0.151324
0.285601
0.156205
0.296543
0.1603
0.308972
0.163392
0.165216
0.322629
0.245448
0.00657056
0.24539
0.01274
0.24531
0.0186126
0.245217
0.0242689
0.245119
0.0297698
0.245029
0.0351643
0.24496
0.0404933
0.244928
0.0457906
0.244949
0.0510839
0.245045
0.0563952
0.245239
0.0617417
0.245557
0.067136
0.24603
0.0725869
0.246693
0.0780992
0.247585
0.0836738
0.248753
0.0893075
0.250249
0.0949923
0.252136
0.100715
0.254482
0.106454
0.257368
0.112183
0.260883
0.117862
0.265126
0.123441
0.2702
0.128853
0.276214
0.134014
0.283267
0.138821
0.291441
0.143151
0.300782
0.146864
0.31128
0.149801
0.322869
0.151804
0.152739
0.335346
0.251418
0.00656954
0.251422
0.0127364
0.251432
0.0186018
0.251458
0.0242436
0.251507
0.0297205
0.251592
0.0350794
0.251726
0.0403591
0.251926
0.0455912
0.252209
0.0508008
0.252597
0.0560074
0.253113
0.0612251
0.253786
0.0664634
0.254645
0.0717273
0.255727
0.0770176
0.25707
0.0823305
0.25872
0.0876575
0.260727
0.0929852
0.263148
0.0982939
0.266045
0.103557
0.269487
0.108741
0.273547
0.113803
0.278301
0.118687
0.283824
0.123329
0.290187
0.127651
0.297446
0.131562
0.305636
0.134961
0.314757
0.137742
0.324765
0.139793
0.335561
0.141007
0.141327
0.346974
0.257532
0.00653598
0.257599
0.0126697
0.257702
0.0184985
0.257849
0.0240971
0.258047
0.0295218
0.25831
0.0348173
0.258649
0.0400199
0.259081
0.0451588
0.259625
0.0502567
0.260303
0.0553302
0.261137
0.0603908
0.262155
0.0654448
0.263389
0.070494
0.264871
0.0755354
0.26664
0.0805615
0.268738
0.0855599
0.27121
0.0905129
0.274107
0.095397
0.277482
0.100182
0.28139
0.104833
0.28589
0.109303
0.291035
0.113542
0.296876
0.117488
0.303453
0.121074
0.310789
0.124225
0.318888
0.126862
0.327723
0.128908
0.337228
0.130288
0.3473
0.130936
0.130831
0.357795
0.263794
0.00646941
0.263925
0.0125389
0.264122
0.0183015
0.264391
0.0238283
0.26474
0.029173
0.265179
0.0343776
0.265723
0.039476
0.266387
0.044495
0.267189
0.0494547
0.26815
0.0543692
0.269293
0.0592473
0.270646
0.0640926
0.272236
0.068904
0.274095
0.0736757
0.27626
0.0783972
0.278766
0.0830533
0.281656
0.0876237
0.28497
0.092083
0.288752
0.0964004
0.293045
0.100539
0.29789
0.104458
0.303325
0.108108
0.309377
0.111436
0.316064
0.114387
0.323387
0.116902
0.331328
0.118922
0.339843
0.120392
0.348864
0.121267
0.35829
0.121509
0.121118
0.368003
0.270207
0.00636965
0.270402
0.0123438
0.270693
0.0180105
0.271084
0.0234371
0.271583
0.0286743
0.272199
0.0337613
0.272945
0.0387297
0.273837
0.0436036
0.274891
0.0484008
0.276127
0.0531329
0.277568
0.0578065
0.279238
0.0624227
0.281163
0.0669782
0.283374
0.071465
0.285901
0.0758706
0.288776
0.0801783
0.292033
0.0843666
0.295706
0.0884099
0.299828
0.092278
0.304431
0.0959366
0.309542
0.0993473
0.31518
0.102469
0.32136
0.105257
0.32808
0.107667
0.335327
0.109654
0.343071
0.111178
0.351261
0.112202
0.359829
0.1127
0.368684
0.112654
0.112076
0.377727
0.276774
0.0062368
0.277033
0.0120846
0.277417
0.0176261
0.27793
0.0229246
0.278577
0.0280274
0.279367
0.0329714
0.280311
0.0377852
0.281424
0.0424906
0.282722
0.0471032
0.284222
0.0516325
0.285946
0.0560829
0.287915
0.0604537
0.290153
0.0647398
0.292686
0.068932
0.29554
0.0730166
0.298742
0.0769764
0.302319
0.08079
0.306296
0.0844327
0.310697
0.0878765
0.315543
0.0910905
0.320849
0.0940415
0.326623
0.0966947
0.332865
0.0990152
0.339563
0.100968
0.346695
0.102523
0.354222
0.103651
0.362094
0.104331
0.370244
0.104549
0.378596
0.104302
0.103607
0.387064
0.283498
0.00607125
0.283821
0.0117621
0.284297
0.0171495
0.284929
0.0222926
0.285721
0.0272355
0.286681
0.032012
0.287817
0.0366483
0.289144
0.041164
0.290675
0.0455724
0.292426
0.0498812
0.294416
0.0540932
0.296663
0.0582062
0.299189
0.0622141
0.302014
0.0661068
0.30516
0.0698705
0.308648
0.0734883
0.312499
0.0769398
0.316729
0.0802023
0.321355
0.0832508
0.326387
0.0860585
0.33183
0.0885977
0.337685
0.0908405
0.34394
0.09276
0.350577
0.0943311
0.357568
0.0955323
0.364871
0.0963467
0.372439
0.0967631
0.38021
0.096778
0.388118
0.0963947
0.0956336
0.396092
0.290384
0.00587363
0.290768
0.0113776
0.291335
0.0165829
0.292083
0.0215443
0.293016
0.0263026
0.29414
0.0308888
0.295461
0.0353265
0.296992
0.0396332
0.298744
0.0438204
0.300731
0.047894
0.302969
0.0518556
0.305473
0.0557022
0.30826
0.0594269
0.311347
0.0630196
0.314751
0.066467
0.318486
0.0697529
0.322567
0.0728589
0.327004
0.0757648
0.331806
0.0784491
0.336975
0.0808893
0.34251
0.0830632
0.348401
0.0849493
0.354633
0.0865277
0.361183
0.0877812
0.368019
0.0886965
0.375101
0.0892644
0.382383
0.0894814
0.389811
0.0893499
0.397328
0.0888782
0.0880875
0.404874
0.297435
0.00564481
0.297879
0.0109327
0.298533
0.0159289
0.299394
0.0206835
0.300463
0.0252339
0.301743
0.0296084
0.303241
0.0338284
0.304966
0.0379091
0.306926
0.0418604
0.309133
0.045687
0.311599
0.0493894
0.314337
0.0529642
0.317359
0.0564044
0.320679
0.0597002
0.324307
0.062839
0.328253
0.0658065
0.332526
0.0685863
0.33713
0.071161
0.342066
0.0735126
0.347332
0.0756233
0.35292
0.0774757
0.358815
0.0790539
0.364998
0.0803441
0.371444
0.0813356
0.37812
0.0820209
0.384987
0.0823968
0.392004
0.0824649
0.399122
0.0822315
0.406293
0.0817073
0.0809134
0.413467
0.304654
0.00538586
0.305157
0.0104297
0.305895
0.0151907
0.306864
0.0197146
0.308063
0.0240354
0.309492
0.0281787
0.311157
0.0321635
0.313063
0.0360033
0.315217
0.0397065
0.317627
0.0432768
0.320303
0.0467141
0.323252
0.0500147
0.326485
0.0531718
0.330008
0.0561766
0.33383
0.0590176
0.337954
0.0616821
0.342384
0.0641564
0.347119
0.0664259
0.352155
0.0684762
0.357485
0.0702934
0.363097
0.0718646
0.368972
0.0731787
0.375089
0.074227
0.381421
0.0750035
0.387936
0.0755053
0.3946
0.0757335
0.401372
0.0756927
0.408212
0.0753916
0.415077
0.0748422
0.0740643
0.421926
0.312046
0.00509798
0.312605
0.00987089
0.313424
0.014372
0.314496
0.0186427
0.315817
0.0227136
0.317388
0.0266077
0.31921
0.0303419
0.321285
0.0339281
0.323618
0.0373732
0.326215
0.0406803
0.32908
0.0438489
0.33222
0.0468752
0.335638
0.0497534
0.33934
0.052475
0.343327
0.0550306
0.3476
0.0574091
0.352157
0.0595992
0.356994
0.0615892
0.362102
0.0633681
0.36747
0.0649253
0.373082
0.066252
0.37892
0.0673409
0.38496
0.0681872
0.391175
0.0687885
0.397535
0.0691454
0.404007
0.0692616
0.410556
0.0691437
0.417146
0.0688015
0.423741
0.0682475
0.0674997
0.430305
0.319615
0.00478251
0.320227
0.00925888
0.321122
0.0134767
0.322292
0.0174731
0.32373
0.0212754
0.325434
0.0249042
0.327401
0.0283742
0.329634
0.0316957
0.332132
0.0348748
0.334899
0.0379139
0.337935
0.0408122
0.341244
0.0435664
0.344826
0.0461711
0.348682
0.0486193
0.35281
0.0509029
0.357206
0.0530127
0.361866
0.0549399
0.366779
0.0566753
0.371937
0.0582106
0.377324
0.0595387
0.382922
0.0606536
0.388712
0.0615512
0.394669
0.0622298
0.400768
0.0626896
0.40698
0.0629334
0.413275
0.0629666
0.419622
0.0627969
0.425989
0.0624346
0.432344
0.0618916
0.0611844
0.43866
0.327365
0.00444081
0.328027
0.00859638
0.328995
0.0125089
0.330257
0.0162113
0.331805
0.0197279
0.333632
0.0230767
0.335736
0.0262705
0.338113
0.0293183
0.340763
0.0322252
0.343683
0.0349931
0.346874
0.0376213
0.350334
0.0401068
0.35406
0.0424451
0.358049
0.0446303
0.362296
0.0466557
0.366794
0.0485143
0.371535
0.050199
0.376508
0.0517031
0.381697
0.0530208
0.387089
0.0541473
0.392663
0.0550794
0.398399
0.0558154
0.404273
0.0563555
0.410261
0.0567019
0.416335
0.0568589
0.422469
0.0568326
0.428635
0.0566315