/*--------------------------------*- C++ -*----------------------------------*\
  =========                 |
  \\      /  F ield         | OpenFOAM: The Open Source CFD Toolbox
   \\    /   O peration     | Website:  https://openfoam.org
    \\  /    A nd           | Version:  dev
     \\/     M anipulation  |
\*---------------------------------------------------------------------------*/
FoamFile
{
    version     2.0;
    format      ascii;
    class       volVectorField;
    location    "8.3";
    object      U;
}
// * * * * * * * * * * * * * * * * * * * * * * * * * * * * * * * * * * * * * //

dimensions      [0 1 -1 0 0 0 0];

internalField   nonuniform List<vector> 
2790
(
(9.94399 0 0.0205233)
(9.87572 0 0.0295879)
(9.77521 0 0.0359899)
(9.64943 0 0.0425568)
(9.50408 0 0.0493862)
(9.34006 0 0.0564294)
(9.15653 0 0.0638173)
(8.95261 0 0.0717134)
(8.72744 0 0.0802575)
(8.48005 0 0.0895764)
(8.20924 0 0.099797)
(7.9136 0 0.11105)
(7.59163 0 0.123466)
(7.24171 0 0.137171)
(6.86224 0 0.15228)
(6.4517 0 0.168879)
(6.00877 0 0.187007)
(5.53256 0 0.206629)
(5.02283 0 0.227601)
(4.48029 0 0.249621)
(3.90699 0 0.272186)
(3.30666 0 0.294533)
(2.68511 0 0.315625)
(2.05046 0 0.334291)
(1.41164 0 0.350607)
(0.797902 0 0.372886)
(0.110523 0 0.324988)
(-0.469573 0 -0.114894)
(-0.453799 0 -0.297127)
(-0.231165 0 -0.423848)
(9.9985 0 0.0407034)
(9.98145 0 0.0623836)
(9.93574 0 0.0791413)
(9.86416 0 0.0966264)
(9.77097 0 0.115126)
(9.65714 0 0.134491)
(9.52204 0 0.154979)
(9.36484 0 0.176948)
(9.18469 0 0.200714)
(8.98064 0 0.226557)
(8.75149 0 0.254753)
(8.49584 0 0.285572)
(8.21215 0 0.319263)
(7.89876 0 0.356038)
(7.55396 0 0.396038)
(7.1761 0 0.439282)
(6.76368 0 0.485613)
(6.31554 0 0.534609)
(5.83112 0 0.585483)
(5.31073 0 0.636973)
(4.756 0 0.68722)
(4.17025 0 0.733658)
(3.55913 0 0.772958)
(2.93139 0 0.801091)
(2.2998 0 0.81374)
(1.69282 0 0.807239)
(1.10703 0 0.747214)
(0.658818 0 0.547883)
(0.186322 0 0.22454)
(-0.00819831 0 -0.453763)
(9.99559 0 0.0432076)
(9.97556 0 0.0752729)
(9.9318 0 0.103348)
(9.86489 0 0.132374)
(9.77778 0 0.163063)
(9.67154 0 0.195403)
(9.54587 0 0.229749)
(9.40012 0 0.266611)
(9.23363 0 0.30648)
(9.04561 0 0.349819)
(8.83506 0 0.397086)
(8.60077 0 0.448739)
(8.3414 0 0.505212)
(8.05544 0 0.566887)
(7.7413 0 0.634037)
(7.39736 0 0.706759)
(7.02201 0 0.784867)
(6.61384 0 0.867754)
(6.17181 0 0.954223)
(5.6955 0 1.04228)
(5.18548 0 1.1289)
(4.6438 0 1.2098)
(4.07464 0 1.27916)
(3.48522 0 1.32933)
(2.8867 0 1.35007)
(2.29934 0 1.3264)
(1.73173 0 1.22072)
(1.21617 0 0.972942)
(0.701085 0 0.570075)
(0.358004 0 -0.15666)
(9.99403 0 0.0495001)
(9.97181 0 0.093208)
(9.92788 0 0.133575)
(9.86224 0 0.174213)
(9.77693 0 0.216438)
(9.67297 0 0.260668)
(9.5503 0 0.307438)
(9.40848 0 0.357426)
(9.247 0 0.411304)
(9.06531 0 0.469721)
(8.86265 0 0.533321)
(8.63815 0 0.602746)
(8.3908 0 0.678618)
(8.11946 0 0.761504)
(7.82293 0 0.851853)
(7.49992 0 0.94991)
(7.14915 0 1.05559)
(6.76933 0 1.16828)
(6.35937 0 1.28664)
(5.91846 0 1.4083)
(5.44638 0 1.52949)
(4.94385 0 1.6447)
(4.41301 0 1.74615)
(3.85811 0 1.82321)
(3.28567 0 1.86134)
(2.70627 0 1.84028)
(2.12553 0 1.72593)
(1.55417 0 1.47778)
(0.957895 0 1.08359)
(0.509407 0 0.502218)
(9.99331 0 0.0572147)
(9.96994 0 0.110961)
(9.92593 0 0.162107)
(9.86145 0 0.213352)
(9.77798 0 0.266363)
(9.67634 0 0.321922)
(9.55653 0 0.380712)
(9.4182 0 0.443501)
(9.26095 0 0.511072)
(9.08431 0 0.58419)
(8.88767 0 0.663611)
(8.67035 0 0.750091)
(8.43154 0 0.844366)
(8.1704 0 0.94712)
(7.88601 0 1.05892)
(7.5774 0 1.18012)
(7.24357 0 1.31073)
(6.8835 0 1.45023)
(6.49616 0 1.59727)
(6.08059 0 1.74936)
(5.63601 0 1.90244)
(5.16196 0 2.05034)
(4.65861 0 2.18418)
(4.12705 0 2.29172)
(3.56925 0 2.35652)
(2.98875 0 2.35726)
(2.38671 0 2.26486)
(1.76629 0 2.04753)
(1.08993 0 1.69126)
(0.536626 0 1.154)
(9.99302 0 0.0655399)
(9.96923 0 0.128704)
(9.92556 0 0.190118)
(9.86253 0 0.251849)
(9.78128 0 0.315586)
(9.68244 0 0.382329)
(9.566 0 0.452887)
(9.4317 0 0.528117)
(9.27918 0 0.608899)
(9.10804 0 0.696107)
(8.91774 0 0.790607)
(8.7077 0 0.893256)
(8.47723 0 1.00489)
(8.22562 0 1.1263)
(7.95208 0 1.25814)
(7.65581 0 1.40086)
(7.33593 0 1.5546)
(6.99153 0 1.71892)
(6.62156 0 1.89261)
(6.22487 0 2.07327)
(5.80013 0 2.25689)
(5.34588 0 2.43723)
(4.86053 0 2.6052)
(4.34252 0 2.7482)
(3.79022 0 2.8495)
(3.20241 0 2.88812)
(2.57643 0 2.83811)
(1.91336 0 2.67146)
(1.17268 0 2.37382)
(0.549935 0 1.89421)
(9.99297 0 0.0740763)
(9.96926 0 0.146317)
(9.92637 0 0.217488)
(9.86508 0 0.289298)
(9.78642 0 0.363364)
(9.69084 0 0.440838)
(9.57834 0 0.522675)
(9.4487 0 0.609829)
(9.30163 0 0.703277)
(9.13676 0 0.803991)
(8.95362 0 0.912932)
(8.75167 0 1.03105)
(8.53029 0 1.15926)
(8.28882 0 1.29845)
(8.02652 0 1.44935)
(7.74261 0 1.61254)
(7.4362 0 1.78825)
(7.10629 0 1.97623)
(6.75168 0 2.17547)
(6.37086 0 2.38388)
(5.96194 0 2.59779)
(5.52246 0 2.81141)
(5.04934 0 3.01616)
(4.53881 0 3.19995)
(3.98646 0 3.34662)
(3.38772 0 3.43587)
(2.73708 0 3.44317)
(2.0361 0 3.34131)
(1.24166 0 3.11335)
(0.563474 0 2.69291)
(9.99306 0 0.0825896)
(9.96981 0 0.163609)
(9.92807 0 0.244055)
(9.86885 0 0.325487)
(9.79312 0 0.409456)
(9.70125 0 0.497219)
(9.59322 0 0.589855)
(9.46887 0 0.688416)
(9.32794 0 0.793964)
(9.17012 0 0.907559)
(8.995 0 1.03025)
(8.80207 0 1.16308)
(8.59077 0 1.30706)
(8.36045 0 1.46315)
(8.11038 0 1.63221)
(7.83973 0 1.81494)
(7.54752 0 2.01174)
(7.23256 0 2.22259)
(6.89337 0 2.44681)
(6.52802 0 2.68276)
(6.13392 0 2.92742)
(5.70766 0 3.17582)
(5.24476 0 3.42038)
(4.73956 0 3.65018)
(4.18525 0 3.85018)
(3.57453 0 4.00078)
(2.89931 0 4.07773)
(2.16194 0 4.05215)
(1.316 0 3.90142)
(0.583166 0 3.53984)
(9.99326 0 0.09093)
(9.97072 0 0.180412)
(9.93046 0 0.269673)
(9.87362 0 0.360249)
(9.80118 0 0.453657)
(9.71343 0 0.551223)
(9.61037 0 0.654129)
(9.49187 0 0.763517)
(9.35775 0 0.880531)
(9.20772 0 1.00631)
(9.04143 0 1.142)
(8.85845 0 1.28871)
(8.65824 0 1.44757)
(8.44017 0 1.61965)
(8.20351 0 1.80594)
(7.94738 0 2.00729)
(7.67069 0 2.22433)
(7.37205 0 2.45737)
(7.04966 0 2.70615)
(6.70112 0 2.96966)
(6.32317 0 3.24574)
(5.91144 0 3.5306)
(5.46013 0 3.8181)
(4.96175 0 4.09898)
(4.40713 0 4.35981)
(3.78612 0 4.58198)
(3.0873 0 4.74088)
(2.31247 0 4.80418)
(1.41048 0 4.74073)
(0.614235 0 4.44152)
(9.99352 0 0.0989939)
(9.97191 0 0.196583)
(9.9334 0 0.294201)
(9.87924 0 0.393424)
(9.8104 0 0.495766)
(9.72716 0 0.602602)
(9.62953 0 0.7152)
(9.51741 0 0.834784)
(9.39068 0 0.962572)
(9.24912 0 1.09978)
(9.09244 0 1.24763)
(8.92026 0 1.40734)
(8.7321 0 1.58012)
(8.52738 0 1.76717)
(8.30538 0 1.96964)
(8.06519 0 2.18857)
(7.80564 0 2.42489)
(7.52519 0 2.67927)
(7.22178 0 2.95203)
(6.89261 0 3.24293)
(6.53384 0 3.55089)
(6.14024 0 3.87358)
(5.70478 0 4.20676)
(5.21818 0 4.5434)
(4.66865 0 4.87239)
(4.04251 0 5.17684)
(3.32333 0 5.43208)
(2.50945 0 5.60163)
(1.54164 0 5.64304)
(0.663949 0 5.41751)
(9.99384 0 0.106706)
(9.9733 0 0.212004)
(9.9368 0 0.317508)
(9.88558 0 0.424864)
(9.82064 0 0.535599)
(9.74225 0 0.651135)
(9.65044 0 0.772806)
(9.54517 0 0.901909)
(9.42637 0 1.03973)
(9.29389 0 1.18755)
(9.14751 0 1.34668)
(8.98692 0 1.51841)
(8.81172 0 1.70405)
(8.6214 0 1.90495)
(8.41527 0 2.1224)
(8.19246 0 2.3577)
(7.9518 0 2.61208)
(7.69168 0 2.88666)
(7.40992 0 3.18242)
(7.10347 0 3.5)
(6.76814 0 3.83961)
(6.39808 0 4.20067)
(5.98525 0 4.58128)
(5.51872 0 4.97739)
(4.98396 0 5.38131)
(4.3628 0 5.77944)
(3.63142 0 6.14889)
(2.77967 0 6.45026)
(1.73311 0 6.62793)
(0.744668 0 6.50238)
(9.9942 0 0.114008)
(9.97487 0 0.226578)
(9.94056 0 0.339479)
(9.89252 0 0.454431)
(9.83173 0 0.572994)
(9.75851 0 0.696623)
(9.67289 0 0.826712)
(9.57488 0 0.964617)
(9.46448 0 1.11168)
(9.34162 0 1.26925)
(9.20615 0 1.4387)
(9.05785 0 1.62139)
(8.89643 0 1.81876)
(8.72144 0 2.03224)
(8.53234 0 2.26333)
(8.32831 0 2.51355)
(8.10828 0 2.78447)
(7.87071 0 3.07771)
(7.61348 0 3.39488)
(7.33356 0 3.73766)
(7.0267 0 4.10763)
(6.68687 0 4.5062)
(6.30554 0 4.93426)
(5.87065 0 5.39156)
(5.36526 0 5.8754)
(4.76629 0 6.37817)
(4.04005 0 6.88298)
(3.1608 0 7.35302)
(2.02422 0 7.72244)
(0.880462 0 7.75609)
(9.99459 0 0.120855)
(9.97657 0 0.240228)
(9.94461 0 0.360013)
(9.89995 0 0.482008)
(9.84356 0 0.607806)
(9.77576 0 0.738896)
(9.69662 0 0.876715)
(9.60623 0 1.02267)
(9.50464 0 1.17815)
(9.39185 0 1.34455)
(9.26781 0 1.5233)
(9.13242 0 1.71584)
(8.98547 0 1.92368)
(8.82667 0 2.14838)
(8.6556 0 2.39159)
(8.47163 0 2.65505)
(8.27386 0 2.94067)
(8.06099 0 3.25051)
(7.83114 0 3.58687)
(7.58162 0 3.95238)
(7.30856 0 4.35006)
(7.00635 0 4.78339)
(6.66682 0 5.25633)
(6.27796 0 5.77315)
(5.82181 0 6.33782)
(5.2717 0 6.95242)
(4.58361 0 7.61344)
(3.70898 0 8.3004)
(2.48732 0 8.95724)
(1.12399 0 9.29173)
(9.99501 0 0.127212)
(9.97838 0 0.252887)
(9.94891 0 0.379026)
(9.9078 0 0.507494)
(9.85599 0 0.639917)
(9.79382 0 0.777815)
(9.72143 0 0.922656)
(9.63894 0 1.07588)
(9.54648 0 1.23892)
(9.44413 0 1.41321)
(9.33196 0 1.60021)
(9.20995 0 1.80142)
(9.07806 0 2.01841)
(8.93614 0 2.25284)
(8.78396 0 2.5065)
(8.62114 0 2.78131)
(8.44704 0 3.07945)
(8.26074 0 3.40338)
(8.06084 0 3.75599)
(7.84529 0 4.14075)
(7.61108 0 4.56196)
(7.35376 0 5.02501)
(7.06671 0 5.53685)
(6.73982 0 6.10647)
(6.35715 0 6.74553)
(5.89308 0 7.4691)
(5.29953 0 8.29627)
(4.50739 0 9.2475)
(3.26734 0 10.3406)
(1.60406 0 11.3567)
(9.99545 0 0.133052)
(9.98026 0 0.264506)
(9.95339 0 0.396446)
(9.91596 0 0.530795)
(9.86888 0 0.669208)
(9.81253 0 0.813225)
(9.74708 0 0.964338)
(9.67272 0 1.12402)
(9.58964 0 1.29371)
(9.49803 0 1.47488)
(9.39804 0 1.669)
(9.28979 0 1.87763)
(9.17338 0 2.10237)
(9.04887 0 2.34494)
(8.91623 0 2.60721)
(8.77537 0 2.89126)
(8.62604 0 3.19944)
(8.46777 0 3.53452)
(8.29985 0 3.89979)
(8.12114 0 4.29935)
(7.92992 0 4.73843)
(7.72364 0 5.22385)
(7.49844 0 5.76485)
(7.24842 0 6.37422)
(6.96407 0 7.07041)
(6.62984 0 7.8812)
(6.21291 0 8.85196)
(5.66381 0 10.0656)
(4.68763 0 11.7297)
(2.68546 0 14.5877)
(0.120509 0 -0.11954)
(0.282995 0 -0.108843)
(0.448862 0 -0.0854965)
(0.587019 0 -0.0628154)
(0.691797 0 -0.0434678)
(0.766767 0 -0.027448)
(0.816691 0 -0.0142672)
(0.845454 0 -0.00349326)
(0.856243 0 0.00505205)
(0.85208 0 0.0108883)
(0.835831 0 0.0146923)
(0.810533 0 0.0170122)
(0.778971 0 0.0180979)
(0.743636 0 0.018102)
(0.706868 0 0.017187)
(0.670821 0 0.0155557)
(0.637308 0 0.0134615)
(0.607643 0 0.0111813)
(0.582551 0 0.00898011)
(0.56214 0 0.00707074)
(0.545963 0 0.00557401)
(0.53321 0 0.00450692)
(0.522948 0 0.00380424)
(0.514363 0 0.00335524)
(0.506887 0 0.00304565)
(0.500177 0 0.00280402)
(0.494 0 0.00261026)
(0.488132 0 0.00246795)
(0.482347 0 0.00233323)
(0.475721 0 0.00185733)
(0.104461 0 -0.281639)
(0.264018 0 -0.26406)
(0.420093 0 -0.214361)
(0.553277 0 -0.164842)
(0.659589 0 -0.122221)
(0.742448 0 -0.0866286)
(0.805944 0 -0.057033)
(0.853295 0 -0.0324716)
(0.886842 0 -0.0122492)
(0.908544 0 0.00409889)
(0.918411 0 0.0164806)
(0.918353 0 0.0252958)
(0.910955 0 0.030892)
(0.89869 0 0.033571)
(0.883935 0 0.0336972)
(0.868872 0 0.0317375)
(0.855316 0 0.0282506)
(0.844563 0 0.0238598)
(0.837299 0 0.0192073)
(0.833589 0 0.0148741)
(0.832954 0 0.0112723)
(0.834577 0 0.00857864)
(0.837549 0 0.00672207)
(0.841106 0 0.00546807)
(0.844755 0 0.00458753)
(0.848254 0 0.00395429)
(0.85148 0 0.00354114)
(0.854309 0 0.0033592)
(0.856537 0 0.00332349)
(0.858318 0 0.00304227)
(0.0840325 0 -0.447006)
(0.223038 0 -0.418323)
(0.349263 0 -0.342283)
(0.456951 0 -0.267334)
(0.543121 0 -0.203219)
(0.611312 0 -0.149799)
(0.664717 0 -0.105518)
(0.705746 0 -0.0689654)
(0.73642 0 -0.0390032)
(0.758348 0 -0.0143534)
(0.775594 0 0.00574356)
(0.785245 0 0.0208848)
(0.789284 0 0.0310314)
(0.789493 0 0.0364369)
(0.787574 0 0.037633)
(0.785087 0 0.035395)
(0.78332 0 0.0306476)
(0.783172 0 0.0244054)
(0.785076 0 0.0177204)
(0.788954 0 0.0115539)
(0.794278 0 0.00657979)
(0.800227 0 0.00310476)
(0.805846 0 0.0010717)
(0.810455 0 0.000129856)
(0.813985 0 -0.000209863)
(0.816772 0 -0.00025448)
(0.819258 0 -0.000114278)
(0.821757 0 0.000217022)
(0.824227 0 0.000737169)
(0.826589 0 0.00140705)
(0.0641262 0 -0.579951)
(0.17665 0 -0.534943)
(0.266111 0 -0.435158)
(0.343369 0 -0.340306)
(0.404197 0 -0.260436)
(0.452963 0 -0.194166)
(0.49178 0 -0.139255)
(0.522107 0 -0.0938393)
(0.545153 0 -0.0566846)
(0.562113 0 -0.0270193)
(0.574318 0 -0.00338049)
(0.584917 0 0.0149009)
(0.591347 0 0.0275729)
(0.595022 0 0.0346478)
(0.597151 0 0.0366002)
(0.598736 0 0.0343592)
(0.6005 0 0.0291079)
(0.602861 0 0.0221479)
(0.605918 0 0.0148454)
(0.609389 0 0.00844955)
(0.612702 0 0.00379078)
(0.615203 0 0.00120307)
(0.616308 0 0.000375371)
(0.615785 0 0.000487099)
(0.61365 0 0.000723453)
(0.610331 0 0.000698044)
(0.606366 0 0.000463636)
(0.602171 0 0.000299493)
(0.59795 0 0.000455583)
(0.593177 0 0.00128732)
(0.0434875 0 -0.68212)
(0.124151 0 -0.615895)
(0.171229 0 -0.495668)
(0.215546 0 -0.387359)
(0.247543 0 -0.29778)
(0.273703 0 -0.223834)
(0.294808 0 -0.162679)
(0.311708 0 -0.112031)
(0.324955 0 -0.0705823)
(0.335049 0 -0.0375637)
(0.342132 0 -0.0112077)
(0.351009 0 0.00978599)
(0.356054 0 0.0243056)
(0.358525 0 0.0323541)
(0.359338 0 0.034698)
(0.359094 0 0.0325464)
(0.357973 0 0.0271853)
(0.355954 0 0.019981)
(0.352978 0 0.0125638)
(0.348897 0 0.00640792)
(0.343374 0 0.00230173)
(0.33639 0 0.000538951)
(0.327929 0 0.000661292)
(0.317215 0 0.00179678)
(0.304064 0 0.00319157)
(0.289028 0 0.00420966)
(0.272872 0 0.00472257)
(0.256349 0 0.0050891)
(0.240269 0 0.00573884)
(0.223626 0 0.00596044)
(0.0216075 0 -0.748123)
(0.0651226 0 -0.65685)
(0.065671 0 -0.519627)
(0.0750243 0 -0.403924)
(0.0748793 0 -0.309547)
(0.074853 0 -0.232362)
(0.0742231 0 -0.169003)
(0.0739255 0 -0.116763)
(0.0742833 0 -0.0742172)
(0.0752769 0 -0.0414729)
(0.0759939 0 -0.0182035)
(0.0783335 0 0.00244116)
(0.075763 0 0.0212738)
(0.0709358 0 0.0320254)
(0.063492 0 0.0361415)
(0.0532609 0 0.0356513)
(0.03961 0 0.032071)
(0.0220641 0 0.0266861)
(0.000376232 0 0.0206814)
(-0.0226888 0 0.0156849)
(-0.0466232 0 0.0124363)
(-0.0697483 0 0.0113323)
(-0.0908452 0 0.0122222)
(-0.10913 0 0.0139437)
(-0.125057 0 0.0155039)
(-0.139359 0 0.0162736)
(-0.152973 0 0.0162355)
(-0.166577 0 0.0158009)
(-0.180029 0 0.014734)
(-0.191482 0 0.0120658)
(-0.00305127 0 -0.771119)
(-0.00196998 0 -0.652588)
(-0.04909 0 -0.503024)
(-0.0784294 0 -0.38583)
(-0.113438 0 -0.291711)
(-0.144171 0 -0.216446)
(-0.171519 0 -0.156098)
(-0.194504 0 -0.107446)
(-0.213519 0 -0.0677523)
(-0.231335 0 -0.0351254)
(-0.253148 0 -0.00800325)
(-0.279884 0 0.0146003)
(-0.289685 0 0.0307307)
(-0.30137 0 0.0408433)
(-0.31462 0 0.0460085)
(-0.330024 0 0.0473063)
(-0.347767 0 0.0457249)
(-0.36758 0 0.0421591)
(-0.389074 0 0.0374816)
(-0.411445 0 0.0326903)
(-0.433989 0 0.0286539)
(-0.455864 0 0.0257441)
(-0.476198 0 0.0239737)
(-0.494028 0 0.022978)
(-0.508972 0 0.0222937)
(-0.521282 0 0.0216021)
(-0.531705 0 0.0208012)
(-0.541065 0 0.0198194)
(-0.549677 0 0.0182542)
(-0.555749 0 0.0160894)
(-0.0338177 0 -0.743839)
(-0.07933 0 -0.600468)
(-0.171534 0 -0.448293)
(-0.244833 0 -0.333677)
(-0.31712 0 -0.244544)
(-0.382068 0 -0.174776)
(-0.439897 0 -0.119619)
(-0.490229 0 -0.0753041)
(-0.533355 0 -0.0387301)
(-0.571015 0 -0.00892594)
(-0.603286 0 0.0134189)
(-0.622374 0 0.0289144)
(-0.639829 0 0.0412691)
(-0.654929 0 0.0507498)
(-0.66941 0 0.0563967)
(-0.684333 0 0.0584417)
(-0.700176 0 0.0574776)
(-0.717015 0 0.0542509)
(-0.734795 0 0.0496966)
(-0.753344 0 0.0448822)
(-0.772388 0 0.0406277)
(-0.791426 0 0.0372227)
(-0.809638 0 0.034512)
(-0.825975 0 0.0321465)
(-0.839608 0 0.0298274)
(-0.850329 0 0.0275355)
(-0.858674 0 0.0254382)
(-0.86562 0 0.0235437)
(-0.871665 0 0.0215518)
(-0.875341 0 0.0197071)
(-0.0708737 0 -0.664301)
(-0.164005 0 -0.500121)
(-0.305121 0 -0.351026)
(-0.423609 0 -0.244557)
(-0.532395 0 -0.166959)
(-0.626679 0 -0.108891)
(-0.706867 0 -0.064059)
(-0.774247 0 -0.0293151)
(-0.830553 0 -0.00239849)
(-0.871423 0 0.0175455)
(-0.900545 0 0.0325074)
(-0.925106 0 0.0444496)
(-0.94526 0 0.0542787)
(-0.96206 0 0.0617771)
(-0.976925 0 0.0665649)
(-0.991076 0 0.0684791)
(-1.00525 0 0.0676593)
(-1.01974 0 0.06461)
(-1.03468 0 0.0602109)
(-1.05019 0 0.0554903)
(-1.06633 0 0.0511745)
(-1.08289 0 0.0474047)
(-1.0992 0 0.0438524)
(-1.11413 0 0.0401147)
(-1.12661 0 0.0361077)
(-1.13615 0 0.0321906)
(-1.14318 0 0.0288488)
(-1.14874 0 0.0262176)
(-1.15337 0 0.0240787)
(-1.1559 0 0.0226286)
(-0.118173 0 -0.527076)
(-0.264981 0 -0.350419)
(-0.458736 0 -0.214496)
(-0.620262 0 -0.124395)
(-0.761933 0 -0.0629824)
(-0.880364 0 -0.021512)
(-0.970895 0 0.00479601)
(-1.03931 0 0.0228315)
(-1.08947 0 0.0356417)
(-1.1296 0 0.0458638)
(-1.16214 0 0.0545477)
(-1.18867 0 0.062034)
(-1.21009 0 0.0682861)
(-1.22756 0 0.0731997)
(-1.24248 0 0.0764985)
(-1.25617 0 0.0777689)
(-1.26941 0 0.0767224)
(-1.28246 0 0.0735713)
(-1.29546 0 0.0691448)
(-1.30869 0 0.064513)
(-1.32258 0 0.0603498)
(-1.33725 0 0.0565721)
(-1.35218 0 0.0525414)
(-1.36616 0 0.0476687)
(-1.3778 0 0.0420094)
(-1.38639 0 0.0363644)
(-1.39233 0 0.0316878)
(-1.39678 0 0.0283431)
(-1.40036 0 0.0261205)
(-1.40218 0 0.0249717)
(-0.186248 0 -0.331756)
(-0.409972 0 -0.154638)
(-0.675212 0 -0.0196597)
(-0.862759 0 0.0362483)
(-1.00632 0 0.0588329)
(-1.11352 0 0.066191)
(-1.19795 0 0.0691847)
(-1.26443 0 0.0709549)
(-1.31702 0 0.072783)
(-1.35891 0 0.0750959)
(-1.39257 0 0.077747)
(-1.41966 0 0.0803667)
(-1.44125 0 0.0826644)
(-1.45851 0 0.084668)
(-1.47304 0 0.0862349)
(-1.48631 0 0.0866887)
(-1.49902 0 0.0852173)
(-1.5112 0 0.0816758)
(-1.52276 0 0.0769166)
(-1.53413 0 0.0722248)
(-1.54613 0 0.0683253)
(-1.55935 0 0.0648501)
(-1.57344 0 0.060679)
(-1.58697 0 0.0548667)
(-1.59813 0 0.0475376)
(-1.60587 0 0.0400294)
(-1.61066 0 0.0339518)
(-1.61395 0 0.0299735)
(-1.61657 0 0.0277463)
(-1.61788 0 0.0268268)
(-0.29855 0 0.0111656)
(-0.584245 0 0.176598)
(-0.85709 0 0.19642)
(-1.0546 0 0.188812)
(-1.20432 0 0.170475)
(-1.31776 0 0.150759)
(-1.40442 0 0.134026)
(-1.47127 0 0.120828)
(-1.52319 0 0.11096)
(-1.56394 0 0.104539)
(-1.59657 0 0.100908)
(-1.62285 0 0.098633)
(-1.64357 0 0.0968203)
(-1.65974 0 0.0957244)
(-1.67322 0 0.0955534)
(-1.68585 0 0.095326)
(-1.69826 0 0.0934506)
(-1.70993 0 0.0892685)
(-1.7203 0 0.0837874)
(-1.72986 0 0.0788131)
(-1.74005 0 0.0753039)
(-1.7521 0 0.0725164)
(-1.76585 0 0.068594)
(-1.7795 0 0.061995)
(-1.79054 0 0.052833)
(-1.79745 0 0.0431523)
(-1.80085 0 0.035525)
(-1.80274 0 0.0310317)
(-1.80436 0 0.0289438)
(-1.80523 0 0.0282203)
(-0.380077 0 0.470235)
(-0.718361 0 0.504762)
(-1.04294 0 0.431639)
(-1.25864 0 0.355297)
(-1.41152 0 0.290404)
(-1.52127 0 0.236653)
(-1.60207 0 0.196788)
(-1.66359 0 0.168144)
(-1.7108 0 0.14677)
(-1.74726 0 0.131925)
(-1.77665 0 0.122649)
(-1.80091 0 0.115996)
(-1.81991 0 0.109987)
(-1.83401 0 0.105511)
(-1.84553 0 0.103749)
(-1.85713 0 0.103373)
(-1.86944 0 0.101452)
(-1.88095 0 0.09645)
(-1.89021 0 0.0897311)
(-1.89772 0 0.084158)
(-1.90583 0 0.0812485)
(-1.91678 0 0.0797279)
(-1.93069 0 0.076598)
(-1.94515 0 0.0693769)
(-1.95653 0 0.0580575)
(-1.96255 0 0.0456505)
(-1.9641 0 0.0361891)
(-1.96417 0 0.031372)
(-1.9647 0 0.0297072)
(-1.9652 0 0.0291889)
(-0.505503 0 0.994357)
(-0.937823 0 0.913498)
(-1.30134 0 0.695923)
(-1.50307 0 0.52012)
(-1.63646 0 0.402207)
(-1.72819 0 0.310739)
(-1.79217 0 0.249966)
(-1.84168 0 0.210741)
(-1.88033 0 0.179583)
(-1.90937 0 0.156012)
(-1.93335 0 0.141721)
(-1.95479 0 0.131713)
(-1.97164 0 0.121617)
(-1.98254 0 0.11347)
(-1.99068 0 0.110581)
(-2.00062 0 0.111263)
(-2.01317 0 0.110092)
(-2.02513 0 0.103979)
(-2.0333 0 0.0950274)
(-2.0381 0 0.0881623)
(-2.04344 0 0.0860662)
(-2.05317 0 0.0866393)
(-2.06781 0 0.0850642)
(-2.08396 0 0.0774208)
(-2.0963 0 0.0634118)
(-2.10129 0 0.0473662)
(-2.10019 0 0.035568)
(-2.09775 0 0.030754)
(-2.09708 0 0.0300702)
(-2.09733 0 0.0298389)
(-0.744746 0 2.03579)
(-1.28343 0 1.59782)
(-1.67321 0 0.994183)
(-1.80649 0 0.605459)
(-1.88224 0 0.471867)
(-1.93769 0 0.364395)
(-1.96912 0 0.29394)
(-2.00092 0 0.249221)
(-2.03106 0 0.203911)
(-2.05047 0 0.167453)
(-2.06582 0 0.152088)
(-2.08356 0 0.144654)
(-2.09831 0 0.132586)
(-2.10465 0 0.119715)
(-2.10726 0 0.114954)
(-2.11465 0 0.117928)
(-2.12835 0 0.118483)
(-2.14198 0 0.11074)
(-2.14909 0 0.0980783)
(-2.14991 0 0.0890621)
(-2.15103 0 0.0884981)
(-2.15907 0 0.0928514)
(-2.17509 0 0.0942347)
(-2.19414 0 0.0866045)
(-2.20828 0 0.0691739)
(-2.21195 0 0.0480603)
(-2.20692 0 0.0330456)
(-2.20083 0 0.0287823)
(-2.19884 0 0.030144)
(-2.19911 0 0.0304612)
(9.9959 0 0.138447)
(9.98225 0 0.27524)
(9.95811 0 0.412528)
(9.92454 0 0.552278)
(9.88242 0 0.696168)
(9.83217 0 0.84575)
(9.774 0 1.00253)
(9.70816 0 1.16799)
(9.63493 0 1.34358)
(9.5546 0 1.53078)
(9.46741 0 1.73107)
(9.37365 0 1.94601)
(9.27357 0 2.17722)
(9.16744 0 2.42645)
(9.0555 0 2.6956)
(8.93796 0 2.98683)
(8.81503 0 3.30257)
(8.68683 0 3.64572)
(8.55344 0 4.01979)
(8.41484 0 4.42917)
(8.27097 0 4.87949)
(8.1217 0 5.37822)
(7.96697 0 5.93553)
(7.80703 0 6.56577)
(7.64305 0 7.29001)
(7.47997 0 8.14082)
(7.33096 0 9.17213)
(7.28584 0 10.4774)
(7.74158 0 12.2014)
(7.91867 0 14.9187)
(9.99638 0 0.143406)
(9.98434 0 0.285095)
(9.96306 0 0.427256)
(9.93352 0 0.571887)
(9.89657 0 0.720682)
(9.85263 0 0.875197)
(9.80198 0 1.03694)
(9.74493 0 1.20739)
(9.68185 0 1.388)
(9.61311 0 1.58023)
(9.53909 0 1.78556)
(9.46021 0 2.00551)
(9.3769 0 2.24171)
(9.28966 0 2.49587)
(9.19899 0 2.76989)
(9.10547 0 3.06587)
(9.00976 0 3.38625)
(8.9126 0 3.73387)
(8.81491 0 4.1122)
(8.71786 0 4.52548)
(8.62306 0 4.97915)
(8.53286 0 5.48024)
(8.45096 0 6.03806)
(8.38362 0 6.66522)
(8.34197 0 7.37895)
(8.34805 0 8.20267)
(8.4406 0 9.16656)
(8.67541 0 10.304)
(9.32105 0 11.5599)
(9.80903 0 12.6512)
(9.99688 0 0.147843)
(9.98651 0 0.293906)
(9.96819 0 0.440405)
(9.94283 0 0.589356)
(9.91121 0 0.742453)
(9.87378 0 0.901249)
(9.83087 0 1.06724)
(9.78285 0 1.24189)
(9.73015 0 1.42662)
(9.67325 0 1.62287)
(9.61265 0 1.83207)
(9.54891 0 2.05572)
(9.48265 0 2.29536)
(9.41455 0 2.55267)
(9.34543 0 2.82943)
(9.27621 0 3.12765)
(9.20797 0 3.4496)
(9.14205 0 3.79792)
(9.08015 0 4.17574)
(9.02447 0 4.58681)
(8.97803 0 5.03574)
(8.9451 0 5.5282)
(8.93196 0 6.0712)
(8.94814 0 6.67314)
(9.00809 0 7.34347)
(9.13394 0 8.09089)
(9.3567 0 8.91734)
(9.68588 0 9.81185)
(10.2515 0 10.7232)
(10.939 0 11.4422)
(9.9974 0 0.151704)
(9.98874 0 0.301567)
(9.97347 0 0.451811)
(9.95239 0 0.604453)
(9.92623 0 0.761182)
(9.89545 0 0.923532)
(9.86042 0 1.09297)
(9.82159 0 1.27094)
(9.77944 0 1.45882)
(9.73454 0 1.65799)
(9.6875 0 1.86983)
(9.63901 0 2.09576)
(9.58987 0 2.33724)
(9.54096 0 2.5958)
(9.49333 0 2.8731)
(9.44822 0 3.17095)
(9.40712 0 3.49135)
(9.37184 0 3.83656)
(9.34469 0 4.20917)
(9.32864 0 4.61215)
(9.32762 0 5.04891)
(9.34692 0 5.5233)
(9.39379 0 6.03946)
(9.47813 0 6.60136)
(9.61315 0 7.2118)
(9.81569 0 7.87049)
(10.1085 0 8.57038)
(10.5004 0 9.29687)
(11.0583 0 10.0399)
(11.8521 0 10.6863)
(9.99792 0 0.154943)
(9.99101 0 0.307985)
(9.97884 0 0.461337)
(9.96212 0 0.617003)
(9.94151 0 0.77665)
(9.91746 0 0.941784)
(9.89041 0 1.11384)
(9.86083 0 1.2942)
(9.82929 0 1.48421)
(9.79643 0 1.68516)
(9.76295 0 1.89836)
(9.72966 0 2.12512)
(9.6975 0 2.36676)
(9.66753 0 2.62467)
(9.641 0 2.9003)
(9.61941 0 3.19519)
(9.60453 0 3.51098)
(9.59854 0 3.84946)
(9.60413 0 4.21255)
(9.62469 0 4.6023)
(9.66453 0 5.02081)
(9.7292 0 5.47011)
(9.82575 0 5.95183)
(9.96317 0 6.46665)
(10.1525 0 7.01353)
(10.4069 0 7.58861)
(10.7436 0 8.18379)
(11.1743 0 8.78439)
(11.7221 0 9.37883)
(12.4761 0 9.8922)
(9.99845 0 0.157517)
(9.9933 0 0.313075)
(9.98427 0 0.468857)
(9.97194 0 0.626838)
(9.9569 0 0.788653)
(9.93962 0 0.955766)
(9.92055 0 1.12956)
(9.90023 0 1.31137)
(9.87926 0 1.50245)
(9.85835 0 1.70402)
(9.83828 0 1.91728)
(9.81995 0 2.1434)
(9.80442 0 2.38356)
(9.79288 0 2.63896)
(9.78673 0 2.91078)
(9.78763 0 3.20025)
(9.79756 0 3.50862)
(9.81886 0 3.83714)
(9.85442 0 4.18703)
(9.90772 0 4.55942)
(9.98304 0 4.95521)
(10.0856 0 5.37489)
(10.2218 0 5.81818)
(10.3991 0 6.28365)
(10.6264 0 6.76805)
(10.9134 0 7.2656)
(11.2713 0 7.76711)
(11.7082 0 8.257)
(12.2249 0 8.71857)
(12.9017 0 9.11027)
(9.99898 0 0.159386)
(9.9956 0 0.316759)
(9.98971 0 0.474258)
(9.98177 0 0.633812)
(9.97229 0 0.79701)
(9.96174 0 0.965267)
(9.9506 0 1.13991)
(9.93943 0 1.32218)
(9.92888 0 1.51326)
(9.9197 0 1.71428)
(9.91274 0 1.9263)
(9.90896 0 2.15035)
(9.90948 0 2.38744)
(9.9156 0 2.63853)
(9.9288 0 2.90454)
(9.95083 0 3.18638)
(9.98371 0 3.48486)
(10.0299 0 3.8007)
(10.0921 0 4.13446)
(10.1738 0 4.48645)
(10.279 0 4.85657)
(10.4121 0 5.24413)
(10.5786 0 5.64754)
(10.7843 0 6.064)
(11.0357 0 6.48903)
(11.3392 0 6.91594)
(11.701 0 7.33537)
(12.1252 0 7.7339)
(12.6058 0 8.09694)
(13.2121 0 8.40391)
(9.99951 0 0.160516)
(9.99789 0 0.318973)
(9.9951 0 0.477442)
(9.99151 0 0.637798)
(9.98753 0 0.801573)
(9.98362 0 0.970116)
(9.98028 0 1.14468)
(9.97808 0 1.32644)
(9.97769 0 1.51646)
(9.9799 0 1.71576)
(9.98559 0 1.92527)
(9.99577 0 2.14587)
(10.0116 0 2.37837)
(10.0344 0 2.62349)
(10.0656 0 2.8819)
(10.1071 0 3.15416)
(10.1608 0 3.44067)
(10.229 0 3.74168)
(10.3145 0 4.05716)
(10.4201 0 4.38675)
(10.5495 0 4.72958)
(10.7063 0 5.08414)
(10.8947 0 5.44803)
(11.1191 0 5.81774)
(11.3837 0 6.18836)
(11.6924 0 6.55332)
(12.0481 0 6.90435)
(12.4521 0 7.23111)
(12.897 0 7.52242)
(13.4408 0 7.76695)
(10 0 0.16088)
(10.0001 0 0.319659)
(10.0004 0 0.478331)
(10.0011 0 0.638697)
(10.0025 0 0.802221)
(10.0051 0 0.970183)
(10.0093 0 1.14375)
(10.0158 0 1.32401)
(10.0252 0 1.51192)
(10.0384 0 1.70837)
(10.0561 0 1.91417)
(10.0795 0 2.13001)
(10.1097 0 2.35651)
(10.1479 0 2.59419)
(10.1957 0 2.84343)
(10.2548 0 3.10447)
(10.327 0 3.37738)
(10.4144 0 3.66197)
(10.5194 0 3.95775)
(10.6447 0 4.26385)
(10.793 0 4.57888)
(10.9673 0 4.90081)
(11.1707 0 5.22687)
(11.406 0 5.55333)
(11.676 0 5.87544)
(11.9824 0 6.18735)
(12.3262 0 6.48216)
(12.707 0 6.75204)
(13.1172 0 6.98862)
(13.6056 0 7.18501)
(10.0005 0 0.160457)
(10.0023 0 0.318777)
(10.0056 0 0.476863)
(10.0104 0 0.636433)
(10.0171 0 0.798873)
(10.0259 0 0.965383)
(10.0375 0 1.13705)
(10.0523 0 1.31483)
(10.0711 0 1.49961)
(10.0946 0 1.69215)
(10.1237 0 1.89308)
(10.1594 0 2.10296)
(10.2028 0 2.32222)
(10.2552 0 2.55116)
(10.3179 0 2.78991)
(10.3925 0 3.03845)
(10.4808 0 3.29654)
(10.5845 0 3.56366)
(10.7056 0 3.83897)
(10.8464 0 4.12126)
(11.0089 0 4.40882)
(11.1955 0 4.6994)
(11.408 0 4.99012)
(11.6485 0 5.2774)
(11.9181 0 5.55694)
(12.2174 0 5.82375)
(12.5461 0 6.07229)
(12.9028 0 6.29665)
(13.2805 0 6.49078)
(13.7209 0 6.65049)
(10.001 0 0.159231)
(10.0044 0 0.316298)
(10.0106 0 0.473)
(10.0194 0 0.630961)
(10.0311 0 0.791483)
(10.0459 0 0.955678)
(10.0645 0 1.12453)
(10.0872 0 1.29892)
(10.1148 0 1.4796)
(10.148 0 1.66719)
(10.1877 0 1.86222)
(10.2347 0 2.06507)
(10.2902 0 2.27599)
(10.3553 0 2.49509)
(10.4312 0 2.72232)
(10.5193 0 2.9574)
(10.6212 0 3.19985)
(10.7383 0 3.44892)
(10.8723 0 3.70355)
(11.0249 0 3.9623)
(11.1976 0 4.22335)
(11.3919 0 4.4844)
(11.6092 0 4.74269)
(11.8503 0 4.99495)
(12.1157 0 5.23745)
(12.405 0 5.46611)
(12.7171 0 5.67656)
(13.0502 0 5.86446)
(13.3981 0 6.02556)
(13.7974 0 6.15731)
(10.0015 0 0.157194)
(10.0065 0 0.312207)
(10.0154 0 0.466723)
(10.028 0 0.622264)
(10.0445 0 0.780042)
(10.065 0 0.941076)
(10.0901 0 1.10626)
(10.1203 0 1.27636)
(10.1561 0 1.45201)
(10.1983 0 1.63373)
(10.2476 0 1.82191)
(10.305 0 2.01677)
(10.3712 0 2.21844)
(10.4475 0 2.42684)
(10.5349 0 2.64174)
(10.6345 0 2.8627)
(10.7476 0 3.08908)
(10.8755 0 3.31994)
(11.0193 0 3.5541)
(11.1804 0 3.79005)
(11.3598 0 4.02594)
(11.5584 0 4.2596)
(11.7769 0 4.48848)
(12.0155 0 4.70972)
(12.274 0 4.92021)
(12.5516 0 5.11666)
(12.8468 0 5.29575)
(13.1576 0 5.45432)
(13.4788 0 5.58942)
(13.8426 0 5.69955)
(10.0019 0 0.154346)
(10.0084 0 0.306503)
(10.0199 0 0.458036)
(10.0362 0 0.610356)
(10.0571 0 0.76458)
(10.083 0 0.921634)
(10.1142 0 1.08231)
(10.1513 0 1.24728)
(10.1947 0 1.41706)
(10.245 0 1.59207)
(10.3031 0 1.77256)
(10.3696 0 1.95864)
(10.4454 0 2.15029)
(10.5313 0 2.34732)
(10.6284 0 2.54935)
(10.7375 0 2.75583)
(10.8597 0 2.96598)
(10.9959 0 3.17879)
(11.147 0 3.39304)
(11.3139 0 3.60722)
(11.4971 0 3.81957)
(11.6971 0 4.02808)
(11.9141 0 4.23053)
(12.1479 0 4.42447)
(12.3979 0 4.60736)
(12.6631 0 4.77663)
(12.9417 0 4.92978)
(13.2319 0 5.06454)
(13.5291 0 5.17891)
(13.8624 0 5.27204)
(10.0024 0 0.150692)
(10.0102 0 0.299201)
(10.0241 0 0.446962)
(10.0438 0 0.595276)
(10.0689 0 0.745161)
(10.0997 0 0.897448)
(10.1366 0 1.05283)
(10.18 0 1.21189)
(10.2302 0 1.37504)
(10.288 0 1.54257)
(10.3538 0 1.71466)
(10.4284 0 1.8913)
(10.5124 0 2.07236)
(10.6066 0 2.25753)
(10.7117 0 2.44637)
(10.8285 0 2.63822)
(10.9577 0 2.83226)
(11.1001 0 3.02745)
(11.2561 0 3.22257)
(11.4263 0 3.4162)
(11.611 0 3.60673)
(11.8103 0 3.79235)
(12.0239 0 3.97117)
(12.2515 0 4.14115)
(12.4921 0 4.30027)
(12.7446 0 4.44653)
(13.0074 0 4.5781)
(13.2786 0 4.69335)
(13.5544 0 4.79096)
(13.8613 0 4.8705)
(10.0027 0 0.146245)
(10.0119 0 0.290324)
(10.0281 0 0.433545)
(10.0508 0 0.577091)
(10.0798 0 0.721882)
(10.1152 0 0.868657)
(10.1572 0 1.01802)
(10.2063 0 1.17044)
(10.2627 0 1.32626)
(10.327 0 1.48568)
(10.3996 0 1.64876)
(10.4811 0 1.81543)
(10.5721 0 1.98546)
(10.6731 0 2.15849)
(10.7847 0 2.334)
(10.9075 0 2.51129)
(11.042 0 2.68952)
(11.1886 0 2.86769)
(11.3476 0 3.04464)
(11.5193 0 3.21904)
(11.7036 0 3.38947)
(11.9004 0 3.55437)
(12.1093 0 3.71213)
(12.3297 0 3.86112)
(12.5605 0 3.99972)
(12.8006 0 4.12643)
(13.0484 0 4.2399)
(13.3023 0 4.33901)
(13.5591 0 4.42288)
(13.8429 0 4.49136)
(10.0031 0 0.141024)
(10.0134 0 0.279913)
(10.0317 0 0.417847)
(10.0573 0 0.555892)
(10.0898 0 0.694871)
(10.1293 0 0.835432)
(10.1759 0 0.978091)
(10.23 0 1.12323)
(10.2919 0 1.27112)
(10.3619 0 1.42186)
(10.4403 0 1.57545)
(10.5277 0 1.73175)
(10.6245 0 1.89047)
(10.731 0 2.0512)
(10.8477 0 2.21339)
(10.975 0 2.37635)
(11.1131 0 2.53924)
(11.2623 0 2.70112)
(11.4227 0 2.86092)
(11.5943 0 3.01745)
(11.7769 0 3.16947)
(11.9701 0 3.31566)
(12.1734 0 3.45469)
(12.3859 0 3.58525)
(12.6069 0 3.7061)
(12.835 0 3.8161)
(13.0689 0 3.91428)
(13.3071 0 3.99988)
(13.5469 0 4.07234)
(13.8106 0 4.13167)
(10.0034 0 0.135051)
(10.0148 0 0.268015)
(10.035 0 0.399943)
(10.0632 0 0.531788)
(10.0988 0 0.664278)
(10.142 0 0.797975)