/*--------------------------------*- C++ -*----------------------------------*\
  =========                 |
  \\      /  F ield         | OpenFOAM: The Open Source CFD Toolbox
   \\    /   O peration     | Website:  https://openfoam.org
    \\  /    A nd           | Version:  dev
     \\/     M anipulation  |
\*---------------------------------------------------------------------------*/
FoamFile
{
    version     2.0;
    format      ascii;
    class       surfaceVectorField;
    location    "8.3";
    object      Uf;
}
// * * * * * * * * * * * * * * * * * * * * * * * * * * * * * * * * * * * * * //

dimensions      [0 1 -1 0 0 0 0];

internalField   nonuniform List<vector> 
5457
(
(9.92088 0 0.0251098)
(9.97125 0 0.038746)
(9.82401 0 0.0328272)
(9.92859 0 0.0485857)
(9.70961 0 0.0393126)
(9.85547 0 0.058769)
(9.57543 0 0.0460123)
(9.7568 0 0.0705946)
(9.42137 0 0.0529499)
(9.63753 0 0.0830151)
(9.24753 0 0.0601675)
(9.4986 0 0.0959387)
(9.0536 0 0.0678125)
(9.33929 0 0.109615)
(8.8389 0 0.0760365)
(9.15872 0 0.124292)
(8.60249 0 0.0849726)
(8.95607 0 0.140171)
(8.34323 0 0.0947478)
(8.73035 0 0.157438)
(8.0598 0 0.105491)
(8.48036 0 0.176276)
(7.75075 0 0.117332)
(8.20472 0 0.196864)
(7.41449 0 0.1304)
(7.90189 0 0.21937)
(7.04942 0 0.144816)
(7.57023 0 0.243932)
(6.65394 0 0.160678)
(7.2081 0 0.270643)
(6.22661 0 0.178051)
(6.8139 0 0.299512)
(5.76631 0 0.196935)
(6.38622 0 0.330426)
(5.27245 0 0.21724)
(5.92405 0 0.363096)
(4.74524 0 0.238742)
(5.42697 0 0.396987)
(4.18606 0 0.261038)
(4.89551 0 0.431247)
(3.59782 0 0.283493)
(4.33149 0 0.464627)
(2.98541 0 0.305205)
(3.73846 0 0.495429)
(2.35597 0 0.32507)
(3.12212 0 0.521513)
(1.71897 0 0.342547)
(2.49092 0 0.540554)
(1.08422 0 0.36188)
(1.85572 0 0.551666)
(0.451714 0 0.348651)
(1.24536 0 0.563013)
(-0.145914 0 0.102419)
(0.608779 0 0.544838)
(-0.423647 0 -0.207099)
(0.0946222 0 0.259325)
(-0.402165 0 -0.361245)
(-0.133738 0 -0.0205437)
(-0.119682 0 -0.393896)
(9.99641 0 0.051673)
(9.99705 0 0.0405051)
(9.95879 0 0.0708626)
(9.97851 0 0.0674555)
(9.89824 0 0.0879884)
(9.93377 0 0.0898717)
(9.81658 0 0.105987)
(9.86453 0 0.113557)
(9.71358 0 0.124924)
(9.77437 0 0.138518)
(9.58907 0 0.144857)
(9.66434 0 0.16465)
(9.44273 0 0.166095)
(9.53396 0 0.192337)
(9.27388 0 0.188973)
(9.38248 0 0.222037)
(9.08163 0 0.21379)
(9.20916 0 0.254157)
(8.86486 0 0.240824)
(9.01313 0 0.289074)
(8.62225 0 0.270347)
(8.79327 0 0.327165)
(8.35233 0 0.302619)
(8.54831 0 0.368801)
(8.05349 0 0.33787)
(8.27677 0 0.414333)
(7.72404 0 0.376277)
(7.9771 0 0.464065)
(7.36228 0 0.417918)
(7.64763 0 0.51821)
(6.96662 0 0.462725)
(7.28673 0 0.576829)
(6.53571 0 0.510404)
(6.89284 0 0.639749)
(6.0687 0 0.56035)
(6.46469 0 0.706451)
(5.56545 0 0.611536)
(6.00146 0 0.775931)
(5.02695 0 0.662397)
(5.50312 0 0.846543)
(4.45572 0 0.710717)
(4.97074 0 0.915821)
(3.85634 0 0.753543)
(4.40703 0 0.980315)
(3.23604 0 0.787193)
(3.81688 0 1.03546)
(2.60567 0 0.807491)
(3.20831 0 1.07548)
(1.98266 0 0.810451)
(2.59325 0 1.09313)
(1.40517 0 0.776868)
(1.99608 0 1.07705)
(0.929649 0 0.646357)
(1.41938 0 0.978358)
(0.43976 0 0.38428)
(0.937494 0 0.716744)
(0.0591254 0 -0.118664)
(0.443704 0 0.343459)
(0.174903 0 -0.335986)
(9.98903 0 0.0594319)
(9.99481 0 0.0458782)
(9.95434 0 0.0894782)
(9.97368 0 0.0848558)
(9.89729 0 0.118034)
(9.92984 0 0.119176)
(9.82046 0 0.147902)
(9.86357 0 0.15398)
(9.72415 0 0.179426)
(9.77735 0 0.190413)
(9.6082 0 0.212781)
(9.67226 0 0.228643)
(9.47233 0 0.2484)
(9.54809 0 0.269137)
(9.31605 0 0.286783)
(9.4043 0 0.312506)
(9.13866 0 0.328408)
(9.24032 0 0.359337)
(8.93921 0 0.373735)
(9.05546 0 0.410188)
(8.7166 0 0.423221)
(8.84885 0 0.465615)
(8.46955 0 0.477313)
(8.61946 0 0.526172)
(8.19661 0 0.536418)
(8.3661 0 0.592394)
(7.89625 0 0.600863)
(8.08745 0 0.664762)
(7.56683 0 0.670833)
(7.78212 0 0.743644)
(7.20673 0 0.74628)
(7.44864 0 0.829217)
(6.81445 0 0.826806)
(7.08558 0 0.921347)
(6.38875 0 0.911505)
(6.69159 0 1.01943)
(5.9289 0 0.998778)
(6.26559 0 1.1222)
(5.435 0 1.08611)
(5.80698 0 1.22745)
(4.9084 0 1.16984)
(5.31593 0 1.33176)
(4.35228 0 1.2449)
(4.79383 0 1.4302)
(3.77244 0 1.30454)
(4.24382 0 1.51588)
(3.17859 0 1.33982)
(3.67167 0 1.57941)
(2.5865 0 1.33809)
(3.08619 0 1.60772)
(2.01975 0 1.27293)
(2.5028 0 1.58154)
(1.48685 0 1.09535)
(1.92863 0 1.46419)
(0.958231 0 0.769102)
(1.38517 0 1.21033)
(0.479839 0 0.202365)
(0.82949 0 0.800949)
(0.433706 0 0.133986)
(9.98515 0 0.0716152)
(9.99367 0 0.0531489)
(9.95039 0 0.113633)
(9.97087 0 0.102293)
(9.89436 0 0.154137)
(9.9269 0 0.147957)
(9.81882 0 0.195578)
(9.86185 0 0.193726)
(9.72441 0 0.238817)
(9.77746 0 0.241284)
(9.61111 0 0.284332)
(9.67466 0 0.291172)
(9.47873 0 0.332731)
(9.55342 0 0.343966)
(9.32693 0 0.384687)
(9.41334 0 0.400385)
(9.1552 0 0.440861)
(9.25398 0 0.461155)
(8.96288 0 0.501901)
(9.07481 0 0.526979)
(8.74912 0 0.568448)
(8.87516 0 0.598557)
(8.51299 0 0.641135)
(8.65425 0 0.676587)
(8.2534 0 0.720556)
(8.41117 0 0.761749)
(7.96918 0 0.807219)
(8.14493 0 0.854668)
(7.65909 0 0.901468)
(7.85447 0 0.955853)
(7.32182 0 1.00338)
(7.53866 0 1.0656)
(6.9561 0 1.1126)
(7.19636 0 1.18388)
(6.56072 0 1.22817)
(6.82641 0 1.31012)
(6.13476 0 1.3482)
(6.42776 0 1.44295)
(5.6777 0 1.46962)
(5.99953 0 1.57993)
(5.18985 0 1.58779)
(5.5412 0 1.7171)
(4.67272 0 1.69603)
(5.0529 0 1.84855)
(4.12965 0 1.78514)
(4.53581 0 1.96583)
(3.56651 0 1.8425)
(3.99258 0 2.05728)
(2.99192 0 1.85068)
(3.42746 0 2.1071)
(2.41573 0 1.78242)
(2.84751 0 2.09442)
(1.84045 0 1.60037)
(2.25612 0 1.98865)
(1.25932 0 1.27833)
(1.66023 0 1.75294)
(0.666743 0 0.789432)
(1.02391 0 1.36764)
(0.523016 0 0.78702)
(9.98337 0 0.084409)
(9.99316 0 0.0612926)
(9.94821 0 0.13684)
(9.96958 0 0.119929)
(9.89314 0 0.188036)
(9.92574 0 0.176244)
(9.81906 0 0.240174)
(9.86199 0 0.232703)
(9.72662 0 0.294475)
(9.77963 0 0.291094)
(9.61589 0 0.351669)
(9.67939 0 0.352283)
(9.4867 0 0.412482)
(9.56126 0 0.416989)
(9.33877 0 0.477691)
(9.42495 0 0.486023)
(9.17168 0 0.548068)
(9.27007 0 0.560222)
(8.98489 0 0.624375)
(9.09617 0 0.640407)
(8.77774 0 0.707367)
(8.90271 0 0.727392)
(8.54948 0 0.797792)
(8.68902 0 0.821985)
(8.29929 0 0.896357)
(8.45439 0 0.924974)
(8.02627 0 1.00369)
(8.19801 0 1.03709)
(7.72949 0 1.12024)
(7.91904 0 1.15895)
(7.40795 0 1.2462)
(7.6166 0 1.29097)
(7.06066 0 1.38131)
(7.28975 0 1.43319)
(6.68657 0 1.52462)
(6.93751 0 1.58515)
(6.28472 0 1.67422)
(6.55886 0 1.74555)
(5.85424 0 1.82682)
(6.15273 0 1.91192)
(5.39455 0 1.97727)
(5.71807 0 2.08019)
(4.9056 0 2.11806)
(5.25392 0 2.2441)
(4.38809 0 2.23859)
(4.75957 0 2.3946)
(3.84379 0 2.32451)
(4.23479 0 2.51917)
(3.2753 0 2.35689)
(3.67973 0 2.60119)
(2.68527 0 2.31051)
(3.09558 0 2.61962)
(2.07259 0 2.1549)
(2.48157 0 2.54721)
(1.42931 0 1.86727)
(1.83983 0 2.35358)
(0.742576 0 1.41942)
(1.13131 0 2.02436)
(0.543281 0 1.51433)
(9.98264 0 0.0974995)
(9.99299 0 0.0697941)
(9.94744 0 0.159778)
(9.96925 0 0.137586)
(9.89354 0 0.221352)
(9.92597 0 0.203931)
(9.82133 0 0.284098)
(9.8638 0 0.270694)
(9.73133 0 0.349356)
(9.78385 0 0.33959)
(9.62366 0 0.41803)
(9.68664 0 0.411707)
(9.49818 0 0.490952)
(9.57217 0 0.487916)
(9.35463 0 0.568991)
(9.4402 0 0.569121)
(9.19267 0 0.653024)
(9.29041 0 0.656254)
(9.0118 0 0.743922)
(9.1224 0 0.750238)
(8.81147 0 0.842545)
(8.93568 0 0.851986)
(8.59104 0 0.949742)
(8.72968 0 0.9624)
(8.34979 0 1.06632)
(8.50376 0 1.08236)
(8.08699 0 1.19301)
(8.25722 0 1.21269)
(7.80184 0 1.33035)
(7.9893 0 1.35409)
(7.4935 0 1.47865)
(7.69921 0 1.50708)
(7.16108 0 1.63774)
(7.38607 0 1.67182)
(6.8036 0 1.8068)
(7.04891 0 1.84797)
(6.41997 0 1.98402)
(6.68662 0 2.03441)
(6.00898 0 2.16618)
(6.29786 0 2.22889)
(5.56925 0 2.34813)
(5.88103 0 2.42752)
(5.09929 0 2.52222)
(5.43417 0 2.62428)
(4.59757 0 2.67756)
(4.95494 0 2.8103)
(4.06253 0 2.79945)
(4.44067 0 2.9732)
(3.49254 0 2.86904)
(3.88834 0 3.09657)
(2.88569 0 2.86282)
(3.29507 0 3.15981)
(2.2379 0 2.75379)
(2.65676 0 3.13778)
(1.54236 0 2.52087)
(1.97473 0 3.00302)
(0.793605 0 2.13115)
(1.20717 0 2.7404)
(0.556705 0 2.29161)
(9.9825 0 0.110628)
(9.99302 0 0.0783628)
(9.9477 0 0.182328)
(9.96954 0 0.15504)
(9.89522 0 0.253822)
(9.92722 0 0.23089)
(9.82524 0 0.326774)
(9.86696 0 0.307515)
(9.73813 0 0.402564)
(9.78977 0 0.386531)
(9.63402 0 0.482246)
(9.69605 0 0.469159)
(9.51284 0 0.566772)
(9.58578 0 0.556411)
(9.37436 0 0.657111)
(9.45879 0 0.649288)
(9.21826 0 0.754236)
(9.31479 0 0.748809)
(9.04411 0 0.859113)
(9.15344 0 0.855989)
(8.85141 0 0.972696)
(8.97431 0 0.971834)
(8.63958 0 1.09592)
(8.77687 0 1.09733)
(8.40797 0 1.22969)
(8.56053 0 1.23346)
(8.15588 0 1.3748)
(8.32464 0 1.38113)
(7.88256 0 1.53192)
(8.06845 0 1.54114)
(7.58718 0 1.70144)
(7.79117 0 1.71411)
(7.26879 0 1.88336)
(7.49186 0 1.90037)
(6.9263 0 2.07704)
(7.16943 0 2.09977)
(6.55837 0 2.28092)
(6.82252 0 2.31146)
(6.16331 0 2.49211)
(6.44944 0 2.53356)
(5.73896 0 2.70588)
(6.04793 0 2.7627)
(5.28255 0 2.91501)
(5.61506 0 2.99351)
(4.79065 0 3.10915)
(5.14705 0 3.21786)
(4.25911 0 3.27416)
(4.63918 0 3.42425)
(3.68321 0 3.39178)
(4.08586 0 3.59709)
(3.05788 0 3.43956)
(3.48113 0 3.71643)
(2.3776 0 3.39163)
(2.8182 0 3.75797)
(1.63781 0 3.22597)
(2.09902 0 3.69378)
(0.839078 0 2.90062)
(1.27883 0 3.50423)
(0.57332 0 3.11344)
(9.98273 0 0.123584)
(9.99316 0 0.0868189)
(9.94873 0 0.204313)
(9.97026 0 0.172096)
(9.89794 0 0.285257)
(9.92926 0 0.25698)
(9.8305 0 0.367973)
(9.87123 0 0.342994)
(9.7467 0 0.453862)
(9.79715 0 0.431687)
(9.64668 0 0.54409)
(9.70734 0 0.524363)
(9.53037 0 0.639724)
(9.6018 0 0.622151)
(9.39761 0 0.741821)
(9.48037 0 0.726145)
(9.24811 0 0.851441)
(9.34285 0 0.837449)
(9.0815 0 0.969638)
(9.18892 0 0.957162)
(8.89733 0 1.09746)
(9.01822 0 1.08638)
(8.69506 0 1.23593)
(8.83026 0 1.22618)
(8.47408 0 1.38603)
(8.6245 0 1.37763)
(8.2337 0 1.54869)
(8.40031 0 1.54174)
(7.97315 0 1.72467)
(8.15695 0 1.71944)
(7.69152 0 1.91452)
(7.89356 0 1.9115)
(7.38775 0 2.11843)
(7.6091 0 2.11844)
(7.0605 0 2.33604)
(7.30231 0 2.34037)
(6.70806 0 2.5662)
(6.97152 0 2.57684)
(6.3282 0 2.80655)
(6.61457 0 2.82651)
(5.91792 0 3.0531)
(6.22854 0 3.08677)
(5.47326 0 3.29956)
(5.80955 0 3.35323)
(4.9891 0 3.53666)
(5.35244 0 3.61901)
(4.45913 0 3.75138)
(4.85065 0 3.87398)
(3.87601 0 3.92638)
(4.29619 0 4.10388)
(3.23213 0 4.03972)
(3.68032 0 4.28957)
(2.52066 0 4.06479)
(2.9933 0 4.40659)
(1.73825 0 3.97588)
(2.23721 0 4.42433)
(0.889406 0 3.71847)
(1.36324 0 4.31599)
(0.5987 0 3.98456)
(9.98321 0 0.136206)
(9.99339 0 0.0950419)
(9.95032 0 0.225576)
(9.97131 0 0.188592)
(9.90151 0 0.315502)
(9.93193 0 0.282054)
(9.83694 0 0.407511)
(9.87643 0 0.376967)
(9.75684 0 0.503023)
(9.80579 0 0.47485)
(9.66135 0 0.603291)
(9.7203 0 0.577062)
(9.55045 0 0.709477)
(9.61995 0 0.684831)
(9.42402 0 0.822724)
(9.50464 0 0.799337)
(9.28182 0 0.944174)
(9.37421 0 0.92176)
(9.12354 0 1.07497)
(9.22842 0 1.05328)
(8.94877 0 1.21623)
(9.06694 0 1.19508)
(8.75702 0 1.36909)
(8.88935 0 1.34832)
(8.54772 0 1.53464)
(8.69517 0 1.51417)
(8.32019 0 1.71391)
(8.48377 0 1.69377)
(8.07363 0 1.90781)
(8.25445 0 1.88818)
(7.80705 0 2.11711)
(8.00629 0 2.09835)
(7.51922 0 2.34224)
(7.73817 0 2.32506)
(7.20856 0 2.58324)
(7.44862 0 2.56878)
(6.87296 0 2.83948)
(7.13572 0 2.82955)
(6.50961 0 3.10935)
(6.79686 0 3.10673)
(6.1147 0 3.38987)
(6.4285 0 3.3987)
(5.68311 0 3.67607)
(6.02584 0 3.70237)
(5.20816 0 3.96022)
(5.58246 0 4.01253)
(4.68141 0 4.23096)
(5.08996 0 4.32097)
(4.09293 0 4.47222)
(4.53789 0 4.61533)
(3.43217 0 4.66238)
(3.91431 0 4.87774)
(2.68983 0 4.77291)
(3.20531 0 5.08336)
(1.86162 0 4.77207)
(2.41096 0 5.19765)
(0.954054 0 4.58934)
(1.47606 0 5.1839)
(0.639092 0 4.919)
(9.98386 0 0.148371)
(9.99368 0 0.102945)
(9.95235 0 0.245975)
(9.9726 0 0.204397)
(9.90578 0 0.344405)
(9.9351 0 0.305975)
(9.84437 0 0.445207)
(9.88241 0 0.409278)
(9.76833 0 0.549823)
(9.81552 0 0.515826)
(9.6778 0 0.659574)
(9.73471 0 0.627024)
(9.57281 0 0.775707)
(9.63999 0 0.744175)
(9.45327 0 0.899442)
(9.53129 0 0.868538)
(9.31901 0 1.032)
(9.40852 0 1.00137)
(9.16977 0 1.17459)
(9.27151 0 1.14391)
(9.0052 0 1.32844)
(9.11998 0 1.29743)
(8.82489 0 1.49477)
(8.95359 0 1.46318)
(8.62831 0 1.67477)
(8.77191 0 1.64243)
(8.4148 0 1.86961)
(8.57439 0 1.83643)
(8.18355 0 2.08041)
(8.36033 0 2.04643)
(7.93353 0 2.30814)
(8.12883 0 2.27359)
(7.66338 0 2.5536)
(7.87872 0 2.51898)
(7.37132 0 2.81728)
(7.60844 0 2.78351)
(7.05491 0 3.09922)
(7.31585 0 3.0678)
(6.71084 0 3.39875)
(6.99804 0 3.37208)
(6.33459 0 3.71417)
(6.65099 0 3.69589)
(5.92001 0 4.04216)
(6.26916 0 4.03776)
(5.45888 0 4.3771)
(5.84502 0 4.39459)
(4.94063 0 4.70986)
(5.36845 0 4.76075)
(4.35226 0 5.02644)
(4.82631 0 5.1267)
(3.67911 0 5.30599)
(4.20265 0 5.47692)
(2.90707 0 5.51787)
(3.47737 0 5.78721)
(2.02731 0 5.62258)
(2.64456 0 6.0191)
(1.04491 0 5.52893)
(1.63738 0 6.12338)
(0.704309 0 5.94242)
(9.98465 0 0.159984)
(9.99402 0 0.110464)
(9.95473 0 0.265386)
(9.97409 0 0.219404)
(9.91065 0 0.371827)
(9.93868 0 0.328618)
(9.85267 0 0.480893)
(9.88905 0 0.439784)
(9.781 0 0.594057)
(9.82618 0 0.554444)
(9.69581 0 0.712697)
(9.75038 0 0.674039)
(9.59716 0 0.838129)
(9.66166 0 0.799935)
(9.48502 0 0.971642)
(9.56003 0 0.933459)
(9.35927 0 1.11452)
(9.44543 0 1.07592)
(9.21972 0 1.26807)
(9.31776 0 1.22865)
(9.06611 0 1.43357)
(9.17683 0 1.39296)
(8.89808 0 1.61234)
(9.02239 0 1.57021)
(8.71518 0 1.8057)
(8.85408 0 1.76175)
(8.51681 0 2.01497)
(8.67142 0 1.96898)
(8.3022 0 2.24145)
(8.4738 0 2.1933)
(8.07032 0 2.48641)
(8.26039 0 2.43611)
(7.81979 0 2.75101)
(8.03004 0 2.69882)
(7.54872 0 3.03631)
(7.7812 0 2.9828)
(7.25449 0 3.3431)
(7.5117 0 3.28935)
(6.9335 0 3.67183)
(7.21852 0 3.61963)
(6.58071 0 4.0223)
(6.89742 0 3.97454)
(6.1892 0 4.39325)
(6.54248 0 4.35449)
(5.74945 0 4.7817)
(6.14539 0 4.75894)
(5.24873 0 5.18176)
(5.69469 0 5.18565)
(4.67049 0 5.58275)
(5.17461 0 5.62925)
(3.99441 0 5.96638)
(4.56455 0 6.07873)
(3.19792 0 6.30138)
(3.83573 0 6.51335)
(2.26134 0 6.54015)
(2.97023 0 6.8936)
(1.18034 0 6.5644)
(1.87866 0 7.15714)
(0.812565 0 7.09849)
(9.98553 0 0.170966)
(9.9944 0 0.117548)
(9.95738 0 0.283703)
(9.97572 0 0.233523)
(9.91601 0 0.397642)
(9.94258 0 0.349874)
(9.86169 0 0.514421)
(9.89624 0 0.468359)
(9.79469 0 0.635547)
(9.83765 0 0.590551)
(9.71517 0 0.762445)
(9.76713 0 0.717924)
(9.62325 0 0.896488)
(9.68476 0 0.851894)
(9.51894 0 1.03903)
(9.59056 0 0.993842)
(9.40221 0 1.19141)
(9.48456 0 1.14514)
(9.27293 0 1.35499)
(9.36673 0 1.30715)
(9.13093 0 1.53114)
(9.23698 0 1.48128)
(8.97594 0 1.72125)
(9.09514 0 1.66893)
(8.80761 0 1.92677)
(8.94095 0 1.87157)
(8.62543 0 2.14917)
(8.77406 0 2.09071)
(8.42872 0 2.38994)
(8.59397 0 2.32791)
(8.21655 0 2.65063)
(8.39997 0 2.58482)
(7.98761 0 2.93284)
(8.19107 0 2.86317)
(7.74006 0 3.23819)
(7.96585 0 3.1648)
(7.47134 0 3.56832)
(7.72231 0 3.4917)
(7.17781 0 3.92485)
(7.45759 0 3.84601)
(6.85432 0 4.30929)
(7.16763 0 4.23006)
(6.49361 0 4.72279)
(6.84661 0 4.64629)
(6.0854 0 5.16565)
(6.48618 0 5.09716)
(5.61525 0 5.63637)
(6.07431 0 5.58461)
(5.0631 0 6.12979)
(5.59354 0 6.10914)
(4.40164 0 6.63359)
(5.01899 0 6.66751)
(3.5955 0 7.12081)
(4.31183 0 7.24828)
(2.60372 0 7.53994)
(3.43489 0 7.81964)
(1.3939 0 7.73947)
(2.25577 0 8.3141)
(1.00223 0 8.46373)
(9.9865 0 0.181255)
(9.9948 0 0.124157)
(9.96027 0 0.300836)
(9.97747 0 0.246683)
(9.92177 0 0.421739)
(9.94676 0 0.369651)
(9.87134 0 0.545659)
(9.90388 0 0.494892)
(9.80923 0 0.674134)
(9.84977 0 0.624013)
(9.73568 0 0.808629)
(9.78479 0 0.758519)
(9.65081 0 0.950564)
(9.70903 0 0.899864)
(9.55472 0 1.10134)
(9.62259 0 1.04947)
(9.44743 0 1.26235)
(9.52556 0 1.20875)
(9.32891 0 1.43499)
(9.41799 0 1.37912)
(9.19908 0 1.62072)
(9.29989 0 1.56202)
(9.05779 0 1.821)
(9.17118 0 1.75893)
(8.90479 0 2.03737)
(9.03176 0 1.97139)
(8.73973 0 2.27144)
(8.8814 0 2.201)
(8.56207 0 2.52489)
(8.71978 0 2.44949)
(8.37105 0 2.79957)
(8.54638 0 2.7187)
(8.16558 0 3.09744)
(8.36045 0 3.01067)
(7.94405 0 3.4207)
(8.16086 0 3.32767)
(7.70418 0 3.77181)
(7.94599 0 3.67232)
(7.44267 0 4.1536)
(7.71345 0 4.04768)
(7.15479 0 4.56931)
(7.45982 0 4.45744)
(6.83366 0 5.02268)
(7.18005 0 4.90609)
(6.4692 0 5.51783)
(6.86676 0 5.39912)
(6.04655 0 6.05886)
(6.50889 0 5.94326)
(5.54348 0 6.6488)
(6.08948 0 6.54637)
(4.92635 0 7.28688)
(5.58239 0 7.21684)
(4.14415 0 7.96102)
(4.94157 0 7.96138)
(3.12088 0 8.63274)
(4.10818 0 8.77508)
(1.7556 0 9.12648)
(2.87733 0 9.61973)
(1.36403 0 10.1832)
(9.98754 0 0.190801)
(9.99523 0 0.130261)
(9.96332 0 0.31671)
(9.97932 0 0.258826)
(9.92785 0 0.444027)
(9.95115 0 0.387872)
(9.88148 0 0.574497)
(9.91188 0 0.519291)
(9.82449 0 0.70969)
(9.86243 0 0.654723)
(9.75713 0 0.851101)
(9.80318 0 0.795696)
(9.67959 0 1.00018)
(9.73426 0 0.943692)
(9.59201 0 1.15838)
(9.65583 0 1.10017)
(9.49452 0 1.32711)
(9.56806 0 1.26656)
(9.38716 0 1.50783)
(9.47108 0 1.44432)
(9.26996 0 1.70201)
(9.365 0 1.63491)
(9.14289 0 1.91121)
(9.24987 0 1.83987)
(9.00587 0 2.13703)
(9.12572 0 2.06078)
(8.85869 0 2.38119)
(8.9925 0 2.29934)
(8.70105 0 2.64555)
(8.8501 0 2.55737)
(8.53244 0 2.93216)
(8.69825 0 2.83688)
(8.35206 0 3.24335)
(8.53654 0 3.14015)
(8.15876 0 3.58179)
(8.36425 0 3.46979)
(7.9508 0 3.95067)
(8.18034 0 3.82892)
(7.72562 0 4.35387)
(7.98321 0 4.22135)
(7.47947 0 4.79625)
(7.7705 0 4.65187)
(7.20678 0 5.28399)
(7.5387 0 5.12668)
(6.89917 0 5.82506)
(7.28257 0 5.65399)
(6.54366 0 6.42982)
(6.99412 0 6.24493)
(6.11951 0 7.11164)
(6.66061 0 6.915)
(5.59199 0 7.88763)
(6.26146 0 7.68641)
(4.8996 0 8.77757)
(5.75622 0 8.59261)
(3.92543 0 9.80059)
(5.0856 0 9.68469)
(2.43198 0 10.8547)
(3.97749 0 11.0479)
(2.14476 0 12.5652)
(9.98862 0 0.199565)
(9.99567 0 0.135836)
(9.96652 0 0.331265)
(9.98124 0 0.269908)
(9.9342 0 0.464423)
(9.95571 0 0.404475)
(9.89202 0 0.600829)
(9.92017 0 0.541481)
(9.84031 0 0.742077)
(9.87553 0 0.682591)
(9.77933 0 0.889684)
(9.82217 0 0.82935)
(9.70932 0 1.04513)
(9.76029 0 0.983259)
(9.63051 0 1.20988)
(9.69011 0 1.14579)
(9.54308 0 1.38538)
(9.61186 0 1.3184)
(9.44718 0 1.5731)
(9.52578 0 1.50255)
(9.34296 0 1.77456)
(9.43207 0 1.69973)
(9.23052 0 1.99134)
(9.33093 0 1.91149)
(9.10995 0 2.2251)
(9.22254 0 2.13945)
(8.98125 0 2.47764)
(9.10704 0 2.38533)
(8.84436 0 2.75093)
(8.98456 0 2.65105)
(8.6991 0 3.04719)
(8.85514 0 2.93869)
(8.54511 0 3.36898)
(8.71876 0 3.25069)
(8.38179 0 3.71934)
(8.57524 0 3.58987)
(8.20817 0 4.10196)
(8.42426 0 3.95965)
(8.02281 0 4.52151)
(8.26523 0 4.3643)
(7.8235 0 4.98404)
(8.09724 0 4.8093)
(7.60695 0 5.49758)
(7.91893 0 5.30187)
(7.36812 0 6.07318)
(7.7283 0 5.85187)
(7.09908 0 6.72647)
(7.52247 0 6.47324)
(6.78664 0 7.48065)
(7.29718 0 7.18654)
(6.40725 0 8.37238)
(7.04692 0 8.02412)
(5.91384 0 9.46602)
(6.76143 0 9.04243)
(5.19385 0 10.9076)
(6.45959 0 10.357)
(3.88191 0 13.1758)
(6.18591 0 12.3025)
(5.2529 0 16.3673)
(0.19141 0 -0.114255)
(0.112485 0 -0.187474)
(0.374215 0 -0.0973093)
(0.273507 0 -0.174818)
(0.525 0 -0.0742915)
(0.434477 0 -0.140791)
(0.642424 0 -0.0532572)
(0.570148 0 -0.107051)
(0.729968 0 -0.0355536)
(0.675693 0 -0.077926)
(0.791517 0 -0.0209364)
(0.754607 0 -0.0534928)
(0.83053 0 -0.00894461)
(0.811318 0 -0.0331063)
(0.850128 0 0.000728335)
(0.849374 0 -0.0162373)
(0.853612 0 0.00793532)
(0.871543 0 -0.00281893)
(0.843228 0 0.0127676)
(0.880312 0 0.00820231)
(0.822532 0 0.0158384)
(0.877121 0 0.0159614)
(0.794268 0 0.0175486)
(0.864443 0 0.0212822)
(0.760935 0 0.0180999)
(0.844963 0 0.0245068)
(0.724972 0 0.01765)
(0.821163 0 0.0258166)
(0.688654 0 0.0163811)
(0.795402 0 0.0254548)
(0.653972 0 0.0145211)
(0.769847 0 0.0237344)
(0.622475 0 0.012335)
(0.746312 0 0.0210454)
(0.595179 0 0.0100939)
(0.726103 0 0.0178075)
(0.572502 0 0.00803683)
(0.709925 0 0.014445)
(0.554268 0 0.00633132)
(0.697864 0 0.0113404)
(0.539836 0 0.00504684)
(0.689459 0 0.0087639)
(0.528321 0 0.00415978)
(0.683893 0 0.00682746)
(0.518846 0 0.00358242)
(0.680248 0 0.00548503)
(0.510736 0 0.00320229)
(0.677734 0 0.00458438)
(0.503567 0 0.00292628)
(0.675821 0 0.00395628)
(0.49708 0 0.0027083)
(0.674216 0 0.00349562)
(0.491052 0 0.00253996)
(0.67274 0 0.00317175)
(0.485232 0 0.00240139)
(0.671221 0 0.00298931)
(0.479468 0 0.00209812)
(0.669442 0 0.00289102)
(0.66702 0 0.00234683)
(0.177441 0 -0.272955)
(0.0942469 0 -0.361267)
(0.348119 0 -0.239508)
(0.243528 0 -0.338038)
(0.492149 0 -0.189897)
(0.384678 0 -0.275274)
(0.608815 0 -0.143786)
(0.505114 0 -0.213412)
(0.701576 0 -0.104638)
(0.601355 0 -0.160496)
(0.773991 0 -0.0720077)
(0.67688 0 -0.11643)
(0.829119 0 -0.0448991)
(0.735331 0 -0.0798871)
(0.869493 0 -0.0224812)
(0.77952 0 -0.0496889)
(0.896704 0 -0.00417285)
(0.811631 0 -0.0248321)
(0.912688 0 0.0102157)
(0.833446 0 -0.00442242)
(0.917749 0 0.0208355)
(0.847003 0 0.0120584)
(0.914135 0 0.0280605)
(0.851799 0 0.0240031)
(0.904403 0 0.0322155)
(0.85012 0 0.0316619)
(0.89098 0 0.0336333)
(0.844092 0 0.0354523)
(0.876158 0 0.0327291)
(0.835754 0 0.0358433)
(0.861945 0 0.0300149)
(0.826979 0 0.0334611)
(0.849875 0 0.0260814)
(0.819318 0 0.0291103)
(0.840938 0 0.0215614)
(0.813867 0 0.0236379)
(0.835515 0 0.0170666)
(0.811187 0 0.0178997)
(0.833389 0 0.0130948)
(0.811271 0 0.0126626)
(0.833903 0 0.00994158)
(0.813616 0 0.00845139)
(0.836189 0 0.00766145)
(0.817402 0 0.00547236)
(0.839406 0 0.00610256)
(0.821698 0 0.00362244)
(0.842943 0 0.00503306)
(0.82578 0 0.00258548)
(0.846465 0 0.0042747)
(0.82937 0 0.00201263)
(0.849806 0 0.00375018)
(0.832513 0 0.0016952)
(0.852847 0 0.00345125)
(0.835369 0 0.00157186)
(0.855443 0 0.00334156)
(0.838033 0 0.00165568)
(0.857445 0 0.00318456)
(0.840382 0 0.00188685)
(0.842454 0 0.0020798)
(0.150573 0 -0.432836)
(0.0740794 0 -0.508744)
(0.290853 0 -0.380757)
(0.199844 0 -0.472189)
(0.407508 0 -0.305256)
(0.307687 0 -0.384197)
(0.501971 0 -0.235659)
(0.40016 0 -0.299531)
(0.577807 0 -0.176828)
(0.473659 0 -0.228)
(0.637949 0 -0.127923)
(0.532137 0 -0.168699)
(0.684797 0 -0.0874599)
(0.578249 0 -0.119642)
(0.720384 0 -0.0541633)
(0.613926 0 -0.0791738)
(0.746717 0 -0.0268256)
(0.640786 0 -0.0461347)
(0.765992 0 -0.00442498)
(0.660231 0 -0.0196473)
(0.779607 0 0.0132237)
(0.674956 0 0.00155811)
(0.786583 0 0.0258975)
(0.685081 0 0.0187507)
(0.788829 0 0.0337018)
(0.690315 0 0.0300104)
(0.788067 0 0.0370278)
(0.692258 0 0.0359995)
(0.78597 0 0.0365273)
(0.692363 0 0.037313)
(0.783958 0 0.0330497)
(0.691911 0 0.034838)
(0.783108 0 0.0275638)
(0.69191 0 0.0296781)
(0.784087 0 0.0211029)
(0.693017 0 0.0229989)
(0.787077 0 0.014674)
(0.695497 0 0.0159956)
(0.791752 0 0.00909655)
(0.699171 0 0.00975453)
(0.797428 0 0.00486304)
(0.70349 0 0.00500501)
(0.803196 0 0.00210038)
(0.707715 0 0.00205235)
(0.808241 0 0.000606407)
(0.711077 0 0.000701724)
(0.81222 0 -3.79736e-05)
(0.71312 0 0.000336549)
(0.815316 0 -0.000231905)
(0.713818 0 0.000304008)
(0.817937 0 -0.000185216)
(0.713551 0 0.000283023)
(0.820466 0 4.93925e-05)
(0.712812 0 0.00024128)
(0.823019 0 0.000473987)
(0.711964 0 0.00034405)
(0.825327 0 0.00106811)
(0.711088 0 0.00072921)
(0.709883 0 0.001549)
(0.120935 0 -0.557716)
(0.0538069 0 -0.627192)
(0.225307 0 -0.485647)
(0.150401 0 -0.572001)
(0.308516 0 -0.388298)
(0.21867 0 -0.46189)
(0.375322 0 -0.300848)
(0.279458 0 -0.360436)
(0.429255 0 -0.227697)
(0.32587 0 -0.276008)
(0.472469 0 -0.167039)
(0.363333 0 -0.206257)
(0.506611 0 -0.116819)
(0.393294 0 -0.148613)
(0.532937 0 -0.0754839)
(0.416907 0 -0.100987)
(0.55269 0 -0.0420292)
(0.435054 0 -0.062114)
(0.56743 0 -0.0153411)
(0.448581 0 -0.0312896)
(0.578661 0 0.00565098)
(0.458225 0 -0.00710349)
(0.587227 0 0.0211612)
(0.467963 0 0.0123002)
(0.592421 0 0.031068)
(0.4737 0 0.0261923)
(0.595429 0 0.0356123)
(0.476774 0 0.0338399)
(0.597444 0 0.0354931)
(0.478245 0 0.0359011)
(0.599281 0 0.0317649)
(0.478915 0 0.0335808)
(0.60149 0 0.0256695)
(0.479237 0 0.028202)
(0.604355 0 0.0185403)
(0.479408 0 0.0211294)
(0.607789 0 0.0116857)
(0.479448 0 0.0138086)
(0.611293 0 0.006148)
(0.479143 0 0.00757516)
(0.614256 0 0.00251239)
(0.478038 0 0.0032057)
(0.616061 0 0.000794168)
(0.475796 0 0.000981973)
(0.616242 0 0.000430568)
(0.472118 0 0.000596825)
(0.614737 0 0.000603864)
(0.4665 0 0.00118726)
(0.611926 0 0.000710901)
(0.458857 0 0.00185515)
(0.608254 0 0.000582241)
(0.449679 0 0.00226203)
(0.604224 0 0.000382545)
(0.439619 0 0.0023614)
(0.600121 0 0.000376606)
(0.42926 0 0.0024518)
(0.595944 0 0.000866483)
(0.419109 0 0.00282422)
(0.408402 0 0.0034237)
(0.0865305 0 -0.649403)
(0.0325475 0 -0.711943)
(0.150858 0 -0.5565)
(0.0946371 0 -0.633517)
(0.196962 0 -0.442161)
(0.11845 0 -0.504939)
(0.232841 0 -0.343105)
(0.145285 0 -0.393146)
(0.26155 0 -0.261249)
(0.161211 0 -0.301563)
(0.284578 0 -0.193622)
(0.174278 0 -0.226271)
(0.303036 0 -0.137658)
(0.184516 0 -0.164277)
(0.317559 0 -0.0915543)
(0.192817 0 -0.11302)
(0.328705 0 -0.0542703)
(0.199619 0 -0.0711307)
(0.337388 0 -0.0245432)
(0.205163 0 -0.0381476)
(0.345474 0 -0.000836312)
(0.209063 0 -0.0133397)
(0.352566 0 0.016959)
(0.214671 0 0.00696022)
(0.356141 0 0.0282818)
(0.215908 0 0.0235637)
(0.357902 0 0.0335121)
(0.214731 0 0.0325756)
(0.358473 0 0.033635)
(0.211415 0 0.0355006)
(0.358046 0 0.0298979)
(0.206178 0 0.033873)
(0.356691 0 0.0236262)
(0.198792 0 0.029108)
(0.354447 0 0.0163167)
(0.189009 0 0.0225934)
(0.351225 0 0.00952265)
(0.176677 0 0.0158605)
(0.346644 0 0.00437936)
(0.163104 0 0.0104246)
(0.340545 0 0.00143087)
(0.148376 0 0.00690935)
(0.332724 0 0.000599391)
(0.133321 0 0.00561888)
(0.322942 0 0.00122225)
(0.118542 0 0.00625983)
(0.310769 0 0.00248584)
(0.104043 0 0.00806758)
(0.296483 0 0.00369453)
(0.0895036 0 0.00973978)
(0.280816 0 0.00446305)
(0.0748343 0 0.0107042)
(0.264552 0 0.00490364)
(0.0599499 0 0.0109183)
(0.248326 0 0.00541009)
(0.0448858 0 0.0107871)
(0.233024 0 0.00584832)
(0.03012 0 0.0104989)
(0.0160722 0 0.00907338)
(0.0473714 0 -0.703032)
(0.00927812 0 -0.75834)
(0.0672493 0 -0.589058)
(0.0315763 0 -0.652527)
(0.0737521 0 -0.462467)
(0.00829054 0 -0.51101)
(0.0761816 0 -0.357299)
(-0.00170257 0 -0.395361)
(0.0761738 0 -0.271416)
(-0.0192793 0 -0.301556)
(0.0751759 0 -0.201061)
(-0.0346589 0 -0.225404)
(0.0739523 0 -0.143196)
(-0.0486478 0 -0.163238)
(0.0730812 0 -0.0957445)
(-0.060289 0 -0.112298)
(0.0730386 0 -0.0580407)
(-0.0696179 0 -0.0710962)
(0.0746145 0 -0.0299772)
(-0.078029 0 -0.0393923)
(0.0762379 0 -0.00800451)
(-0.088577 0 -0.0145916)
(0.0752527 0 0.0117449)
(-0.100775 0 0.00770209)
(0.0718643 0 0.0265853)
(-0.106961 0 0.026055)
(0.0659 0 0.0340589)
(-0.115217 0 0.0368571)
(0.0574274 0 0.0358993)
(-0.125564 0 0.041439)
(0.0457829 0 0.0338825)
(-0.138382 0 0.0418418)
(0.0304348 0 0.0294107)
(-0.154078 0 0.0393633)
(0.0113037 0 0.0237196)
(-0.172758 0 0.0350745)
(-0.0106465 0 0.018213)
(-0.194349 0 0.0298425)
(-0.0338764 0 0.01408)
(-0.217067 0 0.0248723)
(-0.0571812 0 0.0118909)
(-0.240306 0 0.0210613)
(-0.079335 0 0.0117719)
(-0.262806 0 0.0187541)
(-0.099323 0 0.0130726)
(-0.283521 0 0.017831)
(-0.116784 0 0.0147145)
(-0.301579 0 0.0179374)
(-0.132272 0 0.0158842)
(-0.317014 0 0.0182869)
(-0.146477 0 0.0162548)
(-0.330321 0 0.0183586)
(-0.160006 0 0.0160208)
(-0.342339 0 0.0180363)
(-0.172985 0 0.0152738)
(-0.353821 0 0.0174547)
(-0.184646 0 0.0134158)
(-0.364853 0 0.0163473)
(-0.373615 0 0.0140118)
(-0.00123349 0 -0.712562)
(-0.0184345 0 -0.757132)
(-0.0258219 0 -0.5787)
(-0.04065 0 -0.629013)
(-0.05995 0 -0.445127)
(-0.110312 0 -0.479144)
(-0.0943402 0 -0.339333)
(-0.161631 0 -0.364009)
(-0.127239 0 -0.254528)
(-0.215279 0 -0.272272)
(-0.15707 0 -0.186633)
(-0.26312 0 -0.199478)
(-0.182952 0 -0.132062)
(-0.305708 0 -0.141275)
(-0.204789 0 -0.0878361)
(-0.342366 0 -0.0942052)
(-0.224102 0 -0.0516338)
(-0.373437 0 -0.0554717)
(-0.244249 0 -0.0217264)
(-0.401175 0 -0.023479)
(-0.266375 0 0.00316345)
(-0.428217 0 0.0024722)
(-0.284914 0 0.0225691)
(-0.451129 0 0.0216613)
(-0.297309 0 0.0357265)
(-0.464757 0 0.0351686)
(-0.30915 0 0.043395)
(-0.478149 0 0.0453568)
(-0.323006 0 0.0466497)
(-0.492015 0 0.0511504)
(-0.339322 0 0.0465251)
(-0.507178 0 0.0530077)
(-0.357903 0 0.0439633)
(-0.523971 0 0.0517785)
(-0.378241 0 0.0398483)
(-0.542297 0 0.0483428)
(-0.399882 0 0.0351146)
(-0.561934 0 0.0436277)
(-0.42216 0 0.0306962)
(-0.582395 0 0.0387282)
(-0.444287 0 0.0272164)
(-0.603189 0 0.0344977)
(-0.465424 0 0.0248695)
(-0.623645 0 0.0312868)
(-0.484734 0 0.0234818)
(-0.642918 0 0.0290096)
(-0.501398 0 0.0226399)
(-0.660002 0 0.0273566)
(-0.515249 0 0.021952)
(-0.67429 0 0.0259311)
(-0.526692 0 0.0212064)
(-0.685806 0 0.0245246)
(-0.536416 0 0.0203162)
(-0.695189 0 0.023152)
(-0.544881 0 0.0190462)
(-0.703343 0 0.0218032)
(-0.552311 0 0.0171848)
(-0.710671 0 0.0200744)
(-0.715545 0 0.0180149)
(-0.0494461 0 -0.67301)
(-0.0523457 0 -0.708703)
(-0.125334 0 -0.52529)
(-0.121668 0 -0.55644)
(-0.203327 0 -0.39167)
(-0.238328 0 -0.406321)
(-0.278815 0 -0.289643)
(-0.334221 0 -0.295189)
(-0.34814 0 -0.210077)
(-0.424758 0 -0.210563)
(-0.410363 0 -0.147527)
(-0.504373 0 -0.145399)
(-0.46506 0 -0.0977263)
(-0.573382 0 -0.0948602)
(-0.512327 0 -0.0572357)
(-0.632238 0 -0.0550426)
(-0.553157 0 -0.0240061)
(-0.681954 0 -0.0224408)
(-0.587497 0 0.00211296)
(-0.721219 0 0.00364458)
(-0.612938 0 0.0210741)
(-0.751916 0 0.0220924)
(-0.631737 0 0.0350179)
(-0.77374 0 0.0358171)
(-0.648143 0 0.0459528)
(-0.792545 0 0.0472302)
(-0.662823 0 0.0535395)
(-0.808494 0 0.0558951)
(-0.677301 0 0.0574069)
(-0.823168 0 0.0612978)
(-0.692512 0 0.0579654)
(-0.837705 0 0.0634176)
(-0.70872 0 0.0558836)
(-0.852712 0 0.0626078)
(-0.725856 0 0.052001)
(-0.868377 0 0.0595221)
(-0.743842 0 0.0473182)
(-0.884737 0 0.0550847)
(-0.762497 0 0.0427804)
(-0.901765 0 0.0503305)
(-0.781454 0 0.0389455)
(-0.919358 0 0.0460097)
(-0.80009 0 0.0358836)
(-0.937161 0 0.0423365)
(-0.817507 0 0.0333434)
(-0.954419 0 0.0390922)
(-0.832705 0 0.0310008)
(-0.970053 0 0.0359471)
(-0.845072 0 0.0286951)
(-0.983107 0 0.0327563)
(-0.854668 0 0.0264994)
(-0.993239 0 0.0296951)
(-0.8621 0 0.0245022)
(-1.00093 0 0.0270626)
(-0.868115 0 0.0225596)
(-1.00718 0 0.0248929)
(-0.873662 0 0.0206405)
(-1.01252 0 0.0228564)
(-1.01562 0 0.0212164)
(-0.105815 0 -0.583192)
(-0.0945234 0 -0.605063)
(-0.233083 0 -0.426465)
(-0.214493 0 -0.434733)
(-0.359272 0 -0.298428)
(-0.381929 0 -0.288496)
(-0.475714 0 -0.206221)