/*--------------------------------*- C++ -*----------------------------------*\
  =========                 |
  \\      /  F ield         | OpenFOAM: The Open Source CFD Toolbox
   \\    /   O peration     | Website:  https://openfoam.org
    \\  /    A nd           | Version:  dev
     \\/     M anipulation  |
\*---------------------------------------------------------------------------*/
FoamFile
{
    version     2.0;
    format      ascii;
    class       volScalarField;
    location    "2.4";
    object      p;
}
// * * * * * * * * * * * * * * * * * * * * * * * * * * * * * * * * * * * * * //

dimensions      [0 2 -2 0 0 0 0];

internalField   nonuniform List<scalar> 
2790
(
148.101
148.009
148.276
148.847
149.627
150.585
151.717
153.024
154.501
156.142
157.942
159.893
161.986
164.211
166.551
168.987
171.491
174.029
176.561
179.034
181.392
183.569
185.499
187.119
188.378
189.252
189.688
189.743
189.794
190.006
147.899
147.916
148.209
148.777
149.553
150.508
151.636
152.936
154.406
156.039
157.829
159.769
161.852
164.066
166.395
168.821
171.316
173.849
176.379
178.856
181.224
183.419
185.373
187.021
188.304
189.178
189.575
189.629
189.762
190.047
147.7
147.787
148.099
148.657
149.42
150.362
151.475
152.757
154.205
155.814
157.576
159.485
161.533
163.708
165.997
168.379
170.83
173.321
175.812
178.259
180.608
182.8
184.772
186.461
187.811
188.787
189.379
189.735
190.05
190.348
147.475
147.593
147.917
148.467
149.215
150.141
151.234
152.492
153.912
155.486
157.21
159.075
161.074
163.195
165.423
167.74
170.125
172.547
174.974
177.364
179.67
181.842
183.823
185.562
187.016
188.167
189.035
189.705
190.258
190.777
147.214
147.346
147.679
148.221
148.953
149.857
150.925
152.152
153.534
155.066
156.74
158.549
160.485
162.536
164.687
166.923
169.22
171.555
173.896
176.209
178.453
180.588
182.57
184.36
185.929
187.271
188.401
189.363
190.174
190.921
146.913
147.051
147.386
147.918
148.63
149.508
150.544
151.734
153.071
154.551
156.166
157.909
159.77
161.738
163.799
165.937
168.132
170.36
172.597
174.812
176.974
179.051
181.012
182.832
184.495
185.996
187.342
188.547
189.567
190.484
146.57
146.71
147.041
147.56
148.25
149.098
150.097
151.242
152.528
153.949
155.496
157.162
158.937
160.809
162.767
164.792
166.868
168.973
171.086
173.182
175.236
177.226
179.134
180.943
182.648
184.248
185.742
187.12
188.285
189.331
146.186
146.323
146.647
147.15
147.813
148.627
149.585
150.681
151.909
153.262
154.732
156.312
157.991
159.757
161.597
163.496
165.437
167.401
169.368
171.32
173.236
175.103
176.91
178.651
180.329
181.948
183.502
184.974
186.223
187.374
145.759
145.893
146.207
146.69
147.324
148.1
149.012
150.053
151.216
152.495
153.882
155.366
156.939
158.587
160.298
162.056
163.846
165.649
167.448
169.227
170.97
172.667
174.314
175.914
177.475
179.009
180.517
181.987
183.258
184.496
145.293
145.421
145.721
146.182
146.785
147.52
148.381
149.362
150.456
151.655
152.95
154.332
155.789
157.309
158.879
160.483
162.104
163.726
165.332
166.905
168.433
169.907
171.324
172.692
174.024
175.342
176.661
177.998
179.198
180.502
144.787
144.909
145.194
145.63
146.198
146.889
147.696
148.613
149.633
150.746
151.943
153.215
154.548
155.931
157.349
158.785
160.223
161.644
163.03
164.365
165.632
166.822
167.928
168.956
169.919
170.847
171.776
172.774
173.735
175.053
144.245
144.36
144.628
145.037
145.568
146.211
146.962
147.811
148.751
149.774
150.868
152.023
153.227
154.464
155.719
156.976
158.215
159.416
160.558
161.62
162.581
163.423
164.131
164.696
165.122
165.431
165.673
165.979
166.36
167.532
143.668
143.775
144.025
144.404
144.896
145.491
146.181
146.96
147.818
148.746
149.732
150.766
151.833
152.918
154.003
155.07
156.097
157.061
157.937
158.696
159.309
159.743
159.965
159.94
159.636
159.038
158.162
157.167
156.217
156.72
143.059
143.157
143.387
143.737
144.188
144.731
145.359
146.064
146.837
147.668
148.544
149.452
150.378
151.305
152.214
153.083
153.889
154.603
155.195
155.627
155.858
155.835
155.497
154.765
153.542
151.712
149.147
145.843
141.89
139.849
142.419
142.509
142.719
143.037
143.446
143.936
144.501
145.131
145.816
146.546
147.309
148.089
148.871
149.637
150.366
151.033
151.611
152.068
152.365
152.456
152.283
151.774
150.829
149.315
147.037
143.705
138.861
131.841
121.37
109.127
3.05417
3.01565
2.88861
2.70878
2.51095
2.31137
2.11596
1.92738
1.74726
1.57655
1.41564
1.26483
1.12518
0.999519
0.892502
0.808227
0.746562
0.703506
0.677385
0.668864
0.674615
0.685313
0.692019
0.687415
0.666213
0.622046
0.548691
0.442394
0.30097
0.126006
2.95544
2.91081
2.79249
2.62711
2.44332
2.25551
2.06976
1.88909
1.71536
1.54973
1.39275
1.24472
1.1066
0.981528
0.875261
0.793114
0.735032
0.694612
0.670471
0.663988
0.671609
0.683126
0.689849
0.686103
0.669134
0.627837
0.555527
0.450374
0.308542
0.12483
2.85835
2.80601
2.69282
2.53946
2.36914
2.19327
2.01757
1.84529
1.67845
1.51845
1.36602
1.22133
1.08493
0.960322
0.855022
0.775855
0.719484
0.675474
0.653111
0.655799
0.673794
0.694973
0.709339
0.709817
0.687916
0.640328
0.564386
0.456937
0.311425
0.123797
2.77778
2.7178
2.6073
2.46245
2.30294
2.13707
1.97007
1.80515
1.64445
1.48965
1.34189
1.20133
1.06694
0.940659
0.831505
0.757517
0.71763
0.684207
0.655235
0.650033
0.667848
0.691456
0.709071
0.712622
0.694529
0.648912
0.571375
0.459066
0.309027
0.118466
2.74132
2.67392
2.56582
2.42587
2.27279
2.11279
1.95096
1.7904
1.63324
1.48129
1.33622
1.19958
1.07125
0.953417
0.851525
0.768843
0.711618
0.681946
0.663965
0.662936
0.678094
0.698335
0.71339
0.71503
0.695473
0.647741
0.566414
0.451474
0.299434
0.108905
2.76857
2.69132
2.58311
2.44224
2.28855
2.12803
1.96598
1.80566
1.64918
1.49809
1.35365
1.21724
1.09036
0.975387
0.87558
0.796088
0.738736
0.701188
0.681023
0.677707
0.687725
0.702287
0.712263
0.709513
0.686256
0.635343
0.551501
0.4345
0.282939
0.0986594
2.86383
2.77575
2.65766
2.50778
2.34483
2.17641
2.00799
1.84285
1.68304
1.52989
1.38459
1.24801
1.12047
1.00392
0.903686
0.823948
0.764716
0.72394
0.700051
0.691676
0.694793
0.702063
0.705349
0.696806
0.668766
0.61415
0.528118
0.410266
0.261074
0.0885088
3.01617
2.90681
2.76773
2.59922
2.41934
2.23682
2.05767
1.88497
1.72016
1.56342
1.41504
1.27636
1.14884
1.03401
0.934406
0.853091
0.790642
0.74583
0.717131
0.702582
0.698177
0.697615
0.693638
0.678851
0.645825
0.587687
0.499848
0.381688
0.236355
0.0786528
3.18372
3.04296
2.87351
2.68143
2.48372
2.28836
2.09866
1.91806
1.74776
1.58841
1.43968
1.30121
1.17406
1.05991
0.960631
0.878013
0.812559
0.763565
0.729707
0.708841
0.697164
0.689125
0.6782
0.657509
0.619956
0.558525
0.469529
0.351419
0.210946
0.0691355
3.31141
3.14339
2.95014
2.73616
2.52127
2.31483
2.1198
1.93622
1.76425
1.60394
1.45512
1.31743
1.19138
1.07824
0.979386
0.895887
0.828001
0.775247
0.736543
0.70987
0.691741
0.677166
0.660202
0.634462
0.593223
0.529778
0.439689
0.321609
0.186303
0.0600929
3.39524
3.19803
2.98141
2.75136
2.52549
2.31189
2.11373
1.93026
1.76036
1.60296
1.45704
1.32199
1.19821
1.08688
0.989116
0.905466
0.835919
0.780114
0.737277
0.705722
0.682338
0.662551
0.64083
0.611214
0.56739
0.502831
0.412043
0.293823
0.163285
0.0516772
3.39886
3.16716
2.92782
2.68883
2.46504
2.25915
2.07003
1.89523
1.73343
1.58356
1.44405
1.31388
1.1937
1.08516
0.98943
0.906602
0.836285
0.778228
0.732127
0.696821
0.669601
0.646164
0.621203
0.58908
0.543893
0.479077
0.387934
0.269241
0.14248
0.0440276
3.22072
2.96039
2.73558
2.52477
2.33043
2.15238
1.98732
1.83112
1.68395
1.54663
1.41725
1.29406
1.17846
1.07352
0.980877
0.900003
0.82982
0.770218
0.721665
0.683771
0.654248
0.628877
0.602327
0.569147
0.523822
0.45958
0.368441
0.248812
0.12438
0.0372776
2.77203
2.49625
2.36389
2.25002
2.12272
1.99639
1.87252
1.74403
1.61608
1.49564
1.38008
1.26537
1.15432
1.05318
0.96472
0.887118
0.817885
0.757134
0.706667
0.667248
0.637002
0.611516
0.585116
0.552311
0.507946
0.445148
0.354462
0.233433
0.109535
0.0315553
1.89683
1.62118
1.76237
1.88566
1.8625
1.80738
1.74248
1.64664
1.53618
1.43541
1.33797
1.2323
1.12376
1.0255
0.94246
0.869854
0.802207
0.740095
0.687751
0.647693
0.61836
0.594699
0.570244
0.539201
0.496755
0.436218
0.346735
0.224154
0.098743
0.0269439
141.74
141.821
142.009
142.294
142.659
143.095
143.593
144.145
144.74
145.368
146.013
146.662
147.296
147.896
148.439
148.899
149.244
149.436
149.431
149.171
148.586
147.579
146.016
143.704
140.344
135.44
128.07
116.316
94.1374
34.2357
141.012
141.084
141.25
141.5
141.819
142.197
142.627
143.098
143.6
144.121
144.646
145.159
145.641
146.071
146.425
146.673
146.78
146.705
146.395
145.787
144.795
143.307
141.164
138.135
133.862
127.76
118.799
105.245
85.7398
57.349
140.243
140.304
140.447
140.661
140.933
141.252
141.611
141.999
142.406
142.818
143.22
143.595
143.924
144.183
144.347
144.383
144.255
143.917
143.312
142.372
141.003
139.087
136.458
132.887
128.049
121.491
112.625
100.818
86.6352
70.1229
139.432
139.483
139.602
139.779
140.002
140.262
140.549
140.853
141.163
141.465
141.744
141.981
142.157
142.246
142.223
142.052
141.696
141.107
140.226
138.983
137.285
135.015
132.022
128.11
123.033
116.499
108.216
97.8558
85.3616
70.3018
138.582
138.623
138.717
138.857
139.031
139.229
139.444
139.663
139.877
140.069
140.225
140.326
140.351
140.275
140.069
139.701
139.13
138.308
137.178
135.671
133.7
131.159
127.92
123.826
118.7
112.342
104.554
95.0958
83.8027
70.883
137.695
137.725
137.795
137.897
138.021
138.159
138.301
138.436
138.553
138.637
138.673
138.64
138.519
138.283
137.905
137.351
136.581
135.551
134.204
132.476
130.291
127.557
124.17
120.012
114.952
108.858
101.607
93.103
83.3372
72.7234
136.773
136.793
136.838
136.903
136.978
137.055
137.124
137.177
137.199
137.178
137.095
136.934
136.673
136.286
135.747
135.022
134.075
132.861
131.331
129.428
127.085
124.228
120.775
116.641
111.739
105.989
99.3392
91.7787
83.3519
74.3941
135.821
135.83
135.851
135.878
135.904
135.921
135.921
135.892
135.822
135.698
135.503
135.219
134.826
134.299
133.612
132.734
131.63
130.261
128.583
126.547
124.097
121.177
117.725
113.682
108.996
103.628
97.5621
90.8211
83.4544
75.7332
134.841
134.84
134.836
134.827
134.805
134.764
134.695
134.587
134.429
134.207
133.905
133.507
132.991
132.335
131.515
130.502
129.265
127.769
125.976
123.845
121.334
118.399
114.997
111.091
106.651
101.664
96.1356
90.0998
83.6103
76.8938
133.837
133.826
133.799
133.754
133.686
133.588
133.453
133.27
133.028
132.713
132.312
131.806
131.178
130.407
129.47
128.341
126.993
125.396
123.519
121.329
118.794
115.882
112.566
108.823
104.64
100.02
94.9792
89.5575
83.8077
77.9138
132.815
132.794
132.745
132.665
132.552
132.401
132.202
131.948
131.626
131.225
130.731
130.129
129.4
128.526
127.488
126.262
124.825
123.152
121.218
118.999
116.47
113.609
110.401
106.835
102.91
98.6341
94.0324
89.1435
84.0153
78.7955
131.778
131.748
131.677
131.565
131.41
131.207
130.949
130.628
130.232
129.752
129.173
128.483
127.665
126.703
125.579
124.273
122.767
121.041
119.074
116.849
114.349
111.561
108.476
105.092
101.414
97.457
93.2462
88.8176
84.213
79.551
130.733
130.695
130.603
130.459
130.264
130.013
129.7
129.317
128.854
128.301
127.647
126.879
125.983
124.946
123.751
122.383
120.826
119.065
117.086
114.874
112.42
109.717
106.762
103.558
100.115
96.4482
92.5835
88.5527
84.3914
80.1956
129.685
129.638
129.528
129.355
129.122
128.827
128.463
128.023
127.498
126.88
126.159
125.323
124.361
123.261
122.009
120.594
119.003
117.224
115.248
113.064
110.669
108.059
105.236
102.206
98.9803
95.5765
92.0171
88.3303
84.5463
80.7427
128.641
128.586
128.457
128.258
127.991
127.655
127.244
126.752
126.172
125.497
124.717
123.823
122.806
121.655
120.36
118.911
117.299
115.516
113.555
111.411
109.082
106.568
103.875
101.01
97.9848
94.8168
91.5262
88.1374
84.6756
81.2042
127.605
127.544
127.399
127.175
126.876
126.503
126.05
125.513
124.884
124.158
123.328
122.386
121.323
120.132
118.804
117.333
115.712
113.936
112
109.903
107.645
105.229
102.66
99.949
97.107
94.1497
91.0955
87.965
84.7796
81.5909
126.587
126.519
126.359
126.112
125.786
125.379
124.889
124.311
123.64
122.871
121.998
121.015
119.916
118.695
117.345
115.862
114.242
112.48
110.577
108.531
106.346
104.024
101.575
99.0059
96.3296
93.5601
90.7133
87.8071
84.8594
81.9125
125.591
125.517
125.344
125.078
124.726
124.29
123.767
123.153
122.446
121.641
120.733
119.718
118.591
117.348
115.984
114.497
112.885
111.145
109.278
107.286
105.173
102.943
100.604
98.1659
95.6389
93.036
90.3713
87.6599
84.9171
82.1777
124.626
124.547
124.362
124.078
123.704
123.242
122.691
122.047
121.309
120.473
119.537
118.497
117.349
116.092
114.721
113.237
111.638
109.924
108.097
106.16
104.116
101.973
99.737
97.4172
95.0239
92.5684
90.0632
87.5211
84.9551
82.3941
123.699
123.616
123.42
123.12
122.727
122.243
121.667
120.998
120.234
119.374
118.415
117.356
116.194
114.928
113.557
112.081
110.499
108.814
107.028
105.144
103.168
101.105
98.9628
96.75
94.4758
92.1504
89.7846
87.3896
84.9763
82.5688
122.817
122.73
122.525
122.212
121.802
121.299
120.703
120.013
119.228
118.348
117.372
116.299
115.128
113.859
112.491
111.026
109.465
107.81
106.064
104.232
102.319
100.33
98.2735
96.1566
93.988
91.7769
89.5326
87.265
84.9834
82.708
121.989
121.898
121.685
121.361
120.936
120.417
119.804
119.097
118.296
117.401
116.412
115.33
114.154
112.885
111.524
110.073
108.534
106.909
105.202
103.419
101.564
99.643
97.663
95.6313
93.5556
91.4443
89.3056
87.148
84.9798
82.8176
121.222
121.128
120.908
120.574
120.137
119.605
118.978
118.257
117.442
116.536
115.539
114.451
113.273
112.008
110.656
109.22
107.703
106.107
104.438
102.7
100.898
99.0377
97.1258
95.1691
93.1747
91.1499
89.1022
87.0392
84.9679
82.9025
120.524
120.427
120.202
119.859
119.412
118.869
118.23
117.498
116.674
115.76
114.756
113.666
112.489
111.229
109.887
108.467
106.972
105.404
103.77
102.073
100.318
98.5114
96.6592
94.7677
92.8434
90.893
88.9233
86.9407
84.9519
82.9686
119.904
119.805
119.574
119.223
118.768
118.215
117.568
116.828
115.996
115.076
114.069
112.977
111.804
110.55
109.219
107.814
106.339
104.797
103.194
101.533
99.8197
98.06
96.2593
94.4236
92.559
90.6716
88.7675
86.8526
84.9327
83.0178
119.372
119.27
119.033
118.675
118.213
117.653
116.999
116.252
115.415
114.491
113.483
112.392
111.222
109.975
108.654
107.264
105.807
104.289
102.712
101.082
99.405
97.6849
95.9277
94.1388
92.324
90.489
88.6393
86.7804
84.9176
83.0594
118.937
118.831
118.587
118.221
117.752
117.186
116.526
115.775
114.934
114.008
112.999
111.909
110.743
109.503
108.192
106.814
105.374
103.874
102.32
100.717
99.0689
97.3812
95.6591
93.908
92.1332
90.3399
88.5335
86.7189
84.9011
83.0869
118.61
118.499
118.246
117.874
117.399
116.829
116.165
115.41
114.567
113.639
112.63
111.542
110.38
109.145
107.843
106.476
105.048
103.564
102.028
100.446
98.8207
97.1584
95.4639
93.7422
91.9985
90.2377
88.4649
86.6848
84.9022
83.1232
118.408
118.273
118.003
117.625
117.148
116.575
115.909
115.152
114.308
113.38
112.372
111.286
110.127
108.897
107.6
106.241
104.823
103.35
101.827
100.258
98.6489
97.0037
95.3276
93.6254
91.9022
90.1627
88.4118
86.6539
84.8935
83.1356
118.39
118.191
117.892
117.507
117.028
116.452
115.783
115.024
114.179
113.251
112.244
111.16
110.003
108.777
107.485
106.131
104.719
103.254
101.74
100.181
98.5816
96.9476
95.2833
93.5935
91.8832
90.1569
88.4195
86.6752
84.9285
83.1835
-50.0054
-29.8786
-10.3241
37.1355
29.9696
18.4942
52.8087
40.8865
29.8886
54.1314
43.787
35.8318
58.4067
50.1792
43.4826
62.75
55.8872
50.037
65.9753
60.1258
55.1033
68.5258
63.5228
59.231
70.6743
66.3568
62.6591
72.4866
68.7175
65.4971
74.0092
70.6848
67.8514
75.2911
72.3317
69.8145
76.3724
73.7155
71.4591
77.2849
74.8811
72.8418
78.0547
75.8645
74.0077
78.7034
76.6948
74.9925
79.249
77.3957
75.8251
79.7064
77.9866
76.5286
80.0883
78.4837
77.1222
80.4058
78.9005
77.622
80.6681
79.2485
78.0414
80.8837
79.5379
78.392
81.0592
79.7767
78.6831
81.2026
79.974
78.9245
81.3164
80.133
79.1206
81.4121
80.2661
79.2838
81.4811
80.3649
79.4074
81.5521
80.4586
79.5183
81.5848
80.5076
79.5814
81.6537
80.5907
79.6709
-0.949305
-0.754717
0.617933
1.56242
1.62825
1.60646
1.61322
1.55305
1.44784
1.3701
1.29874
1.20132
1.08894
0.990722
0.915141
0.850494
0.78494
0.720157
0.665149
0.625123
0.59852
0.578888
0.558352
0.530516
0.49091
0.433391
0.346218
0.222452
0.0930596
0.0235394
4.9096
1.68966
2.43623
2.16287
1.26733
1.15496
1.48376
1.53866
1.376
1.30475
1.26959
1.17894
1.0489
0.946547
0.883629
0.832817
0.769334
0.697973
0.637993
0.598569
0.577141
0.564401
0.550096
0.526912
0.490882
0.436963
0.353434
0.229807
0.0939785
0.0216789
15.7464
7.26857
4.29454
2.33123
1.71719
1.9779
2.15961
1.61996
1.09763
1.09155
1.24973
1.20681
1.02149
0.898596
0.849795
0.821201
0.758779
0.672799
0.604607
0.567427
0.554984
0.552718
0.546881
0.529414
0.497594
0.448047
0.370232
0.250173
0.106731
0.0223153
25.1868
15.3767
9.576
5.89069
3.88213
2.87188
2.1372
1.58678
1.36062
1.53262
1.63948
1.28443
0.88507
0.740938
0.7649
0.823735
0.772508
0.653651
0.569283
0.534011
0.533987
0.546051
0.550909
0.540368
0.514119
0.470053
0.399359
0.286325
0.134671
0.0258351
34.2157
24.5144
17.2241
11.9102
8.19764
5.66218
3.92177
2.80643
2.1445
1.81029
1.5419
1.26159
1.00719
0.902527
0.957658
0.978036
0.794511
0.580645
0.481817
0.470719
0.507768
0.550036
0.569382
0.564436
0.542703
0.503451
0.438667
0.334112
0.178114
0.0317048
42.085
33.1953
25.3253
18.8943
13.9509
10.2613
7.54425
5.56633
4.13681
3.12708
2.4012
1.86333
1.4372
1.15567
1.02186
0.923601
0.78789
0.638618
0.554239
0.546493
0.576359
0.600156
0.601287
0.586944
0.571859
0.54735
0.491659
0.39495
0.249289
0.0405818
48.4977
40.7152
32.9571
26.0739
20.4329
15.9292
12.3574
9.54499
7.35838
5.6879
4.41548
3.42402
2.63788
2.05055
1.6443
1.34813
1.09532
0.868127
0.707883
0.633154
0.619467
0.631957
0.648468
0.663587
0.672849
0.651137
0.580534
0.469664
0.345174
0.0515119
53.7218
47.0035
39.7571
32.9293
27.0321
22.0561
17.8789
14.4074
11.564
9.26464
7.41247
5.91276
4.7001
3.7422
3.0043
2.42728
1.95147
1.55449
1.25333
1.05588
0.94088
0.875889
0.836619
0.8116
0.789595
0.748282
0.667979
0.543041
0.382662
-0.0425455
57.9847
52.1731
45.5927
39.1168
33.286
28.1503
23.6477
19.7411
16.3989
13.5724
11.1981
9.21043
7.55468
6.18989
5.07624
4.16494
3.40895
2.78316
2.28445
1.90792
1.63293
1.43084
1.27757
1.15667
1.0518
0.940588
0.800802
0.61455
0.352811
-0.26633
61.4635
56.3957
50.4918
44.5012
38.934
33.867
29.2717
25.1441
21.4856
18.2805
15.4958
13.0911
11.0265
9.26617
7.77499
6.51462
5.44805
4.54901
3.80321
3.19801
2.71351
2.32445
2.00685
1.74017
1.50374
1.27332
1.02269
0.721158
0.31209
-0.470576
64.3202
59.8574
54.5724
49.0957
43.8852
39.0232
34.497
30.3184
26.5088
23.0746
20.0058
17.2825
14.8808
12.7757
10.941
9.34814
7.96843
6.77794
5.7589
4.89543
4.1683
3.55463
3.03086
2.57445
2.16231
1.76851
1.36324
0.907939
0.341031
-0.552206
66.6861
62.717
57.9718
52.9825
48.153
43.5612
39.1999
35.0865
31.2509
27.7124
24.4758
21.5363
18.8835
16.5037
14.3801
12.4932
10.8224
9.34821
8.05383
6.92316
5.9382
5.07829
4.32125
3.64447
3.02419
2.4339
1.84275
1.21163
0.488381
-0.486923
68.6594
65.0973
60.8135
56.2631
51.8017
47.4993
43.3495
39.3694
35.5911
32.0396
28.7282
25.662
22.8402
20.2582
17.9075
15.7769
13.8528
12.1209
10.5673
9.17774
7.93631
6.82486
5.82342
4.91067
4.06369
3.25697
2.46135
1.64224
0.761039
-0.29433
70.3143
67.0912
63.2
59.0353
54.9125
50.8929
46.9692
43.156
39.4837
35.979
32.6594
29.5354
26.6127
23.8931
21.3747
19.0525
16.9189
14.9646
13.1792
11.5513
10.0675
8.71268
7.46934
6.3184
5.23891
4.20768
3.19902
2.18475
1.13851
-0.0125191
71.708
68.7695
65.2128
61.3839
57.5646
53.8092
50.1081
46.4729
42.931
39.5084
36.224
33.091
30.1188
27.3136
24.6778
22.2113
19.911
17.7717
15.7867
13.9474
12.2434
10.6622
9.18928
7.80806
6.50023
5.24561
4.02255
2.80902
1.5876
0.316191
72.8849
70.1871
66.9161
63.3786
59.8283
56.3132
52.8223
49.3634
45.9608
42.6387
39.4155
36.3057
33.3205
30.4684
27.7551
25.1836
22.7542
20.4651
18.3124
16.2905
14.3915
12.6056
10.921
9.3239
7.79857
6.32795
4.89413
3.47988
2.07312
0.654436
73.8802
71.3868
68.3608
65.0758
61.7624
58.4632
55.1658
51.8749
48.6114
45.3971
42.2494
39.1828
36.209
33.338
30.5772
27.9317
25.4044
22.9958
20.7046
18.5273
16.4586
14.4911
12.6153
10.8197
9.09144
7.41597
5.77839
4.16463
2.56489
0.975103
74.7222
72.403
69.5874
66.5215
63.4158
60.3089
57.1871
54.0525
50.9226
47.8168
44.7512
41.7393
38.7929
35.9224
33.1361
30.4406
27.8403
25.3376
22.9329
20.6249
18.4101
16.2831
14.2365
12.2611
10.3459
8.47867
6.64658
4.83726
3.04098
1.26277
75.4341
73.2635
70.6289
67.7529
64.8291
61.8923
58.9282
55.9366
52.932
49.9314
46.9492
43.9979
41.0888
38.232
35.4363
32.709
30.0554
27.4793
24.9825
22.5651
20.2253
17.9593
15.7615
13.6243
11.5385
9.49357
7.47782
5.47956
3.48787
1.51203
76.0349
73.9912
71.5123
68.8009
66.0356
63.2486
60.4251
57.5627
54.6736
51.7724
48.8719
45.9832
43.1168
40.2823
37.4887
34.7432
32.0518
29.4192
26.8481
24.3397
21.8935
19.5071
17.1761
14.8944
12.6541
10.4458
8.25844
6.08034
3.89889
1.72434
76.5404
74.605
72.2599
69.6908
67.0634
64.4076
61.7083
58.9617
56.1774
53.3683
50.5453
47.7185
44.8971
42.0903
39.3065
36.5529
33.836
31.1604
28.5299
25.9464
23.4102
20.9199
18.4723
16.0624
13.6832
11.3259
8.97998
6.63331
4.27164
1.90428
76.9644
75.1212
72.8908
70.4441
67.9361
65.3945
62.8042
60.16
57.4699
54.7445
51.9936
49.2259
46.4496
43.6731
40.9042
38.1499
35.4166
32.7091
30.0315
27.3863
24.7745
22.1953
19.6464
17.1235
14.6204
12.1286
9.63797
7.13575
4.6064
2.05733
77.3179
75.5526
73.4201
71.0784
68.673
66.23
63.7344
61.18
58.573
55.9228
53.2375
50.5248
47.7919
45.0463
42.2951
39.5452
36.8023
34.0716
31.3572
28.6618
25.9868
23.3322
20.696
18.0744
15.4619
12.8502
10.2292
7.58583
4.9035
2.18735
77.6115
75.9119
73.8621
71.6096
69.2915
66.9329
64.5186
62.0419
59.5074
56.9233
54.2966
51.6338
48.9412
46.2256
43.4933
40.7507
38.0034
35.2562
32.5133
29.7774
27.0504
24.3323
21.6217
18.9151
16.2072
13.4902
10.7537
7.98441
5.16519
2.29842
77.8516
76.2064
74.2258
72.0479
69.8032
67.5155
65.1701
62.7593
60.287
57.7599
55.1842
52.5654
49.9092
47.2213
44.5077
41.774
39.0255
36.267
33.5022
30.7342
27.9646
25.1939
22.4208
19.6421
16.8526
14.0446
11.2077
8.32845
5.38944
2.39034
78.0496
76.4487
74.525
72.4085
70.2242
67.995
65.7065
63.3506
60.9302
58.451
55.9186
53.3375
50.7128
48.0495
45.3532
42.6288
39.8813
37.1151
34.334
31.5407
28.7372
25.9237
23.0992
20.2606
17.4027
14.5181
11.5961
8.62332
5.58197
2.46839
78.2025
76.6365
74.7577
72.69
70.5536
68.371
66.128
63.816
61.4372
58.9968
56.4994
53.9492
51.3505
48.708
46.0264
43.3106
40.565
37.7938
35.0006
32.1881
29.358
26.5108
23.6454
20.7587
17.8457
14.8988
11.9074
8.85792
5.7327
2.52548
78.3324
76.7922
74.9476
72.9168
70.8167
68.6694
66.4608
64.1822
61.8352
59.4243
56.9539
54.4274
51.849
49.2226
46.5528
43.844
41.1005
38.3261
35.5242
32.6975
29.8476
26.9749
24.0783
21.1549
18.1995
15.2045
12.1592
9.04979
5.85837
2.57456
78.4122
76.8883
75.0659
73.0603
70.9847
68.8609
66.6753
64.4192
62.0934
59.7024
57.2501
54.7397
52.1749
49.5596
46.8979
44.1941
41.4521
38.6758
35.8683
33.0322
30.1691
27.2794
24.362
21.4138
18.4296
15.4018
12.3194
9.16828
5.93048
2.59377
78.501
76.9782
75.1682
73.1777
71.1158
69.0047
66.8314
64.587
62.2724
59.8916
57.4484
54.9459
52.3877
49.7774
47.1191
44.4169
41.6748
38.8963
36.0848
33.2426
30.3715
27.4717
24.5421
21.5797
18.5793
15.5331
12.4298
9.25422
5.98599
2.60071
)
;

boundaryField
{
    inlet
    {
        type            zeroGradient;
    }
    outlet
    {
        type            fixedValue;
        value           uniform 0;
    }
    flap
    {
        type            zeroGradient;
    }
    upperWall
    {
        type            zeroGradient;
    }
    lowerWall
    {
        type            zeroGradient;
    }
    frontAndBack
    {
        type            empty;
    }
}


// ************************************************************************* //
