/*--------------------------------*- C++ -*----------------------------------*\
  =========                 |
  \\      /  F ield         | OpenFOAM: The Open Source CFD Toolbox
   \\    /   O peration     | Website:  https://openfoam.org
    \\  /    A nd           | Version:  dev
     \\/     M anipulation  |
\*---------------------------------------------------------------------------*/
FoamFile
{
    version     2.0;
    format      ascii;
    class       volVectorField;
    location    "2.4";
    object      U;
}
// * * * * * * * * * * * * * * * * * * * * * * * * * * * * * * * * * * * * * //

dimensions      [0 1 -1 0 0 0 0];

internalField   nonuniform List<vector> 
2790
(
(9.94399 0 0.0205244)
(9.87571 0 0.0295902)
(9.77519 0 0.0359934)
(9.6494 0 0.0425614)
(9.50403 0 0.0493921)
(9.33998 0 0.0564364)
(9.15643 0 0.0638253)
(8.95248 0 0.0717223)
(8.72728 0 0.0802671)
(8.47986 0 0.0895864)
(8.20901 0 0.0998072)
(7.91335 0 0.11106)
(7.59135 0 0.123475)
(7.24141 0 0.137179)
(6.86193 0 0.152287)
(6.45137 0 0.168884)
(6.00843 0 0.187009)
(5.53222 0 0.206629)
(5.0225 0 0.227598)
(4.47998 0 0.249615)
(3.9067 0 0.272177)
(3.30639 0 0.294521)
(2.68488 0 0.31561)
(2.05025 0 0.334273)
(1.41148 0 0.350584)
(0.797782 0 0.372858)
(0.110402 0 0.32488)
(-0.469449 0 -0.114872)
(-0.453742 0 -0.296994)
(-0.231119 0 -0.423741)
(9.9985 0 0.0407067)
(9.98145 0 0.0623904)
(9.93572 0 0.0791517)
(9.86412 0 0.0966403)
(9.77091 0 0.115143)
(9.65706 0 0.134511)
(9.52194 0 0.155002)
(9.3647 0 0.176973)
(9.18453 0 0.20074)
(8.98045 0 0.226585)
(8.75126 0 0.254781)
(8.49558 0 0.285598)
(8.21186 0 0.319287)
(7.89845 0 0.356059)
(7.55363 0 0.396053)
(7.17576 0 0.439292)
(6.76333 0 0.485616)
(6.31519 0 0.534603)
(5.83077 0 0.58547)
(5.3104 0 0.636952)
(4.75569 0 0.687191)
(4.16997 0 0.733622)
(3.55889 0 0.772916)
(2.93118 0 0.801044)
(2.29963 0 0.813689)
(1.69269 0 0.807182)
(1.10692 0 0.747133)
(0.658749 0 0.547806)
(0.186169 0 0.22441)
(-0.00817898 0 -0.453733)
(9.99559 0 0.0432132)
(9.97555 0 0.0752844)
(9.93178 0 0.103365)
(9.86486 0 0.132397)
(9.77772 0 0.163092)
(9.67146 0 0.195438)
(9.54576 0 0.229787)
(9.39999 0 0.266653)
(9.23347 0 0.306525)
(9.04542 0 0.349866)
(8.83483 0 0.397133)
(8.60052 0 0.448784)
(8.34112 0 0.505254)
(8.05514 0 0.566922)
(7.74099 0 0.634064)
(7.39703 0 0.706777)
(7.02167 0 0.784873)
(6.61351 0 0.867747)
(6.17148 0 0.954203)
(5.69519 0 1.04225)
(5.18519 0 1.12886)
(4.64354 0 1.20974)
(4.0744 0 1.27909)
(3.48502 0 1.32925)
(2.88654 0 1.34999)
(2.29921 0 1.32631)
(1.73163 0 1.22063)
(1.21609 0 0.972866)
(0.701031 0 0.57003)
(0.357934 0 -0.156699)
(9.99402 0 0.049508)
(9.9718 0 0.0932241)
(9.92786 0 0.133599)
(9.86221 0 0.174245)
(9.77687 0 0.216479)
(9.6729 0 0.260715)
(9.5502 0 0.307492)
(9.40834 0 0.357485)
(9.24684 0 0.411367)
(9.06511 0 0.469786)
(8.86243 0 0.533385)
(8.6379 0 0.602808)
(8.39052 0 0.678674)
(8.11916 0 0.761552)
(7.82261 0 0.85189)
(7.4996 0 0.949934)
(7.14881 0 1.05559)
(6.769 0 1.16827)
(6.35905 0 1.28661)
(5.91816 0 1.40825)
(5.4461 0 1.52943)
(4.9436 0 1.64462)
(4.41279 0 1.74605)
(3.85793 0 1.8231)
(3.28553 0 1.86122)
(2.70616 0 1.84016)
(2.12545 0 1.72582)
(1.55411 0 1.47768)
(0.95786 0 1.08352)
(0.509382 0 0.50217)
(9.99331 0 0.0572249)
(9.96993 0 0.110982)
(9.92591 0 0.162139)
(9.86142 0 0.213394)
(9.77793 0 0.266415)
(9.67626 0 0.321984)
(9.55642 0 0.380782)
(9.41806 0 0.443578)
(9.26078 0 0.511154)
(9.08411 0 0.584273)
(8.88744 0 0.663694)
(8.67008 0 0.75017)
(8.43125 0 0.844438)
(8.17009 0 0.947181)
(7.88568 0 1.05896)
(7.57705 0 1.18015)
(7.24322 0 1.31074)
(6.88316 0 1.45021)
(6.49583 0 1.59722)
(6.08029 0 1.7493)
(5.63573 0 1.90235)
(5.16172 0 2.05022)
(4.65841 0 2.18405)
(4.12689 0 2.29158)
(3.56912 0 2.35638)
(2.98866 0 2.35711)
(2.38665 0 2.26473)
(1.76626 0 2.04741)
(1.08991 0 1.69117)
(0.536611 0 1.15393)
(9.99302 0 0.0655526)
(9.96922 0 0.12873)
(9.92554 0 0.190156)
(9.86249 0 0.251901)
(9.78122 0 0.31565)
(9.68235 0 0.382405)
(9.56589 0 0.452973)
(9.43156 0 0.528211)
(9.27901 0 0.609)
(9.10783 0 0.696211)
(8.9175 0 0.79071)
(8.70742 0 0.893355)
(8.47693 0 1.00498)
(8.22529 0 1.12637)
(7.95173 0 1.25819)
(7.65544 0 1.4009)
(7.33556 0 1.5546)
(6.99116 0 1.71889)
(6.62121 0 1.89255)
(6.22454 0 2.07318)
(5.79984 0 2.25677)
(5.34563 0 2.43708)
(4.86033 0 2.60504)
(4.34237 0 2.74802)
(3.79012 0 2.84932)
(3.20235 0 2.88794)
(2.5764 0 2.83795)
(1.91335 0 2.67133)
(1.17268 0 2.37372)
(0.549932 0 1.89414)
(9.99297 0 0.0740914)
(9.96926 0 0.146348)
(9.92635 0 0.217534)
(9.86504 0 0.28936)
(9.78636 0 0.363441)
(9.69075 0 0.44093)
(9.57822 0 0.522778)
(9.44855 0 0.609942)
(9.30145 0 0.703398)
(9.13653 0 0.804116)
(8.95336 0 0.913056)
(8.75137 0 1.03117)
(8.52996 0 1.15937)
(8.28846 0 1.29854)
(8.02614 0 1.44942)
(7.74221 0 1.61258)
(7.4358 0 1.78826)
(7.10589 0 1.9762)
(6.75129 0 2.1754)
(6.37051 0 2.38376)
(5.96162 0 2.59764)
(5.5222 0 2.81123)
(5.04913 0 3.01595)
(4.53866 0 3.19972)
(3.98638 0 3.3464)
(3.38769 0 3.43566)
(2.73709 0 3.44298)
(2.03613 0 3.34116)
(1.24169 0 3.11325)
(0.563485 0 2.69284)
(9.99306 0 0.0826074)
(9.9698 0 0.163645)
(9.92805 0 0.24411)
(9.86881 0 0.32556)
(9.79306 0 0.409546)
(9.70116 0 0.497326)
(9.5931 0 0.589976)
(9.46871 0 0.68855)
(9.32775 0 0.794107)
(9.16989 0 0.907707)
(8.99472 0 1.0304)
(8.80176 0 1.16322)
(8.59042 0 1.30719)
(8.36007 0 1.46326)
(8.10997 0 1.63229)
(7.83929 0 1.81499)
(7.54707 0 2.01175)
(7.23212 0 2.22255)
(6.89294 0 2.44672)
(6.52762 0 2.68262)
(6.13356 0 2.92723)
(5.70736 0 3.17558)
(5.24454 0 3.42012)
(4.73941 0 3.6499)
(4.18518 0 3.8499)
(3.57453 0 4.00052)
(2.89936 0 4.07752)
(2.16201 0 4.052)
(1.31607 0 3.90133)
(0.583196 0 3.5398)
(9.99326 0 0.0909504)
(9.97071 0 0.180454)
(9.93044 0 0.269736)
(9.87358 0 0.360333)
(9.80111 0 0.453762)
(9.71334 0 0.551347)
(9.61024 0 0.65427)
(9.49171 0 0.763673)
(9.35754 0 0.880698)
(9.20747 0 1.00649)
(9.04114 0 1.14217)
(8.85811 0 1.28888)
(8.65785 0 1.44773)
(8.43975 0 1.61978)
(8.20306 0 1.80604)
(7.9469 0 2.00735)
(7.6702 0 2.22435)
(7.37156 0 2.45732)
(7.04918 0 2.70604)
(6.70066 0 2.96949)
(6.32276 0 3.24551)
(5.9111 0 3.53031)
(5.45988 0 3.81777)
(4.9616 0 4.09863)
(4.40708 0 4.35945)
(3.78616 0 4.58166)
(3.08741 0 4.74063)
(2.31262 0 4.80402)
(1.41061 0 4.74068)
(0.614296 0 4.44155)
(9.99352 0 0.0990172)
(9.9719 0 0.19663)
(9.93338 0 0.294272)
(9.8792 0 0.39352)
(9.81033 0 0.495886)
(9.72706 0 0.602744)
(9.62939 0 0.715363)
(9.51723 0 0.834964)
(9.39045 0 0.962765)
(9.24885 0 1.09998)
(9.09212 0 1.24784)
(8.91989 0 1.40754)
(8.73168 0 1.58031)
(8.52692 0 1.76733)
(8.30488 0 1.96976)
(8.06466 0 2.18865)
(7.80508 0 2.42491)
(7.52463 0 2.67923)
(7.22122 0 2.95191)
(6.89208 0 3.24273)
(6.53336 0 3.55061)
(6.13985 0 3.87322)
(5.70449 0 4.20634)
(5.21801 0 4.54295)
(4.66862 0 4.87194)
(4.04261 0 5.17643)
(3.32354 0 5.43177)
(2.5097 0 5.60147)
(1.54186 0 5.64306)
(0.664062 0 5.41766)
(9.99384 0 0.106732)
(9.97329 0 0.212057)
(9.93677 0 0.317589)
(9.88553 0 0.424972)
(9.82056 0 0.535735)
(9.74214 0 0.651296)
(9.6503 0 0.77299)
(9.54499 0 0.902114)
(9.42614 0 1.03995)
(9.29361 0 1.18779)
(9.14717 0 1.34691)
(8.98653 0 1.51864)
(8.81127 0 1.70427)
(8.62089 0 1.90514)
(8.41472 0 2.12255)
(8.19187 0 2.3578)
(7.95117 0 2.61211)
(7.69104 0 2.88662)
(7.40928 0 3.18228)
(7.10286 0 3.49977)
(6.76758 0 3.83927)
(6.39761 0 4.20023)
(5.9849 0 4.58076)
(5.51852 0 4.9768)
(4.98395 0 5.38071)
(4.36298 0 5.7789)
(3.63176 0 6.14849)
(2.7801 0 6.45009)
(1.7335 0 6.62805)
(0.744874 0 6.50274)
(9.9942 0 0.114037)
(9.97486 0 0.226638)
(9.94053 0 0.339569)
(9.89247 0 0.454552)
(9.83166 0 0.573146)
(9.7584 0 0.696805)
(9.67273 0 0.826921)
(9.57468 0 0.964849)
(9.46423 0 1.11193)
(9.34131 0 1.26952)
(9.20578 0 1.43897)
(9.05743 0 1.62166)
(8.89593 0 1.81901)
(8.72089 0 2.03247)
(8.53172 0 2.26351)
(8.32765 0 2.51368)
(8.10757 0 2.78453)
(7.86998 0 3.07767)
(7.61274 0 3.39474)
(7.33284 0 3.73739)
(7.02603 0 4.10723)
(6.68629 0 4.50567)
(6.3051 0 4.93361)
(5.8704 0 5.39081)
(5.36525 0 5.87461)
(4.76656 0 6.37743)
(4.04059 0 6.88242)
(3.16152 0 7.35281)
(2.02491 0 7.72273)
(0.880852 0 7.75685)
(9.99459 0 0.120888)
(9.97656 0 0.240294)
(9.94459 0 0.360113)
(9.8999 0 0.482143)
(9.84348 0 0.607975)
(9.77564 0 0.739099)
(9.69646 0 0.876949)
(9.60602 0 1.02293)
(9.50437 0 1.17843)
(9.39152 0 1.34485)
(9.26742 0 1.52361)
(9.13196 0 1.71615)
(8.98493 0 1.92398)
(8.82607 0 2.14865)
(8.65493 0 2.39181)
(8.47089 0 2.65522)
(8.27307 0 2.94076)
(8.06015 0 3.25049)
(7.83028 0 3.58673)
(7.58077 0 3.95209)
(7.30774 0 4.34961)
(7.00562 0 4.78276)
(6.66625 0 5.25553)
(6.27763 0 5.77219)
(5.82179 0 6.33677)
(5.27206 0 6.95138)
(4.58442 0 7.6126)
(3.71016 0 8.30004)
(2.48857 0 8.95774)
(1.12477 0 9.29329)
(9.99501 0 0.127248)
(9.97836 0 0.252961)
(9.94888 0 0.379137)
(9.90774 0 0.507643)
(9.8559 0 0.640105)
(9.7937 0 0.77804)
(9.72126 0 0.922917)
(9.63872 0 1.07617)
(9.5462 0 1.23924)
(9.44379 0 1.41355)
(9.33154 0 1.60056)
(9.20946 0 1.80177)
(9.07748 0 2.01876)
(8.93548 0 2.25317)
(8.78322 0 2.50677)
(8.62031 0 2.78152)
(8.44614 0 3.07957)
(8.25978 0 3.40339)
(8.05984 0 3.75586)
(7.84427 0 4.14045)
(7.61009 0 4.56146)
(7.35285 0 5.02429)
(7.06596 0 5.53589)
(6.73933 0 6.10526)
(6.35705 0 6.74412)
(5.89352 0 7.4676)
(5.30068 0 8.29491)
(4.50931 0 9.24674)
(3.26971 0 10.3413)
(1.60575 0 11.36)
(9.99544 0 0.133091)
(9.98025 0 0.264587)
(9.95336 0 0.396568)
(9.9159 0 0.53096)
(9.8688 0 0.669415)
(9.8124 0 0.813474)
(9.74691 0 0.964628)
(9.67249 0 1.12434)
(9.58935 0 1.29407)
(9.49766 0 1.47526)
(9.39759 0 1.66941)
(9.28926 0 1.87804)
(9.17276 0 2.10277)
(9.04815 0 2.34532)
(8.91542 0 2.60755)
(8.77446 0 2.89153)
(8.62503 0 3.19963)
(8.46668 0 3.53458)
(8.2987 0 3.89969)
(8.11994 0 4.29906)
(7.92872 0 4.73789)
(7.72249 0 5.22304)
(7.49742 0 5.76371)
(7.24767 0 6.37273)
(6.96377 0 7.06855)
(6.63025 0 7.87904)
(6.21439 0 8.84971)
(5.66684 0 10.0638)
(4.69243 0 11.7299)
(2.68951 0 14.5955)
(0.17832 0 -0.191785)
(0.401804 0 -0.167454)
(0.636803 0 -0.137143)
(0.84514 0 -0.111745)
(1.02116 0 -0.0917028)
(1.17066 0 -0.0758444)
(1.29994 0 -0.0632032)
(1.4133 0 -0.0530742)
(1.51365 0 -0.044883)
(1.60309 0 -0.038138)
(1.68314 0 -0.0323622)
(1.75453 0 -0.0270148)
(1.81683 0 -0.0215565)
(1.86848 0 -0.0157475)
(1.90786 0 -0.0100039)
(1.93504 0 -0.00519234)
(1.95206 0 -0.00173118)
(1.96031 0 0.000959411)
(1.95924 0 0.00317547)
(1.94981 0 0.00493096)
(1.93619 0 0.00642244)
(1.92335 0 0.00780579)
(1.91491 0 0.00867199)
(1.91361 0 0.0078276)
(1.9218 0 0.0039358)
(1.94199 0 -0.00247579)
(1.97586 0 -0.0101594)
(2.02336 0 -0.0186191)
(2.08298 0 -0.0263454)
(2.16529 0 -0.0289921)
(0.132545 0 -0.39633)
(0.343118 0 -0.363657)
(0.551591 0 -0.306155)
(0.73893 0 -0.255018)
(0.900412 0 -0.213999)
(1.04062 0 -0.181331)
(1.16443 0 -0.155167)
(1.27522 0 -0.134076)
(1.3752 0 -0.116896)
(1.46604 0 -0.102682)
(1.54912 0 -0.090499)
(1.62549 0 -0.079104)
(1.69536 0 -0.0670419)
(1.75769 0 -0.0535186)
(1.81042 0 -0.0397237)
(1.85233 0 -0.0279506)
(1.88593 0 -0.017324)
(1.91454 0 -0.00521822)
(1.93753 0 0.0048314)
(1.95252 0 0.00893928)
(1.95927 0 0.00724066)
(1.96144 0 0.00168142)
(1.96033 0 -0.00585682)
(1.95558 0 -0.0143205)
(1.94743 0 -0.0222608)
(1.93564 0 -0.0275795)
(1.92187 0 -0.0306286)
(1.90736 0 -0.0331336)
(1.89599 0 -0.034675)
(1.89906 0 -0.0327872)
(0.09384 0 -0.603484)
(0.26537 0 -0.563091)
(0.420904 0 -0.48005)
(0.562142 0 -0.404394)
(0.683118 0 -0.343066)
(0.787821 0 -0.293759)
(0.879634 0 -0.253853)
(0.960826 0 -0.221212)
(1.03287 0 -0.194181)
(1.09678 0 -0.171617)
(1.15351 0 -0.152547)
(1.20429 0 -0.135318)
(1.25 0 -0.117209)
(1.29041 0 -0.0954372)
(1.32344 0 -0.0716159)
(1.34394 0 -0.0550359)
(1.35509 0 -0.0487274)
(1.36767 0 -0.0410886)
(1.35758 0 -0.0254049)
(1.31085 0 -0.00784964)
(1.24022 0 0.00545352)
(1.15461 0 0.0142567)
(1.06153 0 0.0195433)
(0.967796 0 0.0215127)
(0.881674 0 0.0199749)
(0.815026 0 0.0137862)
(0.783256 0 0.00302105)
(0.770982 0 -0.00852785)
(0.788261 0 -0.0248315)
(0.850563 0 -0.0492412)
(0.0599415 0 -0.749648)
(0.182187 0 -0.69464)
(0.274021 0 -0.589518)
(0.360796 0 -0.495767)
(0.431301 0 -0.419841)
(0.490316 0 -0.358558)
(0.539522 0 -0.308775)
(0.580204 0 -0.267757)
(0.613196 0 -0.233304)
(0.638616 0 -0.204014)
(0.656268 0 -0.179204)
(0.6669 0 -0.15788)
(0.672033 0 -0.138405)
(0.673901 0 -0.117497)
(0.677378 0 -0.0909333)
(0.664275 0 -0.0567684)
(0.580447 0 -0.0209687)
(0.47099 0 0.0118668)
(0.39338 0 0.0468425)
(0.326245 0 0.0734881)
(0.25771 0 0.0877266)
(0.192318 0 0.0918705)
(0.132579 0 0.0879645)
(0.083217 0 0.076372)
(0.0480002 0 0.0561003)
(0.0272536 0 0.0267514)
(0.0238852 0 -0.00428821)
(0.0509255 0 -0.0332443)
(0.0900463 0 -0.0664365)
(0.160053 0 -0.0970178)
(0.0262413 0 -0.839993)
(0.0907544 0 -0.764675)
(0.111699 0 -0.641394)
(0.138607 0 -0.535802)
(0.150989 0 -0.449766)
(0.155953 0 -0.379899)
(0.15321 0 -0.32293)
(0.143499 0 -0.275793)
(0.127486 0 -0.235764)
(0.104892 0 -0.200678)
(0.0737797 0 -0.168936)
(0.029865 0 -0.138262)
(-0.029638 0 -0.1062)
(-0.106779 0 -0.069487)
(-0.192359 0 -0.0251552)
(-0.271507 0 0.0198073)
(-0.316773 0 0.050319)
(-0.364856 0 0.0665276)
(-0.408333 0 0.0808817)
(-0.449077 0 0.0965403)
(-0.48475 0 0.106618)
(-0.513229 0 0.10729)
(-0.533296 0 0.098534)
(-0.544065 0 0.080856)
(-0.545783 0 0.0549615)
(-0.540687 0 0.0227475)
(-0.53134 0 -0.0122107)
(-0.508171 0 -0.0487733)
(-0.487699 0 -0.0813139)
(-0.47441 0 -0.103584)
(-0.00961321 0 -0.865372)
(-0.0098704 0 -0.765501)
(-0.0617009 0 -0.628145)
(-0.0997768 0 -0.51561)
(-0.150153 0 -0.422968)
(-0.205042 0 -0.34746)
(-0.265696 0 -0.285407)
(-0.33176 0 -0.233371)
(-0.402806 0 -0.188312)
(-0.478099 0 -0.147889)
(-0.556325 0 -0.110742)
(-0.635391 0 -0.0762247)
(-0.712571 0 -0.044139)
(-0.78619 0 -0.0146289)
(-0.847687 0 0.0127044)
(-0.890371 0 0.0388726)
(-0.930014 0 0.0642808)
(-0.964752 0 0.0860053)
(-0.994015 0 0.101144)
(-1.01648 0 0.112002)
(-1.03136 0 0.116404)
(-1.03872 0 0.112262)
(-1.03921 0 0.0993372)
(-1.03377 0 0.0782225)
(-1.02403 0 0.049928)
(-1.01236 0 0.0161559)
(-1.00068 0 -0.0204679)
(-0.986467 0 -0.0564796)
(-0.978327 0 -0.0885484)
(-0.976802 0 -0.11128)
(-0.0519402 0 -0.818216)
(-0.120565 0 -0.694698)
(-0.24058 0 -0.55304)
(-0.345633 0 -0.439113)
(-0.455168 0 -0.346267)
(-0.563713 0 -0.27112)
(-0.670354 0 -0.209958)
(-0.773618 0 -0.159617)
(-0.872181 0 -0.117343)
(-0.965006 0 -0.0810068)
(-1.05151 0 -0.049195)
(-1.13148 0 -0.0209025)
(-1.20193 0 0.00446432)
(-1.2595 0 0.0273894)
(-1.30728 0 0.0487505)
(-1.3483 0 0.0690289)
(-1.38219 0 0.0874917)
(-1.40885 0 0.102662)
(-1.4282 0 0.113396)
(-1.43983 0 0.119232)
(-1.44387 0 0.118741)
(-1.44124 0 0.11068)
(-1.43334 0 0.0948776)
(-1.42172 0 0.0719147)
(-1.40824 0 0.042857)
(-1.39511 0 0.00934755)
(-1.38407 0 -0.0262033)
(-1.37561 0 -0.0606342)
(-1.37384 0 -0.0912835)
(-1.37607 0 -0.113241)
(-0.0996662 0 -0.69958)
(-0.232018 0 -0.558934)
(-0.416745 0 -0.420161)
(-0.580013 0 -0.312296)
(-0.73587 0 -0.228184)
(-0.880383 0 -0.162681)
(-1.01272 0 -0.110906)
(-1.13277 0 -0.0697773)
(-1.24083 0 -0.0367096)
(-1.33675 0 -0.00984368)
(-1.41883 0 0.0120384)
(-1.48864 0 0.0305612)
(-1.54889 0 0.0470411)
(-1.60234 0 0.0627604)
(-1.64835 0 0.0781987)
(-1.68634 0 0.0928174)
(-1.71599 0 0.105473)
(-1.73744 0 0.115036)
(-1.75098 0 0.120679)
(-1.7569 0 0.12168)
(-1.75586 0 0.117011)
(-1.74912 0 0.105859)
(-1.73827 0 0.0881)
(-1.72501 0 0.0642388)
(-1.71123 0 0.0353188)
(-1.69904 0 0.00300199)
(-1.6902 0 -0.0304863)
(-1.68657 0 -0.0624898)
(-1.68941 0 -0.0909355)
(-1.69361 0 -0.111013)
(-0.154199 0 -0.514522)
(-0.345862 0 -0.36714)
(-0.586543 0 -0.243886)
(-0.795916 0 -0.152354)
(-0.984101 0 -0.0837887)
(-1.14945 0 -0.0329525)
(-1.28894 0 0.00124731)
(-1.40757 0 0.0253505)
(-1.50862 0 0.0429165)
(-1.59552 0 0.0563977)
(-1.67271 0 0.0679894)
(-1.74107 0 0.0785191)
(-1.8012 0 0.0883532)
(-1.85318 0 0.09765)
(-1.89681 0 0.106478)
(-1.93187 0 0.114536)
(-1.95835 0 0.121007)
(-1.97658 0 0.124947)
(-1.98705 0 0.125553)
(-1.99038 0 0.122096)
(-1.98753 0 0.113805)
(-1.97985 0 0.100122)
(-1.96896 0 0.0809633)
(-1.95657 0 0.0567673)
(-1.94452 0 0.0285431)
(-1.93495 0 -0.00207319)
(-1.9293 0 -0.0330226)
(-1.93034 0 -0.0621734)
(-1.93725 0 -0.0879357)
(-1.94305 0 -0.105735)
(-0.222369 0 -0.283618)
(-0.479813 0 -0.123204)
(-0.760656 0 -0.00927227)
(-0.986228 0 0.0508016)
(-1.17521 0 0.0825412)
(-1.3324 0 0.0982331)
(-1.46793 0 0.107839)
(-1.58504 0 0.113941)
(-1.68683 0 0.118092)
(-1.77561 0 0.121255)
(-1.85313 0 0.123937)
(-1.92071 0 0.126394)
(-1.97922 0 0.128756)
(-2.02897 0 0.131002)
(-2.07004 0 0.133026)
(-2.10252 0 0.13455)
(-2.12669 0 0.134975)
(-2.14303 0 0.133516)
(-2.15218 0 0.129405)
(-2.15488 0 0.121949)
(-2.15219 0 0.110544)
(-2.14547 0 0.0947982)
(-2.1363 0 0.0746611)
(-2.12633 0 0.0505161)
(-2.11732 0 0.0233066)
(-2.11123 0 -0.00540365)
(-2.10971 0 -0.0336063)
(-2.11546 0 -0.0597276)
(-2.12628 0 -0.0826475)
(-2.13363 0 -0.0982541)
(-0.274127 0 0.124905)
(-0.557871 0 0.206231)
(-0.853125 0 0.231912)
(-1.08968 0 0.239843)
(-1.28778 0 0.236143)
(-1.45358 0 0.226976)
(-1.5931 0 0.216082)
(-1.71131 0 0.20517)
(-1.81238 0 0.195088)
(-1.89929 0 0.186272)
(-1.9743 0 0.178903)
(-2.03911 0 0.172774)
(-2.09477 0 0.167455)
(-2.14172 0 0.162552)
(-2.18016 0 0.157844)
(-2.21038 0 0.153112)
(-2.23289 0 0.147897)
(-2.24832 0 0.141489)
(-2.25735 0 0.133127)
(-2.26076 0 0.122159)
(-2.25956 0 0.108107)
(-2.25507 0 0.090704)
(-2.24881 0 0.0699344)
(-2.24235 0 0.0461185)
(-2.23727 0 0.020109)
(-2.23535 0 -0.00656444)
(-2.23856 0 -0.0319851)
(-2.24914 0 -0.0550679)
(-2.26392 0 -0.0751574)
(-2.27289 0 -0.0887967)
(-0.287314 0 0.484042)
(-0.604419 0 0.517924)
(-0.931635 0 0.488574)
(-1.18338 0 0.445732)
(-1.38611 0 0.401041)
(-1.55031 0 0.359651)
(-1.68518 0 0.323972)
(-1.79784 0 0.294213)
(-1.89323 0 0.269296)
(-1.97458 0 0.248347)
(-2.04438 0 0.230985)
(-2.10464 0 0.216532)
(-2.1565 0 0.203885)
(-2.20031 0 0.192157)
(-2.23615 0 0.181046)
(-2.26442 0 0.170509)
(-2.28583 0 0.160224)
(-2.30116 0 0.14947)
(-2.31107 0 0.137415)
(-2.31622 0 0.123426)
(-2.31752 0 0.107146)
(-2.3162 0 0.0884411)
(-2.31373 0 0.0673359)
(-2.3116 0 0.0440792)
(-2.3112 0 0.0194037)
(-2.31408 0 -0.00521772)
(-2.32232 0 -0.0279901)
(-2.33791 0 -0.0481132)
(-2.35683 0 -0.0654342)
(-2.36755 0 -0.0772931)
(-0.327376 0 0.909272)
(-0.689795 0 0.881442)
(-1.04049 0 0.764779)
(-1.28953 0 0.653)
(-1.48027 0 0.560778)
(-1.62984 0 0.484897)
(-1.7501 0 0.423917)
(-1.84993 0 0.376077)
(-1.93474 0 0.337366)
(-2.0071 0 0.305028)
(-2.0692 0 0.278451)
(-2.12336 0 0.256669)
(-2.1708 0 0.237644)
(-2.21142 0 0.219759)
(-2.24486 0 0.202742)
(-2.27151 0 0.186968)
(-2.29238 0 0.172335)
(-2.3084 0 0.157975)
(-2.32014 0 0.142852)
(-2.328 0 0.126315)
(-2.33266 0 0.108169)
(-2.33526 0 0.0884593)
(-2.33728 0 0.0672769)
(-2.34012 0 0.044782)
(-2.34501 0 0.021526)
(-2.35328 0 -0.0011558)
(-2.36687 0 -0.0215129)
(-2.38766 0 -0.0387974)
(-2.41098 0 -0.053379)
(-2.42366 0 -0.0635348)
(-0.409539 0 1.40954)
(-0.841091 0 1.2902)
(-1.20496 0 1.04287)
(-1.42141 0 0.840352)
(-1.57579 0 0.700449)
(-1.69549 0 0.592081)
(-1.79022 0 0.507927)
(-1.86975 0 0.445717)
(-1.93975 0 0.39651)
(-2.00038 0 0.354342)
(-2.05255 0 0.319806)
(-2.09929 0 0.292471)
(-2.14211 0 0.268734)
(-2.17994 0 0.245661)
(-2.21139 0 0.223256)
(-2.23678 0 0.202857)
(-2.25765 0 0.184756)
(-2.27528 0 0.167694)
(-2.28995 0 0.150162)
(-2.30157 0 0.131471)
(-2.31044 0 0.111701)
(-2.31763 0 0.0911931)
(-2.32466 0 0.0701476)
(-2.33299 0 0.0486)
(-2.34368 0 0.0268169)
(-2.35781 0 0.00588164)
(-2.37728 0 -0.0124121)
(-2.40359 0 -0.0270492)
(-2.43164 0 -0.0387778)
(-2.44652 0 -0.0470982)
(-0.585041 0 2.26631)
(-1.09878 0 1.88749)
(-1.46362 0 1.33155)
(-1.59164 0 0.960562)
(-1.67051 0 0.795103)
(-1.74544 0 0.671498)
(-1.80372 0 0.569659)
(-1.85535 0 0.499079)
(-1.9082 0 0.444985)
(-1.95602 0 0.39436)
(-1.99613 0 0.353048)
(-2.03408 0 0.323035)
(-2.07275 0 0.297379)
(-2.10896 0 0.270287)
(-2.13913 0 0.242721)
(-2.16355 0 0.218169)
(-2.18503 0 0.197691)
(-2.20545 0 0.17909)
(-2.22454 0 0.159862)
(-2.24126 0 0.139289)
(-2.25535 0 0.117969)
(-2.26779 0 0.0967373)
(-2.2803 0 0.0759693)
(-2.29456 0 0.055537)
(-2.31152 0 0.0353171)
(-2.33192 0 0.0160272)
(-2.35759 0 -0.000498547)
(-2.39007 0 -0.01274)
(-2.42326 0 -0.0213289)
(-2.4407 0 -0.0274409)
(9.9959 0 0.13849)
(9.98224 0 0.275328)
(9.95808 0 0.412662)
(9.92448 0 0.552459)
(9.88233 0 0.696396)
(9.83203 0 0.846025)
(9.77381 0 1.00285)
(9.70792 0 1.16835)
(9.63462 0 1.34398)
(9.55421 0 1.53121)
(9.46694 0 1.73153)
(9.37309 0 1.94648)
(9.27291 0 2.17769)
(9.16667 0 2.4269)
(9.05461 0 2.69602)
(8.93696 0 2.98718)
(8.81391 0 3.30282)
(8.6856 0 3.64584)
(8.5521 0 4.01975)
(8.41342 0 4.42891)
(8.2695 0 4.87896)
(8.12023 0 5.37734)
(7.96559 0 5.93424)
(7.80586 0 6.56397)
(7.64232 0 7.28762)
(7.48003 0 8.13777)
(7.33245 0 9.1684)
(7.29013 0 10.4731)
(7.75306 0 12.197)
(7.94523 0 14.9164)
(9.99638 0 0.143453)
(9.98432 0 0.28519)
(9.96302 0 0.427401)
(9.93346 0 0.572085)
(9.89647 0 0.720931)
(9.85249 0 0.875499)
(9.80179 0 1.03729)
(9.74468 0 1.20779)
(9.68153 0 1.38845)
(9.6127 0 1.58072)
(9.53859 0 1.78608)
(9.45961 0 2.00605)
(9.37619 0 2.24225)
(9.28882 0 2.49641)
(9.19802 0 2.77039)
(9.10437 0 3.06631)
(9.00851 0 3.3866)
(8.91121 0 3.7341)
(8.81337 0 4.11225)
(8.71619 0 4.5253)
(8.62127 0 4.97866)
(8.53099 0 5.47936)
(8.44908 0 6.03668)
(8.38183 0 6.66319)
(8.34047 0 7.37607)
(8.34714 0 8.19867)
(8.44086 0 9.16101)
(8.67771 0 10.2961)
(9.32681 0 11.5479)
(9.82069 0 12.6288)
(9.99688 0 0.147894)
(9.98649 0 0.29401)
(9.96816 0 0.440564)
(9.94277 0 0.589571)
(9.91112 0 0.742726)
(9.87364 0 0.901581)
(9.83067 0 1.06763)
(9.78258 0 1.24233)
(9.72981 0 1.42712)
(9.67282 0 1.62341)
(9.61213 0 1.83266)
(9.54828 0 2.05633)
(9.48189 0 2.296)
(9.41366 0 2.5533)
(9.34439 0 2.83004)
(9.275 0 3.12821)
(9.20659 0 3.45008)
(9.14049 0 3.79828)
(9.0784 0 4.17592)
(9.02252 0 4.58675)
(8.97589 0 5.03536)
(8.94277 0 5.52741)
(8.92948 0 6.06985)
(8.94553 0 6.67104)
(9.00544 0 7.34035)
(9.13135 0 8.08632)
(9.35425 0 8.91065)
(9.6835 0 9.80188)
(10.2484 0 10.7081)
(10.9343 0 11.418)
(9.9974 0 0.15176)
(9.98872 0 0.30168)
(9.97343 0 0.451983)
(9.95233 0 0.604688)
(9.92613 0 0.76148)
(9.89531 0 0.923894)
(9.86022 0 1.0934)
(9.82132 0 1.27143)
(9.77909 0 1.45937)
(9.7341 0 1.6586)
(9.68695 0 1.87049)
(9.63835 0 2.09646)
(9.58907 0 2.33797)
(9.54001 0 2.59654)
(9.49222 0 2.87384)
(9.44692 0 3.17165)
(9.40562 0 3.49198)
(9.37012 0 3.83708)
(9.34273 0 4.20953)
(9.32641 0 4.61229)
(9.3251 0 5.04875)
(9.34409 0 5.52272)
(9.39063 0 6.03832)
(9.4746 0 6.59946)
(9.60918 0 7.20886)
(9.81118 0 7.86611)
(10.1032 0 8.564)
(10.4939 0 9.2877)
(11.0496 0 10.027)
(11.84 0 10.6688)
(9.99792 0 0.155003)
(9.99099 0 0.308107)
(9.97881 0 0.461524)
(9.96206 0 0.617257)
(9.9414 0 0.776973)
(9.91731 0 0.942179)
(9.8902 0 1.11431)
(9.86055 0 1.29474)
(9.82893 0 1.48482)
(9.79597 0 1.68584)
(9.76239 0 1.8991)
(9.72897 0 2.12591)
(9.69667 0 2.3676)
(9.66653 0 2.62554)
(9.63982 0 2.90118)
(9.61802 0 3.19605)
(9.60291 0 3.5118)
(9.59666 0 3.8502)
(9.60195 0 4.21316)
(9.62218 0 4.60271)
(9.66165 0 5.02096)
(9.72588 0 5.46989)
(9.82194 0 5.9511)
(9.95875 0 6.46526)
(10.1473 0 7.01126)
(10.4007 0 7.58517)
(10.7361 0 8.17883)
(11.165 0 8.77756)
(11.7102 0 9.36978)
(12.4602 0 9.88073)
(9.99845 0 0.157581)
(9.99329 0 0.313206)
(9.98424 0 0.469058)
(9.97188 0 0.627113)
(9.9568 0 0.789003)
(9.93947 0 0.956195)
(9.92035 0 1.13007)
(9.89995 0 1.31196)
(9.8789 0 1.50312)
(9.85788 0 1.70477)
(9.8377 0 1.9181)
(9.81924 0 2.1443)
(9.80356 0 2.38452)
(9.79184 0 2.63996)
(9.7855 0 2.91182)
(9.78617 0 3.2013)
(9.79584 0 3.50966)
(9.81685 0 3.83813)
(9.85206 0 4.18794)
(9.90497 0 4.56018)
(9.97984 0 4.95577)
(10.0819 0 5.37516)
(10.2174 0 5.81807)
(10.394 0 6.28303)
(10.6203 0 6.76678)
(10.906 0 7.26353)
(11.2624 0 7.76406)
(11.6972 0 8.25285)
(12.2111 0 8.71322)
(12.8838 0 9.10376)
(9.99898 0 0.159455)
(9.99559 0 0.316901)
(9.98967 0 0.474474)
(9.9817 0 0.634107)
(9.97219 0 0.797388)
(9.96159 0 0.965731)
(9.95039 0 1.14046)
(9.93915 0 1.32282)
(9.92852 0 1.514)
(9.91924 0 1.71511)
(9.91215 0 1.92722)
(9.90824 0 2.15136)
(9.90861 0 2.38853)
(9.91454 0 2.63968)
(9.92753 0 2.90576)
(9.94931 0 3.18764)
(9.98192 0 3.48614)
(10.0277 0 3.80198)
(10.0896 0 4.13571)
(10.1709 0 4.48763)
(10.2755 0 4.85763)
(10.408 0 5.24501)
(10.5738 0 5.64818)
(10.7786 0 6.06433)
(11.0289 0 6.48899)
(11.3311 0 6.91545)
(11.6912 0 7.3344)
(12.1133 0 7.73246)
(12.5913 0 8.09511)
(13.1939 0 8.40194)
(9.99951 0 0.16059)
(9.99787 0 0.319123)
(9.99507 0 0.477674)
(9.99145 0 0.638115)
(9.98743 0 0.801978)
(9.98348 0 0.970616)
(9.98007 0 1.14528)
(9.9778 0 1.32714)
(9.97733 0 1.51726)
(9.97944 0 1.71667)
(9.98501 0 1.92629)
(9.99505 0 2.147)
(10.0107 0 2.37959)
(10.0333 0 2.62481)
(10.0643 0 2.88331)
(10.1055 0 3.15565)
(10.159 0 3.44222)
(10.2269 0 3.74328)
(10.3119 0 4.05879)
(10.4171 0 4.38839)
(10.5459 0 4.7312)
(10.702 0 5.08571)
(10.8897 0 5.44952)
(11.1131 0 5.81913)
(11.3767 0 6.18963)
(11.684 0 6.55449)
(12.038 0 6.90547)
(12.4401 0 7.23227)
(12.8826 0 7.52384)
(13.4233 0 7.76893)
(10 0 0.160959)
(10.0001 0 0.31982)
(10.0004 0 0.478577)
(10.001 0 0.639034)
(10.0024 0 0.802655)
(10.0049 0 0.970719)
(10.0091 0 1.1444)
(10.0155 0 1.32476)
(10.0249 0 1.51279)
(10.0379 0 1.70937)
(10.0556 0 1.91529)
(10.0788 0 2.13125)
(10.1088 0 2.35788)
(10.1469 0 2.59568)
(10.1944 0 2.84504)
(10.2532 0 3.10621)
(10.3251 0 3.37922)
(10.4122 0 3.66392)
(10.5168 0 3.9598)
(10.6416 0 4.26598)
(10.7893 0 4.58109)
(10.963 0 4.90311)
(11.1656 0 5.22925)
(11.4 0 5.55581)
(11.6689 0 5.87805)
(11.974 0 6.19014)
(12.3163 0 6.48525)
(12.6954 0 6.75558)
(13.1036 0 6.99284)
(13.5896 0 7.19022)
(10.0005 0 0.16054)
(10.0023 0 0.318947)
(10.0056 0 0.477125)
(10.0104 0 0.636791)
(10.017 0 0.799335)
(10.0258 0 0.965955)
(10.0373 0 1.13773)
(10.052 0 1.31565)
(10.0707 0 1.50056)
(10.0942 0 1.69322)
(10.1232 0 1.8943)
(10.1587 0 2.10433)
(10.202 0 2.32374)
(10.2542 0 2.55282)
(10.3167 0 2.79173)
(10.391 0 3.04044)
(10.479 0 3.29868)
(10.5823 0 3.56596)
(10.7031 0 3.84144)
(10.8433 0 4.1239)
(11.0053 0 4.41165)
(11.1912 0 4.70243)
(11.4031 0 4.99338)
(11.6426 0 5.28093)
(11.9112 0 5.56081)
(12.2094 0 5.82804)
(12.5368 0 6.07714)
(12.8921 0 6.30223)
(13.2681 0 6.49731)
(13.7066 0 6.65826)
(10.001 0 0.159318)
(10.0044 0 0.316477)
(10.0106 0 0.473276)
(10.0194 0 0.631339)
(10.031 0 0.791971)
(10.0458 0 0.956284)
(10.0643 0 1.12527)
(10.087 0 1.29979)
(10.1145 0 1.48061)
(10.1476 0 1.66835)
(10.1872 0 1.86354)
(10.2341 0 2.06655)
(10.2894 0 2.27765)
(10.3543 0 2.49694)
(10.43 0 2.72435)
(10.5179 0 2.95963)
(10.6195 0 3.20229)
(10.7362 0 3.45158)
(10.8699 0 3.70644)
(11.022 0 3.96545)
(11.1942 0 4.22678)
(11.3879 0 4.48815)
(11.6045 0 4.74679)
(11.8448 0 4.99947)
(12.1093 0 5.24248)
(12.3976 0 5.47174)
(12.7086 0 5.68294)
(13.0406 0 5.87175)
(13.3872 0 6.03396)
(13.7849 0 6.16707)
(10.0015 0 0.157286)
(10.0065 0 0.312395)
(10.0153 0 0.467012)
(10.028 0 0.622662)
(10.0444 0 0.780556)
(10.0649 0 0.941716)
(10.0899 0 1.10703)
(10.1201 0 1.27728)
(10.1558 0 1.45308)
(10.1979 0 1.63497)
(10.2472 0 1.82332)
(10.3044 0 2.01838)
(10.3705 0 2.22024)
(10.4466 0 2.42885)
(10.5338 0 2.64397)
(10.6331 0 2.86518)
(10.746 0 3.0918)
(10.8736 0 3.32294)
(11.0171 0 3.5574)
(11.1778 0 3.79367)
(11.3567 0 4.02994)
(11.5548 0 4.264)
(11.7726 0 4.49334)
(12.0105 0 4.71512)
(12.2683 0 4.92624)
(12.545 0 5.12343)
(12.8394 0 5.30339)
(13.1493 0 5.46297)
(13.4694 0 5.59928)
(13.8322 0 5.71081)
(10.0019 0 0.154441)
(10.0084 0 0.306699)
(10.0199 0 0.458337)
(10.0361 0 0.610771)
(10.057 0 0.765117)
(10.0829 0 0.922303)
(10.1141 0 1.08312)
(10.1511 0 1.24824)
(10.1944 0 1.4182)
(10.2447 0 1.59338)
(10.3027 0 1.77406)
(10.3691 0 1.96035)
(10.4447 0 2.15222)
(10.5305 0 2.34949)
(10.6274 0 2.55178)
(10.7364 0 2.75853)
(10.8583 0 2.96897)
(10.9942 0 3.18211)
(11.145 0 3.39671)
(11.3115 0 3.61128)
(11.4943 0 3.82407)
(11.6939 0 4.03307)
(11.9104 0 4.23606)
(12.1437 0 4.43063)
(12.3931 0 4.61424)
(12.6575 0 4.78433)
(12.9355 0 4.93842)
(13.2249 0 5.07426)
(13.5214 0 5.18986)
(13.854 0 5.28438)
(10.0024 0 0.150791)
(10.0102 0 0.299402)
(10.0241 0 0.447274)
(10.0437 0 0.595706)
(10.0689 0 0.745718)
(10.0997 0 0.898143)
(10.1365 0 1.05368)
(10.1798 0 1.2129)
(10.23 0 1.37622)
(10.2877 0 1.54395)
(10.3535 0 1.71624)
(10.4279 0 1.89311)
(10.5118 0 2.0744)
(10.6059 0 2.25984)
(10.7108 0 2.44896)
(10.8275 0 2.64112)
(10.9565 0 2.83549)
(11.0986 0 3.03105)
(11.2544 0 3.22657)
(11.4243 0 3.42064)
(11.6087 0 3.61166)
(11.8076 0 3.79783)
(12.0208 0 3.97726)
(12.2479 0 4.14793)
(12.4881 0 4.30782)
(12.7401 0 4.45496)
(13.0024 0 4.5875)
(13.2731 0 4.70384)
(13.5484 0 4.80267)
(13.8548 0 4.88355)
(10.0027 0 0.146347)
(10.0119 0 0.290532)
(10.0281 0 0.433865)
(10.0508 0 0.577533)
(10.0798 0 0.722456)
(10.1151 0 0.869374)
(10.1571 0 1.01889)
(10.2061 0 1.17149)
(10.2625 0 1.32749)
(10.3267 0 1.48711)
(10.3993 0 1.65041)
(10.4807 0 1.81732)
(10.5716 0 1.98761)
(10.6725 0 2.16092)
(10.784 0 2.33673)
(10.9067 0 2.51436)
(11.041 0 2.69295)
(11.1874 0 2.87152)
(11.3462 0 3.04891)
(11.5177 0 3.22379)
(11.7018 0 3.39475)
(11.8983 0 3.56024)
(12.1069 0 3.71866)
(12.327 0 3.86837)
(12.5574 0 4.00777)
(12.7972 0 4.13538)
(13.0447 0 4.24983)
(13.2983 0 4.35002)
(13.5548 0 4.43508)
(13.8384 0 4.50484)
(10.0031 0 0.141127)
(10.0134 0 0.280124)
(10.0317 0 0.418173)
(10.0573 0 0.556343)
(10.0898 0 0.695457)
(10.1293 0 0.836166)
(10.1759 0 0.978987)
(10.23 0 1.12431)
(10.2918 0 1.27238)
(10.3617 0 1.42334)
(10.4402 0 1.57716)
(10.5275 0 1.7337)
(10.6242 0 1.8927)
(10.7306 0 2.05373)
(10.8473 0 2.21624)
(10.9744 0 2.37955)
(11.1124 0 2.54283)
(11.2615 0 2.70513)
(11.4218 0 2.86539)
(11.5932 0 3.02244)
(11.7756 0 3.17501)
(11.9686 0 3.32182)
(12.1717 0 3.46153)
(12.3841 0 3.59283)
(12.6048 0 3.71449)
(12.8327 0 3.82538)
(13.0664 0 3.92452)
(13.3045 0 4.01117)
(13.5442 0 4.08477)
(13.8078 0 4.14531)
(10.0034 0 0.135156)
(10.0148 0 0.268229)
(10.035 0 0.400272)
(10.0632 0 0.532244)
(10.0988 0 0.664871)
(10.142 0 0.798718)
(10.1927 0 0.93422)
(10.2513 0 1.07169)
(10.3178 0 1.2113)
(10.3927 0 1.35312)
(10.4761 0 1.49708)
(10.5683 0 1.64298)
(10.6697 0 1.79051)
(10.7805 0 1.93923)
(10.901 0 2.08859)