/*--------------------------------*- C++ -*----------------------------------*\
  =========                 |
  \\      /  F ield         | OpenFOAM: The Open Source CFD Toolbox
   \\    /   O peration     | Website:  https://openfoam.org
    \\  /    A nd           | Version:  dev
     \\/     M anipulation  |
\*---------------------------------------------------------------------------*/
FoamFile
{
    version     2.0;
    format      ascii;
    class       surfaceVectorField;
    location    "2.4";
    object      Uf;
}
// * * * * * * * * * * * * * * * * * * * * * * * * * * * * * * * * * * * * * //

dimensions      [0 1 -1 0 0 0 0];

internalField   nonuniform List<vector> 
5457
(
(9.92088 0 0.0251114)
(9.97124 0 0.0387483)
(9.824 0 0.03283)
(9.92858 0 0.0485902)
(9.70958 0 0.0393166)
(9.85545 0 0.0587759)
(9.57539 0 0.0460176)
(9.75676 0 0.0706038)
(9.42131 0 0.0529563)
(9.63747 0 0.0830265)
(9.24744 0 0.060175)
(9.49852 0 0.0959522)
(9.05349 0 0.067821)
(9.33918 0 0.109631)
(8.83876 0 0.0760457)
(9.15859 0 0.124309)
(8.60231 0 0.0849824)
(8.95591 0 0.140189)
(8.34302 0 0.0947579)
(8.73016 0 0.157457)
(8.05956 0 0.105501)
(8.48014 0 0.176294)
(7.75048 0 0.117341)
(8.20447 0 0.196882)
(7.4142 0 0.130409)
(7.90161 0 0.219386)
(7.04911 0 0.144823)
(7.56993 0 0.243946)
(6.65362 0 0.160684)
(7.20778 0 0.270654)
(6.22628 0 0.178055)
(6.81356 0 0.299518)
(5.76598 0 0.196936)
(6.38588 0 0.330428)
(5.27211 0 0.217239)
(5.9237 0 0.363093)
(4.74492 0 0.238738)
(5.42663 0 0.396979)
(4.18575 0 0.261031)
(4.89519 0 0.431233)
(3.59754 0 0.283482)
(4.33119 0 0.464608)
(2.98516 0 0.305192)
(3.73818 0 0.495406)
(2.35575 0 0.325053)
(3.12188 0 0.521485)
(1.71878 0 0.342526)
(2.49072 0 0.540523)
(1.08408 0 0.361854)
(1.85555 0 0.551631)
(0.451617 0 0.348582)
(1.24523 0 0.562975)
(-0.145909 0 0.102376)
(0.608663 0 0.544744)
(-0.423585 0 -0.207021)
(0.0946501 0 0.259272)
(-0.4021 0 -0.361125)
(-0.133786 0 -0.0205458)
(-0.119649 0 -0.393833)
(9.9964 0 0.0516781)
(9.99705 0 0.0405096)
(9.95877 0 0.0708712)
(9.9785 0 0.0674647)
(9.89821 0 0.0880005)
(9.93375 0 0.0898855)
(9.81654 0 0.106002)
(9.86449 0 0.113576)
(9.71351 0 0.124943)
(9.77432 0 0.138541)
(9.58898 0 0.144879)
(9.66426 0 0.164678)
(9.44261 0 0.166119)
(9.53385 0 0.192368)
(9.27373 0 0.188999)
(9.38235 0 0.222072)
(9.08145 0 0.213817)
(9.209 0 0.254193)
(8.86465 0 0.240851)
(9.01293 0 0.289112)
(8.62201 0 0.270374)
(8.79305 0 0.327202)
(8.35206 0 0.302644)
(8.54805 0 0.368837)
(8.05319 0 0.337892)
(8.27649 0 0.414366)
(7.72372 0 0.376295)
(7.97679 0 0.464093)
(7.36194 0 0.417931)
(7.64731 0 0.518231)
(6.96627 0 0.462731)
(7.28639 0 0.576843)
(6.53536 0 0.510402)
(6.8925 0 0.639753)
(6.06835 0 0.56034)
(6.46435 0 0.706445)
(5.56511 0 0.611518)
(6.00113 0 0.775915)
(5.02663 0 0.662372)
(5.5028 0 0.846515)
(4.45543 0 0.710684)
(4.97044 0 0.915783)
(3.85608 0 0.753504)
(4.40675 0 0.980267)
(3.23581 0 0.787149)
(3.81664 0 1.0354)
(2.60548 0 0.807442)
(3.2081 0 1.07541)
(1.98251 0 0.810396)
(2.59308 0 1.09306)
(1.40507 0 0.776799)
(1.99595 0 1.07698)
(0.929537 0 0.646279)
(1.41928 0 0.978267)
(0.439648 0 0.384176)
(0.93742 0 0.716691)
(0.0590772 0 -0.118714)
(0.4436 0 0.343397)
(0.174878 0 -0.33597)
(9.98902 0 0.0594405)
(9.99481 0 0.045885)
(9.95432 0 0.0894927)
(9.97367 0 0.0848695)
(9.89726 0 0.118055)
(9.92982 0 0.119197)
(9.82041 0 0.147928)
(9.86353 0 0.154007)
(9.72409 0 0.179458)
(9.7773 0 0.190447)
(9.60811 0 0.212818)
(9.67218 0 0.228684)
(9.47221 0 0.248441)
(9.54798 0 0.269183)
(9.31591 0 0.286828)
(9.40417 0 0.312557)
(9.13848 0 0.328455)
(9.24016 0 0.359392)
(8.939 0 0.373782)
(9.05527 0 0.410244)
(8.71637 0 0.423267)
(8.84863 0 0.465671)
(8.46928 0 0.477356)
(8.61921 0 0.526225)
(8.19632 0 0.536456)
(8.36582 0 0.592443)
(7.89594 0 0.600894)
(8.08715 0 0.664803)
(7.56651 0 0.670855)
(7.7818 0 0.743676)
(7.2064 0 0.746291)
(7.44831 0 0.829237)
(6.81412 0 0.826805)
(7.08524 0 0.921354)
(6.38842 0 0.911491)
(6.69125 0 1.01942)
(5.92858 0 0.99875)
(6.26527 0 1.12217)
(5.4347 0 1.08607)
(5.80667 0 1.2274)
(4.90812 0 1.16978)
(5.31565 0 1.33171)
(4.35203 0 1.24483)
(4.79357 0 1.43013)
(3.77223 0 1.30447)
(4.2436 0 1.51579)
(3.17841 0 1.33974)
(3.67148 0 1.57932)
(2.58636 0 1.338)
(3.08603 0 1.60762)
(2.01964 0 1.27284)
(2.50268 0 1.58143)
(1.48675 0 1.09527)
(1.92854 0 1.46408)
(0.958171 0 0.769041)
(1.3851 0 1.21024)
(0.479783 0 0.202323)
(0.829445 0 0.800881)
(0.433658 0 0.133948)
(9.98515 0 0.0716273)
(9.99367 0 0.0531579)
(9.95037 0 0.113653)
(9.97087 0 0.102311)
(9.89433 0 0.154165)
(9.92688 0 0.147985)
(9.81877 0 0.195614)
(9.86181 0 0.193763)
(9.72434 0 0.238861)
(9.7774 0 0.24133)
(9.61102 0 0.284383)
(9.67458 0 0.291226)
(9.47861 0 0.332787)
(9.55331 0 0.344027)
(9.32678 0 0.384748)
(9.4132 0 0.400452)
(9.15502 0 0.440925)
(9.25381 0 0.461227)
(8.96267 0 0.501966)
(9.07461 0 0.527054)
(8.74888 0 0.568511)
(8.87493 0 0.598631)
(8.51272 0 0.641194)
(8.65399 0 0.676657)
(8.25311 0 0.720608)
(8.41089 0 0.761813)
(7.96888 0 0.807261)
(8.14462 0 0.854722)
(7.65877 0 0.901498)
(7.85414 0 0.955895)
(7.32149 0 1.00339)
(7.53833 0 1.06563)
(6.95577 0 1.1126)
(7.19602 0 1.18389)
(6.5604 0 1.22815)
(6.82608 0 1.3101)
(6.13445 0 1.34816)
(6.42744 0 1.44292)
(5.67741 0 1.46956)
(5.99922 0 1.57987)
(5.18959 0 1.58771)
(5.54092 0 1.71702)
(4.67248 0 1.69594)
(5.05266 0 1.84845)
(4.12945 0 1.78503)
(4.5356 0 1.96572)
(3.56635 0 1.84239)
(3.99241 0 2.05716)
(2.9918 0 1.85056)
(3.42733 0 2.10697)
(2.41564 0 1.78231)
(2.84741 0 2.09429)
(1.84038 0 1.60027)
(2.25605 0 1.98852)
(1.25928 0 1.27825)
(1.66019 0 1.75283)
(0.666718 0 0.789372)
(1.02389 0 1.36755)
(0.522996 0 0.786957)
(9.98337 0 0.0844246)
(9.99316 0 0.061304)
(9.94819 0 0.136866)
(9.96958 0 0.119953)
(9.89311 0 0.188073)
(9.92572 0 0.176279)
(9.81901 0 0.240222)
(9.86195 0 0.23275)
(9.72655 0 0.294532)
(9.77957 0 0.291152)
(9.61579 0 0.351734)
(9.67931 0 0.352352)
(9.48657 0 0.412555)
(9.56115 0 0.417067)
(9.33861 0 0.47777)
(9.42481 0 0.486108)
(9.1715 0 0.54815)
(9.2699 0 0.560313)
(8.98468 0 0.624458)
(9.09597 0 0.640501)
(8.7775 0 0.707449)
(8.90247 0 0.727485)
(8.54921 0 0.797867)
(8.68875 0 0.822073)
(8.29899 0 0.896424)
(8.45409 0 0.925054)
(8.02595 0 1.00374)
(8.19769 0 1.03716)
(7.72915 0 1.12028)
(7.9187 0 1.15901)
(7.40761 0 1.24622)
(7.61625 0 1.291)
(7.06031 0 1.38131)
(7.28939 0 1.4332)
(6.68624 0 1.5246)
(6.93716 0 1.58513)
(6.2844 0 1.67417)
(6.55852 0 1.7455)
(5.85395 0 1.82674)
(6.15241 0 1.91184)
(5.39429 0 1.97717)
(5.71778 0 2.08009)
(4.90537 0 2.11794)
(5.25367 0 2.24398)
(4.38791 0 2.23846)
(4.75937 0 2.39446)
(3.84365 0 2.32437)
(4.23463 0 2.51901)
(3.27519 0 2.35675)
(3.67962 0 2.60102)
(2.6852 0 2.31037)
(3.09551 0 2.61946)
(2.07255 0 2.15477)
(2.48153 0 2.54706)
(1.42928 0 1.86716)
(1.8398 0 2.35346)
(0.742562 0 1.41934)
(1.1313 0 2.02426)
(0.543271 0 1.51425)
(9.98263 0 0.0975187)
(9.99299 0 0.069808)
(9.94742 0 0.15981)
(9.96924 0 0.137614)
(9.89351 0 0.221398)
(9.92594 0 0.203973)
(9.82128 0 0.284157)
(9.86377 0 0.270751)
(9.73126 0 0.349426)
(9.78379 0 0.339661)
(9.62356 0 0.418111)
(9.68655 0 0.411791)
(9.49805 0 0.491042)
(9.57205 0 0.488011)
(9.35447 0 0.569088)
(9.44005 0 0.569225)
(9.19247 0 0.653126)
(9.29023 0 0.656364)
(9.01157 0 0.744025)
(9.12218 0 0.750352)
(8.81121 0 0.842645)
(8.93543 0 0.852099)
(8.59074 0 0.949836)
(8.7294 0 0.962508)
(8.34947 0 1.0664)
(8.50345 0 1.08246)
(8.08665 0 1.19307)
(8.25687 0 1.21277)
(7.80148 0 1.3304)
(7.98894 0 1.35416)
(7.49313 0 1.47867)
(7.69883 0 1.50712)
(7.16071 0 1.63773)
(7.38568 0 1.67183)
(6.80324 0 1.80676)
(7.04853 0 1.84795)
(6.41964 0 1.98395)
(6.68625 0 2.03435)
(6.00867 0 2.16607)
(6.29752 0 2.22879)
(5.56898 0 2.348)
(5.88073 0 2.42739)
(5.09907 0 2.52206)
(5.43391 0 2.62412)
(4.5974 0 2.67738)
(4.95473 0 2.81011)
(4.0624 0 2.79927)
(4.44052 0 2.973)
(3.49246 0 2.86886)
(3.88825 0 3.09637)
(2.88564 0 2.86265)
(3.29502 0 3.15961)
(2.23788 0 2.75365)
(2.65674 0 3.13761)
(1.54235 0 2.52075)
(1.97474 0 3.00288)
(0.793606 0 2.13106)
(1.20719 0 2.7403)
(0.556708 0 2.29154)
(9.9825 0 0.110651)
(9.99301 0 0.0783792)
(9.94769 0 0.182366)
(9.96953 0 0.155073)
(9.89519 0 0.253877)
(9.9272 0 0.230941)
(9.82519 0 0.326843)
(9.86692 0 0.307582)
(9.73805 0 0.402648)
(9.78971 0 0.386614)
(9.63392 0 0.482343)
(9.69596 0 0.469258)
(9.51271 0 0.566881)
(9.58566 0 0.556524)
(9.37419 0 0.657229)
(9.45863 0 0.649412)
(9.21805 0 0.754359)
(9.3146 0 0.748941)
(9.04387 0 0.859237)
(9.15321 0 0.856126)
(8.85113 0 0.972817)
(8.97404 0 0.971969)
(8.63927 0 1.09604)
(8.77656 0 1.09747)
(8.40763 0 1.22979)
(8.56019 0 1.23358)
(8.15551 0 1.37488)
(8.32427 0 1.38123)
(7.88217 0 1.53198)
(8.06806 0 1.54121)
(7.58678 0 1.70147)
(7.79075 0 1.71416)
(7.26839 0 1.88335)
(7.49143 0 1.90038)
(6.92591 0 2.07699)
(7.169 0 2.09974)
(6.558 0 2.28083)
(6.82212 0 2.31138)
(6.16298 0 2.49198)
(6.44906 0 2.53343)
(5.73867 0 2.70571)
(6.04759 0 2.76253)
(5.28232 0 2.91481)
(5.61478 0 2.9933)
(4.79047 0 3.10893)
(5.14683 0 3.21763)
(4.25899 0 3.27394)
(4.63904 0 3.424)
(3.68315 0 3.39156)
(4.08578 0 3.59684)
(3.05787 0 3.43937)
(3.48111 0 3.7162)
(2.37762 0 3.39147)
(2.81822 0 3.75777)
(1.63784 0 3.22585)
(2.09907 0 3.69363)
(0.839097 0 2.90053)
(1.27888 0 3.50414)
(0.573341 0 3.11338)
(9.98273 0 0.123611)
(9.99316 0 0.086838)
(9.94871 0 0.204358)
(9.97026 0 0.172135)
(9.89791 0 0.285321)
(9.92924 0 0.257038)
(9.83045 0 0.368055)
(9.87119 0 0.343073)
(9.74662 0 0.45396)
(9.79708 0 0.431785)
(9.64657 0 0.544205)
(9.70725 0 0.524478)
(9.53023 0 0.639852)
(9.60167 0 0.622282)
(9.39743 0 0.741959)
(9.48021 0 0.72629)
(9.24789 0 0.851586)
(9.34264 0 0.837604)
(9.08125 0 0.969786)
(9.18868 0 0.957323)
(8.89703 0 1.0976)
(9.01793 0 1.08654)
(8.69472 0 1.23606)
(8.82993 0 1.22633)
(8.47371 0 1.38615)
(8.62414 0 1.37777)
(8.2333 0 1.54879)
(8.39991 0 1.54186)
(7.97272 0 1.72473)
(8.15651 0 1.71954)
(7.69108 0 1.91454)
(7.8931 0 1.91156)
(7.3873 0 2.11841)
(7.60863 0 2.11845)
(7.06006 0 2.33598)
(7.30184 0 2.34033)
(6.70765 0 2.56608)
(6.97106 0 2.57675)
(6.32783 0 2.80639)
(6.61414 0 2.82636)
(5.9176 0 3.05289)
(6.22816 0 3.08656)
(5.473 0 3.29931)
(5.80923 0 3.35296)
(4.98892 0 3.53638)
(5.35221 0 3.61871)
(4.45902 0 3.75109)
(4.8505 0 3.87366)
(3.87598 0 3.92611)
(4.29613 0 4.10356)
(3.23216 0 4.03948)
(3.68035 0 4.28928)
(2.52073 0 4.06461)
(2.99339 0 4.40636)
(1.73832 0 3.97576)
(2.23732 0 4.42418)
(0.889451 0 3.71841)
(1.36334 0 4.31591)
(0.598746 0 3.98454)
(9.9832 0 0.136237)
(9.99339 0 0.0950637)
(9.9503 0 0.225628)
(9.9713 0 0.188637)
(9.90147 0 0.315576)
(9.93191 0 0.282121)
(9.83688 0 0.407606)
(9.87639 0 0.377057)
(9.75675 0 0.503137)
(9.80572 0 0.474962)
(9.66123 0 0.603424)
(9.7202 0 0.577195)
(9.5503 0 0.709626)
(9.61982 0 0.684982)
(9.42383 0 0.822885)
(9.50447 0 0.799504)
(9.28159 0 0.944344)
(9.374 0 0.92194)
(9.12326 0 1.07514)
(9.22816 0 1.05347)
(8.94845 0 1.2164)
(9.06663 0 1.19527)
(8.75666 0 1.36925)
(8.889 0 1.3485)
(8.54732 0 1.53478)
(8.69477 0 1.51434)
(8.31975 0 1.71402)
(8.48333 0 1.69392)
(8.07316 0 1.90789)
(8.25397 0 1.88829)
(7.80656 0 2.11714)
(8.00578 0 2.09842)
(7.51873 0 2.34223)
(7.73764 0 2.32507)
(7.20807 0 2.58317)
(7.44809 0 2.56873)
(6.87249 0 2.83934)
(7.1352 0 2.82943)
(6.50918 0 3.10915)
(6.79637 0 3.10655)
(6.11433 0 3.38961)
(6.42806 0 3.39844)
(5.68282 0 3.67575)
(6.02548 0 3.70205)
(5.20795 0 3.95988)
(5.58218 0 4.01215)
(4.68131 0 4.2306)
(5.0898 0 4.32056)
(4.09293 0 4.47188)
(4.53785 0 4.61493)
(3.43226 0 4.66209)
(3.91439 0 4.87737)
(2.68997 0 4.77271)
(3.20548 0 5.08308)
(1.86176 0 4.77197)
(2.41116 0 5.19749)
(0.954143 0 4.58933)
(1.47624 0 5.18387)
(0.639179 0 4.91907)
(9.98386 0 0.148407)
(9.99368 0 0.10297)
(9.95233 0 0.246034)
(9.97259 0 0.204448)
(9.90575 0 0.344489)
(9.93507 0 0.306051)
(9.84431 0 0.445315)
(9.88236 0 0.40938)
(9.76824 0 0.549954)
(9.81545 0 0.515954)
(9.67768 0 0.659726)
(9.7346 0 0.627176)
(9.57265 0 0.775878)
(9.63984 0 0.744348)
(9.45307 0 0.899628)
(9.53111 0 0.868731)
(9.31876 0 1.03219)
(9.40829 0 1.00157)
(9.16947 0 1.17479)
(9.27123 0 1.14412)
(9.00486 0 1.32864)
(9.11965 0 1.29764)
(8.8245 0 1.49496)
(8.95321 0 1.46339)
(8.62787 0 1.67494)
(8.77148 0 1.64262)
(8.41432 0 1.86975)
(8.5739 0 1.83661)
(8.18303 0 2.08051)
(8.3598 0 2.04657)
(7.93298 0 2.30819)
(8.12826 0 2.27368)
(7.66282 0 2.55359)
(7.87813 0 2.51901)
(7.37076 0 2.8172)
(7.60783 0 2.78346)
(7.05437 0 3.09906)
(7.31525 0 3.06767)
(6.71034 0 3.39851)
(6.99747 0 3.37186)
(6.33416 0 3.71385)
(6.65047 0 3.69558)
(5.91966 0 4.04177)
(6.26873 0 4.03736)
(5.45865 0 4.37666)
(5.8447 0 4.39412)
(4.94054 0 4.70941)
(5.36827 0 4.76023)
(4.35229 0 5.026)
(4.82628 0 5.12618)
(3.67927 0 5.30563)
(4.20279 0 5.47645)
(2.90731 0 5.51764)
(3.47765 0 5.78686)
(2.02756 0 5.62251)
(2.6449 0 6.01893)
(1.04507 0 5.52901)
(1.63768 0 6.12343)
(0.704468 0 5.94265)
(9.98464 0 0.160024)
(9.99402 0 0.110492)
(9.95471 0 0.265453)
(9.97408 0 0.21946)
(9.91061 0 0.371922)
(9.93865 0 0.328703)
(9.8526 0 0.481015)
(9.889 0 0.439899)
(9.78091 0 0.594206)
(9.82611 0 0.554588)
(9.69568 0 0.71287)
(9.75027 0 0.67421)
(9.59699 0 0.838323)
(9.66152 0 0.800132)
(9.4848 0 0.971855)
(9.55983 0 0.933677)
(9.359 0 1.11475)
(9.44518 0 1.07616)
(9.2194 0 1.2683)
(9.31746 0 1.2289)
(9.06574 0 1.4338)
(9.17648 0 1.39321)
(8.89766 0 1.61256)
(9.02198 0 1.57046)
(8.7147 0 1.8059)
(8.8536 0 1.76198)
(8.51628 0 2.01514)
(8.67089 0 1.96919)
(8.30163 0 2.24158)
(8.47322 0 2.19346)
(8.06971 0 2.48647)
(8.25976 0 2.43622)
(7.81916 0 2.75101)
(8.02937 0 2.69887)
(7.54808 0 3.03622)
(7.78051 0 2.98276)
(7.25386 0 3.34292)
(7.51101 0 3.28921)
(6.93291 0 3.67155)
(7.21785 0 3.61939)
(6.5802 0 4.02191)
(6.8968 0 3.97418)
(6.18878 0 4.39277)
(6.54195 0 4.35401)
(5.74917 0 4.78115)
(6.145 0 4.75835)
(5.24863 0 5.18117)
(5.69446 0 5.18499)
(4.67058 0 5.58219)
(5.1746 0 5.62856)
(3.99468 0 5.96591)
(4.56477 0 6.07809)
(3.19832 0 6.30109)
(3.83617 0 6.51288)
(2.26176 0 6.54013)
(2.97081 0 6.89341)
(1.18063 0 6.56465)
(1.87921 0 7.15732)
(0.812863 0 7.099)
(9.98553 0 0.17101)
(9.9944 0 0.117579)
(9.95737 0 0.283778)
(9.97571 0 0.233585)
(9.91597 0 0.397748)
(9.94256 0 0.34997)
(9.86163 0 0.514558)
(9.89619 0 0.468487)
(9.79459 0 0.635714)
(9.83757 0 0.590711)
(9.71504 0 0.76264)
(9.76702 0 0.718115)
(9.62307 0 0.896709)
(9.6846 0 0.852115)
(9.51872 0 1.03927)
(9.59035 0 0.994089)
(9.40193 0 1.19167)
(9.4843 0 1.14541)
(9.27259 0 1.35526)
(9.36642 0 1.30744)
(9.13053 0 1.53141)
(9.2366 0 1.48157)
(8.97548 0 1.72151)
(9.09469 0 1.66922)
(8.80708 0 1.92701)
(8.94043 0 1.87185)
(8.62484 0 2.14937)
(8.77348 0 2.09096)
(8.42808 0 2.39009)
(8.59332 0 2.32812)
(8.21586 0 2.65072)
(8.39927 0 2.58497)
(7.98689 0 2.93285)
(8.19032 0 2.86324)
(7.73932 0 3.2381)
(7.96506 0 3.16477)
(7.47061 0 3.56811)
(7.72151 0 3.49156)
(7.17711 0 3.92452)
(7.4568 0 3.84574)
(6.85369 0 4.30883)
(7.16689 0 4.22963)
(6.4931 0 4.7222)
(6.84596 0 4.64572)
(6.08505 0 5.16495)
(6.48567 0 5.09643)
(5.61513 0 5.6356)
(6.07402 0 5.58376)
(5.06323 0 6.12902)
(5.59352 0 6.10822)
(4.40205 0 6.63294)
(5.01931 0 6.66664)
(3.59614 0 7.12043)
(4.3125 0 7.24759)
(2.60446 0 7.53998)
(3.43584 0 7.81937)
(1.39444 0 7.74)
(2.25674 0 8.31447)
(1.00281 0 8.46477)
(9.9865 0 0.181304)
(9.9948 0 0.124192)
(9.96025 0 0.300919)
(9.97746 0 0.246752)
(9.92173 0 0.421857)
(9.94673 0 0.369757)
(9.87127 0 0.545811)
(9.90382 0 0.495034)
(9.80913 0 0.674321)
(9.84969 0 0.624192)
(9.73554 0 0.808848)
(9.78467 0 0.758733)
(9.65062 0 0.950812)
(9.70886 0 0.900111)
(9.55448 0 1.10161)
(9.62237 0 1.04975)
(9.44713 0 1.26264)
(9.52528 0 1.20905)
(9.32855 0 1.4353)
(9.41765 0 1.37944)
(9.19865 0 1.62103)
(9.29948 0 1.56236)
(9.05729 0 1.82131)
(9.17071 0 1.75927)
(8.90422 0 2.03766)
(9.03121 0 1.97171)
(8.73908 0 2.27168)
(8.88077 0 2.2013)
(8.56136 0 2.52509)
(8.71907 0 2.44974)
(8.37028 0 2.79969)
(8.5456 0 2.71889)
(8.16476 0 3.09747)
(8.3596 0 3.01077)
(7.94319 0 3.42062)
(8.15996 0 3.32767)
(7.70332 0 3.77159)
(7.94506 0 3.67219)
(7.44184 0 4.15323)
(7.71252 0 4.04739)
(7.15403 0 4.56877)
(7.45892 0 4.45697)
(6.83301 0 5.02197)
(7.17924 0 4.90541)
(6.46874 0 5.51695)
(6.8661 0 5.39824)
(6.04637 0 6.05785)
(6.50848 0 5.94218)
(5.54364 0 6.64775)
(6.08942 0 6.54515)
(4.92694 0 7.28594)
(5.58279 0 7.21559)
(4.14516 0 7.96043)
(4.94255 0 7.96031)
(3.12215 0 8.63282)
(4.10973 0 8.77457)
(1.75665 0 9.12752)
(2.87914 0 9.62031)
(1.36526 0 10.1853)
(9.98753 0 0.190855)
(9.99523 0 0.130299)
(9.9633 0 0.316803)
(9.97931 0 0.258903)
(9.92781 0 0.444158)
(9.95112 0 0.387988)
(9.88141 0 0.574666)
(9.91182 0 0.519448)
(9.82438 0 0.709897)
(9.86235 0 0.65492)
(9.75698 0 0.851344)
(9.80305 0 0.795933)
(9.67939 0 1.00046)
(9.73408 0 0.943967)
(9.59176 0 1.15868)
(9.6556 0 1.10048)
(9.4942 0 1.32744)
(9.56777 0 1.2669)
(9.38677 0 1.50817)
(9.47073 0 1.44468)
(9.2695 0 1.70237)
(9.36457 0 1.63529)
(9.14236 0 1.91156)
(9.24936 0 1.84026)
(9.00525 0 2.13736)
(9.12512 0 2.06116)
(8.85799 0 2.38149)
(8.99182 0 2.29969)
(8.70027 0 2.64579)
(8.84932 0 2.55768)
(8.53158 0 2.93233)
(8.69739 0 2.83713)
(8.35114 0 3.24342)
(8.53559 0 3.1403)
(8.15778 0 3.58173)
(8.36323 0 3.46982)
(7.94979 0 3.95045)
(8.17927 0 3.8288)
(7.72461 0 4.35347)
(7.98211 0 4.22105)
(7.47852 0 4.79564)
(7.7694 0 4.65135)
(7.20595 0 5.28314)
(7.53767 0 5.12591)
(6.89854 0 5.82398)
(7.28169 0 5.65294)
(6.54336 0 6.42851)
(6.9935 0 6.24359)
(6.11967 0 7.11018)
(6.66041 0 6.91338)
(5.59276 0 7.8862)
(6.26188 0 7.68461)
(4.90113 0 8.77652)
(5.75753 0 8.59086)
(3.92764 0 9.80055)
(5.08807 0 9.68353)
(2.4342 0 10.8567)
(3.98107 0 11.0485)
(2.14763 0 12.5695)
(9.98861 0 0.199625)
(9.99567 0 0.135878)
(9.9665 0 0.331366)
(9.98123 0 0.269992)
(9.93416 0 0.464567)
(9.95567 0 0.404603)
(9.89195 0 0.601015)
(9.92011 0 0.541653)
(9.8402 0 0.742305)
(9.87544 0 0.682808)
(9.77917 0 0.889954)
(9.82203 0 0.829612)
(9.70912 0 1.04544)
(9.76011 0 0.983564)
(9.63025 0 1.21022)
(9.68987 0 1.14613)
(9.54275 0 1.38575)
(9.61156 0 1.31878)
(9.44677 0 1.57349)
(9.5254 0 1.50296)
(9.34247 0 1.77497)
(9.43161 0 1.70016)
(9.22995 0 1.99175)
(9.33038 0 1.91193)
(9.10928 0 2.22549)
(9.22189 0 2.13988)
(8.98048 0 2.478)
(9.1063 0 2.38575)
(8.8435 0 2.75124)
(8.98371 0 2.65142)
(8.69814 0 3.04742)
(8.85418 0 2.939)
(8.54406 0 3.3691)
(8.71769 0 3.25091)
(8.38066 0 3.71932)
(8.57408 0 3.58996)
(8.20699 0 4.10176)
(8.42302 0 3.95958)
(8.0216 0 4.5211)
(8.26392 0 4.36402)
(7.82232 0 4.98336)
(8.09591 0 4.80876)
(7.60586 0 5.4966)
(7.91762 0 5.30102)
(7.36723 0 6.07186)
(7.72711 0 5.85066)
(7.09854 0 6.7248)
(7.52152 0 6.4716)
(6.78667 0 7.47864)
(7.29667 0 7.18443)
(6.40814 0 8.37017)
(7.04716 0 8.02155)
(5.916 0 9.46399)
(6.76291 0 9.03953)
(5.19768 0 10.9068)
(6.46324 0 10.3542)
(3.88715 0 13.1798)
(6.19399 0 12.3018)
(5.268 0 16.3767)
(0.275214 0 -0.179765)
(0.155433 0 -0.269555)
(0.530237 0 -0.15248)
(0.372461 0 -0.24388)
(0.749192 0 -0.124596)
(0.594197 0 -0.204443)
(0.935865 0 -0.101843)
(0.792035 0 -0.170184)
(1.09614 0 -0.0838684)
(0.960785 0 -0.142664)
(1.2349 0 -0.0695993)
(1.10564 0 -0.120602)
(1.35609 0 -0.0581992)
(1.23218 0 -0.102843)
(1.46289 0 -0.0490275)
(1.34426 0 -0.0884844)
(1.55777 0 -0.0415508)
(1.44442 0 -0.0767533)
(1.64258 0 -0.0352846)
(1.53457 0 -0.0669917)
(1.71848 0 -0.0297205)
(1.61613 0 -0.0585358)
(1.78559 0 -0.0243183)
(1.69001 0 -0.0505305)
(1.84275 0 -0.0186867)
(1.7561 0 -0.0420261)
(1.88811 0 -0.01291)
(1.81309 0 -0.0325638)
(1.92093 0 -0.00762687)
(1.85914 0 -0.0230016)
(1.94287 0 -0.00348244)
(1.89368 0 -0.0150165)
(1.95594 0 -0.000401962)
(1.919 0 -0.00873237)
(1.95958 0 0.0020542)
(1.93743 0 -0.00237015)
(1.95378 0 0.00404273)
(1.94838 0 0.0036943)
(1.9419 0 0.00566779)
(1.95116 0 0.00738816)
(1.92888 0 0.00710585)
(1.94773 0 0.00790457)
(1.91839 0 0.00823371)
(1.94239 0 0.00621744)
(1.91364 0 0.00825484)
(1.93762 0 0.00275038)
(1.91718 0 0.00590496)
(1.93459 0 -0.00199732)
(1.93108 0 0.000768319)
(1.93462 0 -0.00767428)
(1.95841 0 -0.00627168)
(1.93882 0 -0.0147275)
(1.99924 0 -0.0143387)
(1.94886 0 -0.0214773)
(2.05322 0 -0.0224361)
(1.96536 0 -0.0277344)
(2.11879 0 -0.0276529)
(1.98948 0 -0.0328856)
(2.03218 0 -0.031112)
(0.229866 0 -0.380189)
(0.113193 0 -0.494695)
(0.454339 0 -0.33525)
(0.304244 0 -0.458545)
(0.651436 0 -0.280892)
(0.486247 0 -0.388476)
(0.821992 0 -0.234753)
(0.650536 0 -0.325674)
(0.970879 0 -0.19786)
(0.791765 0 -0.275193)
(1.10228 0 -0.168406)
(0.914219 0 -0.234799)
(1.21939 0 -0.144748)
(1.02203 0 -0.202224)
(1.32468 0 -0.125589)
(1.11802 0 -0.175722)
(1.42004 0 -0.109874)
(1.20404 0 -0.153901)
(1.50704 0 -0.0966635)
(1.28141 0 -0.135709)
(1.58695 0 -0.0848695)
(1.35132 0 -0.120161)
(1.66038 0 -0.073145)
(1.41489 0 -0.105825)
(1.72673 0 -0.0603611)
(1.47268 0 -0.0908036)
(1.78403 0 -0.0467036)
(1.52405 0 -0.0736948)
(1.83065 0 -0.0339075)
(1.56693 0 -0.0556835)
(1.86812 0 -0.0227008)
(1.59813 0 -0.0406568)
(1.89992 0 -0.0113435)
(1.62051 0 -0.029979)
(1.92576 0 -0.000253456)
(1.6411 0 -0.0192257)
(1.94405 0 0.0068608)
(1.64755 0 -0.0079563)
(1.95463 0 0.00810012)
(1.63168 0 0.000808086)
(1.95941 0 0.00449426)
(1.59975 0 0.00500062)
(1.96022 0 -0.00204266)
(1.55802 0 0.00573585)
(1.95744 0 -0.0100381)
(1.51093 0 0.00436234)
(1.95078 0 -0.0182432)
(1.46169 0 0.00176703)
(1.94084 0 -0.0248884)
(1.41455 0 -0.00219013)
(1.9286 0 -0.0290858)
(1.37533 0 -0.00813503)
(1.9143 0 -0.0318661)
(1.35256 0 -0.0139535)
(1.90123 0 -0.0338951)
(1.33917 0 -0.0210195)
(1.89409 0 -0.0337424)
(1.34212 0 -0.0293053)
(1.37481 0 -0.0421175)
(0.17768 0 -0.583529)
(0.0768908 0 -0.668721)
(0.348066 0 -0.522067)
(0.223779 0 -0.621486)
(0.496509 0 -0.442674)
(0.347462 0 -0.52708)
(0.624679 0 -0.374096)
(0.461469 0 -0.442522)
(0.736137 0 -0.318707)
(0.55721 0 -0.374405)
(0.833826 0 -0.274044)
(0.639069 0 -0.319703)
(0.920084 0 -0.237727)
(0.709578 0 -0.27542)
(0.99657 0 -0.207858)
(0.770515 0 -0.239094)
(1.06445 0 -0.183034)
(0.823035 0 -0.208814)
(1.12476 0 -0.162196)
(0.867699 0 -0.183347)
(1.17875 0 -0.144035)
(0.904887 0 -0.1618)
(1.2275 0 -0.126372)
(0.935594 0 -0.142531)
(1.27098 0 -0.106453)
(0.961019 0 -0.122774)
(1.30703 0 -0.0836689)
(0.982157 0 -0.099567)
(1.3322 0 -0.063425)
(1.00041 0 -0.0733254)
(1.34889 0 -0.0519194)
(1.00411 0 -0.0520792)
(1.36255 0 -0.0449537)
(0.96777 0 -0.0391102)
(1.36168 0 -0.0333405)
(0.919331 0 -0.0186572)
(1.33229 0 -0.0167322)
(0.875479 0 0.0107686)
(1.27399 0 -0.00127755)
(0.818546 0 0.0370648)
(1.19643 0 0.00980252)
(0.748967 0 0.0520968)
(1.10727 0 0.0168684)
(0.673463 0 0.058605)
(1.01357 0 0.0205162)
(0.597053 0 0.0586012)
(0.923519 0 0.020753)
(0.525507 0 0.052669)
(0.848084 0 0.0169175)
(0.464837 0 0.0394412)
(0.798967 0 0.00846793)
(0.42114 0 0.0183319)
(0.774696 0 -0.00268439)
(0.403571 0 -0.00118378)
(0.778577 0 -0.0165822)
(0.410954 0 -0.0230134)
(0.813143 0 -0.0368905)
(0.439154 0 -0.0466423)
(0.505308 0 -0.0724544)
(0.12359 0 -0.722472)
(0.0430914 0 -0.78977)
(0.231919 0 -0.642707)
(0.136471 0 -0.725081)
(0.321962 0 -0.543203)
(0.19286 0 -0.611155)
(0.397942 0 -0.458258)
(0.249702 0 -0.511791)
(0.461912 0 -0.389566)
(0.291145 0 -0.431348)
(0.515499 0 -0.333964)
(0.323135 0 -0.366275)
(0.56016 0 -0.288511)
(0.346366 0 -0.313319)
(0.596826 0 -0.250736)
(0.361852 0 -0.269474)
(0.625847 0 -0.218834)
(0.370341 0 -0.232291)
(0.647255 0 -0.191757)
(0.371754 0 -0.200257)
(0.661641 0 -0.16867)
(0.365024 0 -0.172894)
(0.670466 0 -0.148259)
(0.348382 0 -0.149176)
(0.675889 0 -0.128076)
(0.321197 0 -0.12676)
(0.67755 0 -0.104374)
(0.283561 0 -0.100759)
(0.666334 0 -0.074055)
(0.242509 0 -0.0654645)
(0.618741 0 -0.0390824)
(0.196384 0 -0.0195096)
(0.530267 0 -0.00474711)
(0.131837 0 0.0200064)
(0.433774 0 0.0291457)
(0.0530674 0 0.0442945)
(0.355381 0 0.0600061)
(-0.00747676 0 0.0607037)
(0.287739 0 0.0805222)
(-0.0614161 0 0.0791342)
(0.222571 0 0.0897737)
(-0.11352 0 0.0916708)
(0.160868 0 0.0899408)
(-0.160455 0 0.0951891)
(0.106546 0 0.0822375)
(-0.200358 0 0.0900486)
(0.0645094 0 0.0663572)
(-0.230424 0 0.0764295)
(0.037548 0 0.0416012)
(-0.248891 0 0.0543208)
(0.0252142 0 0.0114171)
(-0.256717 0 0.024978)
(0.0367666 0 -0.0185933)
(-0.253728 0 -0.00726178)
(0.0698142 0 -0.0496421)
(-0.228623 0 -0.0399899)
(0.123238 0 -0.0815445)
(-0.198826 0 -0.0734377)
(-0.157179 0 -0.0969721)
(0.0632163 0 -0.802784)
(0.00831405 0 -0.851687)
(0.103622 0 -0.703771)
(0.040442 0 -0.763722)
(0.129679 0 -0.589229)
(0.024999 0 -0.635484)
(0.146813 0 -0.493298)
(0.019415 0 -0.527411)
(0.155275 0 -0.41525)
(0.000418162 0 -0.438881)
(0.155888 0 -0.351755)
(-0.0245446 0 -0.366808)
(0.149386 0 -0.299643)
(-0.056243 0 -0.307801)
(0.136335 0 -0.256018)
(-0.0941302 0 -0.258661)
(0.116816 0 -0.218431)
(-0.13766 0 -0.2165)
(0.0897658 0 -0.184997)
(-0.186603 0 -0.178891)
(0.0523453 0 -0.153782)
(-0.241273 0 -0.144035)
(0.000991 0 -0.122423)
(-0.302763 0 -0.110507)
(-0.0664969 0 -0.088063)
(-0.371104 0 -0.0771425)
(-0.146944 0 -0.047586)
(-0.446485 0 -0.0430105)
(-0.231125 0 -0.00294262)
(-0.520023 0 -0.00646219)
(-0.297021 0 0.0348809)
(-0.580939 0 0.0255854)
(-0.342841 0 0.0583265)
(-0.623393 0 0.0506221)
(-0.385914 0 0.0736189)
(-0.664804 0 0.0723954)
(-0.43096 0 0.0886174)
(-0.701174 0 0.0893978)
(-0.469732 0 0.101519)
(-0.732777 0 0.103248)
(-0.501095 0 0.10695)
(-0.758057 0 0.110716)
(-0.524953 0 0.102964)
(-0.775977 0 0.109335)
(-0.540284 0 0.0898006)
(-0.786251 0 0.0989236)
(-0.54656 0 0.0680635)
(-0.788918 0 0.0799774)
(-0.544711 0 0.039047)
(-0.784907 0 0.0533002)
(-0.536293 0 0.00547727)
(-0.776523 0 0.0204419)
(-0.520405 0 -0.0302736)
(-0.766012 0 -0.015621)
(-0.498073 0 -0.0648492)
(-0.747319 0 -0.051462)
(-0.47686 0 -0.0923157)
(-0.733013 0 -0.0840772)
(-0.725606 0 -0.107453)
(-0.00661996 0 -0.816033)
(-0.0307767 0 -0.845203)
(-0.0353292 0 -0.697644)
(-0.0652176 0 -0.736267)
(-0.0759319 0 -0.57255)
(-0.151141 0 -0.597573)
(-0.122565 0 -0.469843)
(-0.222705 0 -0.484897)
(-0.175376 0 -0.385665)
(-0.30266 0 -0.391872)
(-0.233799 0 -0.316804)
(-0.384377 0 -0.316032)
(-0.297573 0 -0.2597)
(-0.468025 0 -0.253684)
(-0.36639 0 -0.211111)
(-0.552689 0 -0.201643)
(-0.439735 0 -0.168342)
(-0.637493 0 -0.157166)
(-0.516532 0 -0.129537)
(-0.721552 0 -0.118232)
(-0.594967 0 -0.0936897)
(-0.803916 0 -0.0835454)
(-0.672995 0 -0.0603735)
(-0.883433 0 -0.0517518)
(-0.748334 0 -0.0295603)
(-0.95725 0 -0.0217521)
(-0.816056 0 -0.00112554)
(-1.02284 0 0.00560393)
(-0.868985 0 0.0256322)
(-1.07748 0 0.0306351)
(-0.910703 0 0.0514249)
(-1.11934 0 0.0541346)
(-0.947928 0 0.0750132)
(-1.1561 0 0.0754951)
(-0.979708 0 0.0934842)
(-1.1868 0 0.0931282)
(-1.00641 0 0.106508)
(-1.21111 0 0.106407)
(-1.0255 0 0.114177)
(-1.22815 0 0.115123)
(-1.03645 0 0.114358)
(-1.23762 0 0.117362)
(-1.04018 0 0.105877)
(-1.23998 0 0.111549)
(-1.03767 0 0.088906)
(-1.23627 0 0.0974667)
(-1.03008 0 0.0642443)
(-1.22775 0 0.0756902)
(-1.01912 0 0.0332437)
(-1.21614 0 0.0472501)
(-1.00648 0 -0.00193719)
(-1.20373 0 0.013634)
(-0.993618 0 -0.0382586)
(-1.19238 0 -0.02239)
(-0.981683 0 -0.0723224)
(-1.18104 0 -0.0575927)
(-0.971797 0 -0.0997782)
(-1.17609 0 -0.0890356)
(-1.17644 0 -0.112131)
(-0.0767889 0 -0.757195)
(-0.0758032 0 -0.769993)
(-0.179708 0 -0.624715)
(-0.176291 0 -0.637845)
(-0.287442 0 -0.496757)
(-0.328663 0 -0.496979)
(-0.397504 0 -0.393245)
(-0.462823 0 -0.384557)
(-0.507285 0 -0.309143)
(-0.595519 0 -0.294152)
(-0.615572 0 -0.240905)
(-0.722048 0 -0.221918)
(-0.720949 0 -0.185088)
(-0.841539 0 -0.164263)
(-0.822103 0 -0.138732)
(-0.953194 0 -0.117833)
(-0.917931 0 -0.0993918)
(-1.0565 0 -0.0796437)
(-1.00777 0 -0.065291)
(-1.15088 0 -0.0472712)
(-1.091 0 -0.0352178)
(-1.23517 0 -0.0193564)
(-1.16586 0 -0.00837064)
(-1.31006 0 0.00461769)
(-1.22971 0 0.0157899)
(-1.37541 0 0.0251926)
(-1.28295 0 0.0379423)
(-1.43092 0 0.0438172)
(-1.32788 0 0.0587685)
(-1.47781 0 0.0621268)
(-1.36553 0 0.07815)
(-1.51732 0 0.0799017)
(-1.39579 0 0.0949861)
(-1.54909 0 0.0957174)
(-1.41888 0 0.107965)
(-1.57315 0 0.108192)
(-1.43482 0 0.116279)
(-1.58959 0 0.116559)
(-1.44294 0 0.118989)
(-1.59836 0 0.120174)
(-1.44363 0 0.114758)
(-1.59986 0 0.117782)
(-1.43829 0 0.102873)
(-1.59518 0 0.108379)
(-1.4285 0 0.0835334)
(-1.5858 0 0.0918026)
(-1.41592 0 0.0575595)
(-1.57336 0 0.068577)
(-1.40231 0 0.0263025)
(-1.55974 0 0.039739)
(-1.38952 0 -0.00821547)
(-1.54707 0 0.00674377)
(-1.37954 0 -0.043213)
(-1.53713 0 -0.0276404)
(-1.3732 0 -0.0757757)
(-1.53109 0 -0.0608506)
(-1.37025 0 -0.102131)
(-1.53163 0 -0.0905158)
(-1.53484 0 -0.112136)
(-0.150885 0 -0.630097)
(-0.126933 0 -0.62221)
(-0.322621 0 -0.490377)
(-0.28894 0 -0.473613)
(-0.492556 0 -0.366873)
(-0.501644 0 -0.338307)
(-0.654733 0 -0.270742)
(-0.687964 0 -0.236707)
(-0.805944 0 -0.195824)
(-0.859985 0 -0.159554)
(-0.945204 0 -0.137103)
(-1.01492 0 -0.100886)
(-1.0719 0 -0.0905875)
(-1.15083 0 -0.0567478)
(-1.18625 0 -0.053441)
(-1.27017 0 -0.0230921)
(-1.28825 0 -0.0234372)
(-1.37472 0 0.00287038)
(-1.3772 0 0.000966599)
(-1.46614 0 0.0229882)
(-1.45325 0 0.0211891)
(-1.54577 0 0.0392944)
(-1.51832 0 0.0387027)
(-1.61485 0 0.0536193)
(-1.57508 0 0.0548068)
(-1.67504 0 0.0669194)
(-1.62495 0 0.0703873)
(-1.72776 0 0.0796196)
(-1.6673 0 0.0854207)
(-1.77258 0 0.0918064)
(-1.70133 0 0.0990698)
(-1.80911 0 0.103189)
(-1.72695 0 0.110197)
(-1.83717 0 0.112835)
(-1.74457 0 0.117823)
(-1.85701 0 0.119689)
(-1.75457 0 0.121173)
(-1.86902 0 0.122932)
(-1.75722 0 0.119373)
(-1.87364 0 0.121818)
(-1.75337 0 0.111501)
(-1.8717 0 0.115446)
(-1.74455 0 0.0970855)
(-1.86449 0 0.103149)
(-1.73248 0 0.076312)
(-1.85362 0 0.084815)
(-1.7189 0 0.0499516)
(-1.84079 0 0.0609007)
(-1.70562 0 0.0193535)
(-1.82787 0 0.0324096)
(-1.69456 0 -0.0135421)
(-1.81699 0 0.000786878)
(-1.68774 0 -0.0462968)
(-1.80975 0 -0.0312287)
(-1.68582 0 -0.0765427)
(-1.80846 0 -0.0618389)
(-1.68865 0 -0.100854)
(-1.81333 0 -0.0890971)
(-1.81833 0 -0.108254)
(-0.227306 0 -0.441712)
(-0.188284 0 -0.399577)
(-0.462633 0 -0.306249)
(-0.412837 0 -0.248569)
(-0.685454 0 -0.198667)
(-0.6736 0 -0.130254)
(-0.886959 0 -0.118481)
(-0.891072 0 -0.0530018)
(-1.0652 0 -0.0586743)
(-1.07966 0 -0.000894531)
(-1.21786 0 -0.0160569)
(-1.24092 0 0.0317891)
(-1.34748 0 0.0131549)
(-1.37843 0 0.0532465)
(-1.45757 0 0.0340286)
(-1.4963 0 0.0681257)