/*--------------------------------*- C++ -*----------------------------------*\
  =========                 |
  \\      /  F ield         | OpenFOAM: The Open Source CFD Toolbox
   \\    /   O peration     | Website:  https://openfoam.org
    \\  /    A nd           | Version:  dev
     \\/     M anipulation  |
\*---------------------------------------------------------------------------*/
FoamFile
{
    version     2.0;
    format      ascii;
    class       volScalarField;
    location    "1.3";
    object      p;
}
// * * * * * * * * * * * * * * * * * * * * * * * * * * * * * * * * * * * * * //

dimensions      [0 2 -2 0 0 0 0];

internalField   nonuniform List<scalar> 
2790
(
191.225
191.133
191.402
191.976
192.759
193.721
194.857
196.167
197.646
199.289
201.088
203.037
205.126
207.344
209.673
212.094
214.579
217.094
219.598
222.039
224.361
226.499
228.388
229.966
231.186
232.024
232.426
232.464
232.519
232.727
191.022
191.04
191.334
191.905
192.685
193.643
194.775
196.079
197.551
199.185
200.975
202.914
204.993
207.199
209.518
211.929
214.406
216.916
219.418
221.863
224.195
226.351
228.263
229.869
231.112
231.948
232.312
232.363
232.487
232.757
190.823
190.911
191.224
191.785
192.552
193.497
194.614
195.899
197.35
198.96
200.722
202.63
204.674
206.842
209.12
211.488
213.921
216.389
218.854
221.269
223.583
225.737
227.667
229.314
230.623
231.561
232.122
232.459
232.756
233.04
190.597
190.716
191.042
191.594
192.346
193.275
194.372
195.634
197.056
198.633
200.357
202.221
204.215
206.329
208.548
210.852
213.218
215.619
218.02
220.379
222.651
224.784
226.725
228.423
229.836
230.95
231.784
232.429
232.961
233.465
190.335
190.468
190.803
191.347
192.083
192.991
194.062
195.293
196.678
198.212
199.887
201.695
203.627
205.672
207.814
210.036
212.317
214.631
216.947
219.23
221.442
223.54
225.482
227.232
228.762
230.066
231.161
232.095
232.884
233.614
190.033
190.172
190.508
191.043
191.759
192.641
193.681
194.874
196.215
197.697
199.314
201.056
202.914
204.876
206.928
209.054
211.233
213.442
215.655
217.842
219.972
222.014
223.938
225.72
227.343
228.807
230.118
231.294
232.291
233.19
189.689
189.829
190.162
190.684
191.377
192.229
193.233
194.382
195.672
197.095
198.643
200.309
202.082
203.95
205.899
207.914
209.975
212.062
214.152
216.222
218.247
220.205
222.077
223.85
225.518
227.081
228.541
229.889
231.03
232.056
189.302
189.44
189.767
190.272
190.939
191.758
192.72
193.82
195.052
196.408
197.881
199.461
201.138
202.9
204.734
206.623
208.551
210.498
212.446
214.373
216.263
218.1
219.874
221.582
223.225
224.81
226.331
227.773
228.998
230.127
188.874
189.008
189.324
189.81
190.448
191.229
192.145
193.191
194.359
195.641
197.03
198.516
200.088
201.734
203.44
205.19
206.968
208.757
210.538
212.296
214.015
215.686
217.305
218.875
220.405
221.909
223.386
224.827
226.074
227.289
188.405
188.534
188.837
189.3
189.907
190.647
191.513
192.499
193.597
194.8
196.099
197.483
198.94
200.459
202.025
203.623
205.236
206.846
208.437
209.993
211.501
212.953
214.347
215.69
216.997
218.29
219.585
220.896
222.074
223.351
187.897
188.02
188.307
188.746
189.318
190.014
190.826
191.748
192.773
193.891
195.092
196.367
197.702
199.085
200.501
201.933
203.364
204.776
206.152
207.473
208.726
209.899
210.989
212
212.947
213.859
214.773
215.753
216.697
217.987
187.352
187.467
187.738
188.15
188.685
189.334
190.089
190.944
191.89
192.918
194.017
195.177
196.383
197.622
198.877
200.132
201.367
202.563
203.698
204.751
205.704
206.537
207.237
207.796
208.218
208.526
208.769
209.076
209.453
210.598
186.772
186.879
187.131
187.515
188.011
188.611
189.306
190.091
190.955
191.889
192.881
193.92
194.991
196.079
197.166
198.234
199.261
200.223
201.096
201.852
202.463
202.897
203.121
203.104
202.814
202.238
201.394
200.436
199.52
200.011
186.159
186.258
186.491
186.844
187.299
187.848
188.482
189.193
189.973
190.81
191.692
192.606
193.538
194.469
195.382
196.255
197.063
197.78
198.373
198.809
199.044
199.031
198.708
198
196.816
195.042
192.559
189.362
185.539
183.564
185.516
185.606
185.819
186.14
186.554
187.049
187.62
188.256
188.949
189.686
190.456
191.243
192.032
192.804
193.539
194.212
194.795
195.258
195.562
195.662
195.503
195.013
194.098
192.628
190.416
187.185
182.494
175.707
165.598
153.79
49.4251
49.1582
48.6144
47.9475
47.2444
46.53
45.8108
45.0898
44.3658
43.642
42.8876
42.0836
41.1971
40.1982
39.0526
37.734
36.2302
34.5358
32.6526
30.592
28.3741
26.026
23.5798
21.0667
18.5119
15.8712
13.0723
10.0686
6.65772
2.6093
49.0757
48.7993
48.3285
47.7338
47.0851
46.4142
45.7377
45.0687
44.3939
43.6789
42.9313
42.1338
41.2547
40.2617
39.1154
37.7871
36.2723
34.567
32.6727
30.601
28.3725
26.0148
23.56
21.0385
18.4604
15.7916
12.9748
9.94011
6.51221
2.47127
48.9377
48.6647
48.249
47.7128
47.1187
46.4993
45.872
45.2227
44.5405
43.8308
43.0834
42.2762
41.3797
40.3625
39.1914
37.8414
36.3035
34.5749
32.6591
30.5681
28.3223
25.9485
23.477
20.934
18.3231
15.6175
12.7768
9.73402
6.3361
2.3161
49.0424
48.7595
48.3829
47.8898
47.3393
46.7535
46.1345
45.4824
44.8061
44.0943
43.3313
42.4961
41.5622
40.5012
39.2854
37.8934
36.315
34.5477
32.5961
30.473
28.1986
25.7987
23.3006
20.7256
18.0786
15.3411
12.4803
9.44186
6.09024
2.16306
49.3682
49.0909
48.722
48.249
47.7181
47.1398
46.5182
45.865
45.1791
44.4473
43.6529
42.7753
41.7901
40.6722
39.3978
37.9488
36.3157
34.4965
32.497
30.3305
28.0174
25.5824
23.0501
20.439
17.7563
14.991
12.1179
9.09143
5.79193
2.01381
49.8405
49.5586
49.183
48.7077
48.1883
47.6084
46.9872
46.3271
45.6226
44.8613
44.0265
43.0978
42.053
40.8694
39.5264
38.0088
36.3085
34.4246
32.3644
30.142
27.7783
25.2979
22.7245
20.0752
17.3602
14.5751
11.7003
8.69439
5.4588
1.86722
50.3363
50.0525
49.6845
49.2349
48.7025
48.1234
47.4994
46.8288
46.1038
45.3113
44.434
43.4519
42.3442
41.0903
39.6726
38.0782
36.301
34.3421
32.21
29.9205
27.4955
24.9605
22.3393
19.65
16.9051
14.1069
11.2395
8.2628
5.10538
1.72248
50.7848
50.5222
50.1674
49.7247
49.2066
48.6346
48.0127
47.3369
46.5971
45.7783
44.8625
43.8297
42.6602
41.3353
39.8398
38.1633
36.3019
34.2588
32.0448
29.6775
27.1807
24.5815
21.906
19.1746
16.402
13.5967
10.7447
7.80648
4.74115
1.57937
51.1753
50.9291
50.5871
50.1552
49.6571
49.1044
48.4975
47.8291
47.0859
46.2509
45.305
44.2281
43.0012
41.6074
40.0335
38.2718
36.3207
34.186
31.881
29.4259
26.8471
24.1744
21.4373
18.6606
15.8628
13.0549
10.2239
7.33319
4.3721
1.43786
51.4577
51.2141
50.8922
50.4901
50.0292
49.514
48.9401
48.2956
47.564
46.7259
45.7609
44.6487
43.3709
41.912
40.2611
38.4128
36.3681
34.1357
31.7316
29.1794
26.5089
23.7532
20.9465
18.1196
15.2966
12.4888
9.68364
6.84877
4.00198
1.29796
51.5743
51.3491
51.0681
50.7189
50.3183
49.8628
49.3421
48.7396
48.0354
47.208
46.2354
45.0973
43.7758
42.2568
40.5313
38.5962
36.4553
34.12
31.6098
28.9519
26.1801
23.332
20.4467
17.5624
14.7104
11.9038
9.12945
6.35744
3.63299
1.15978
51.5267
51.3354
51.1206
50.8537
50.5405
50.1676
49.7194
49.1755
48.5129
47.7081
46.7383
45.583
44.2247
42.6506
40.8534
38.8321
36.5934
34.1513
31.5288
28.7572
25.8747
22.9241
19.9504
16.9994
14.1122
11.3071
8.56688
5.86213
3.26619
1.02328
51.3103
51.1756
51.0685
50.9248
50.7288
50.4591
50.0989
49.6256
49.0146
48.2412
47.2819
46.1162
44.7269
43.1022
41.2362
39.1301
36.7928
34.2411
31.5011
28.6084
25.6066
22.5436
19.471
16.4433
13.512
10.704
7.99729
5.36438
2.90177
0.888203
50.8859
50.8553
50.9393
50.9812
50.9316
50.7776
50.513
50.1158
49.5607
48.8227
47.8783
46.7064
45.2903
43.6188
41.6871
39.4981
37.0627
34.3998
31.5384
28.5186
25.3894
22.2047
19.0223
15.9053
12.9166
10.0944
7.41931
4.86542
2.53928
0.754215
50.1345
50.3105
50.773
51.0978
51.2086
51.1641
50.9928
50.6694
50.1681
49.465
48.536
47.3598
45.9195
44.2043
42.2099
39.9405
37.4087
34.6348
31.6499
28.4984
25.2352
21.9197
18.6155
15.3954
12.333
9.48246
6.84
4.36821
2.1783
0.621203
184.832
184.914
185.105
185.393
185.763
186.204
186.708
187.267
187.87
188.505
189.158
189.815
190.457
191.065
191.617
192.084
192.437
192.639
192.646
192.402
191.838
190.861
189.342
187.095
183.832
179.077
171.946
160.601
139.25
81.7608
184.1
184.172
184.341
184.594
184.918
185.302
185.738
186.217
186.726
187.255
187.789
188.31
188.802
189.242
189.605
189.863
189.982
189.92
189.627
189.04
188.078
186.63
184.544
181.598
177.449
171.536
162.874
149.809
131.077
103.881
183.325
183.388
183.533
183.751
184.027
184.352
184.717
185.113
185.528
185.948
186.36
186.745
187.083
187.354
187.529
187.577
187.463
187.142
186.558
185.644
184.312
182.444
179.883
176.409
171.711
165.357
156.794
145.429
131.855
116.15
182.509
182.561
182.682
182.863
183.091
183.356
183.65
183.961
184.28
184.591
184.879
185.127
185.313
185.415
185.404
185.248
184.908
184.338
183.482
182.27
180.612
178.397
175.479
171.671
166.739
160.41
152.414
142.452
130.51
116.198
181.653
181.694
181.791
181.935
182.113
182.317
182.538
182.766
182.987
183.189
183.355
183.466
183.503
183.439
183.248
182.895
182.342
181.542
180.439
178.965
177.038
174.555
171.393
167.405
162.422
156.26
148.738
139.64
128.831
116.529
180.759
180.79
180.862
180.968
181.097
181.24
181.388
181.531
181.657
181.75
181.795
181.774
181.664
181.441
181.078
180.54
179.79
178.782
177.463
175.77
173.63
170.954
167.644
163.588
158.663
152.749
145.736
137.543
128.179
118.057
179.83
179.851
179.898
179.966
180.046
180.128
180.204
180.264
180.294
180.282
180.209
180.059
179.809
179.436
178.912
178.204
177.275
176.085
174.583
172.714
170.414
167.613
164.234
160.194
155.413
149.823
143.378
136.077
127.979
119.414
178.87
178.88
178.903
178.933
178.964
178.986
178.991
178.969
178.908
178.792
178.607
178.334
177.952
177.438
176.765
175.903
174.818
173.471
171.82
169.816
167.407
164.538
161.151
157.192
152.612
147.379
141.483
134.954
127.849
120.434
177.881
177.881
177.88
177.873
177.856
177.819
177.756
177.654
177.504
177.29
176.997
176.608
176.103
175.46
174.653
173.655
172.435
170.959
169.19
167.089
164.614
161.723
158.378
154.541
150.19
145.312
139.919
134.049
127.759
121.272
176.869
176.859
176.834
176.791
176.727
176.633
176.503
176.326
176.09
175.783
175.39
174.893
174.275
173.515
172.589
171.474
170.14
168.561
166.705
164.539
162.034
159.158
155.886
152.199
148.085
143.548
138.609
133.31
127.705
121.975
175.837
175.817
175.769
175.692
175.582
175.434
175.241
174.991
174.676
174.281
173.794
173.199
172.479
171.614
170.585
169.37
167.945
166.286
164.368
162.167
159.66
156.827
153.651
150.125
146.248
142.031
137.499
132.692
127.66
122.547
174.79
174.761
174.691
174.581
174.428
174.229
173.975
173.658
173.267
172.792
172.219
171.535
170.723
169.768
168.651
167.353
165.856
164.139
162.182
159.969
157.483
154.711
151.646
148.285
144.636
140.713
136.543
132.161
127.609
123.005
173.734
173.696
173.606
173.464
173.271
173.022
172.712
172.332
171.873
171.324
170.674
169.91
169.018
167.985
166.795
165.431
163.878
162.122
160.146
157.939
155.491
152.793
149.845
146.649
143.215
139.559
135.707
131.691
127.545
123.364
172.675
172.628
172.518
172.347
172.116
171.822
171.46
171.022
170.5
169.884
169.165
168.332
167.372
166.273
165.022
163.607
162.016
160.236
158.257
156.07
153.671
151.056
148.226
145.188
141.954
138.54
134.968
131.267
127.465
123.641
171.618
171.564
171.436
171.237
170.971
170.636
170.226
169.735
169.156
168.481
167.702
166.808
165.789
164.637
163.339
161.886
160.269
158.478
156.508
154.353
152.011
149.482
146.769
143.882
140.831
137.633
134.308
130.879
127.372
123.849
170.571
170.51
170.365
170.141
169.842
169.469
169.016
168.478
167.849
167.122
166.29
165.345
164.278
163.082
161.748
160.269
158.637
156.848
154.896
152.78
150.499
148.056
145.457
142.71
139.826
136.821
133.713
130.521
127.265
123.998
169.54
169.472
169.312
169.065
168.737
168.33
167.838
167.258
166.585
165.813
164.936
163.948
162.842
161.612
160.252
158.756
157.12
155.34
153.413
151.341
149.124
146.766
144.274
141.656
138.924
136.092
133.173
130.186
127.147
124.1
168.531
168.458
168.284
168.016
167.663
167.225
166.699
166.083
165.371
164.561
163.646
162.623
161.487
160.231
158.853
157.349
155.715
153.95
152.054
150.028
147.875
145.599
143.208
140.709
138.114
135.433
132.682
129.873
127.021
124.164
167.554
167.474
167.288
167.002
166.626
166.161
165.606
164.958
164.214
163.371
162.426
161.375
160.214
158.941
157.553
156.046
154.421
152.676
150.814
148.835
146.744
144.546
142.247
139.857
137.384
134.839
132.233
129.58
126.89
124.196
166.613
166.529
166.333
166.031
165.634
165.146
164.565
163.89
163.119
162.249
161.28
160.207
159.029
157.744
156.35
154.848
153.235
151.514
149.686
147.754
145.723
143.597
141.385
139.092
136.728
134.302
131.825
129.307
126.758
124.204
165.719
165.631
165.424
165.108
164.694
164.186
163.584
162.886
162.092
161.201
160.212
159.123
157.933
156.642
155.248
153.752
152.155
150.459
148.666
146.78
144.805
142.747
140.612
138.407
136.14
133.819
131.454
129.053
126.626
124.193
164.878
164.786
164.572
164.244
163.814
163.289
162.669
161.952
161.14
160.232
159.228
158.128
156.93
155.636
154.245
152.76
151.181
149.51
147.752
145.909
143.986
141.989
139.924
137.797
135.615
133.387
131.119
128.82
126.498
124.17
164.099
164.004
163.782
163.444
163.002
162.462
161.827
161.095
160.269
159.348
158.332
157.224
156.022
154.728
153.344
151.87
150.309
148.664
146.938
145.136
143.261
141.319
139.316
137.258
135.151
133.003
130.82
128.609
126.376
124.139
163.39
163.293
163.064
162.717
162.264
161.713
161.065
160.321
159.483
158.552
157.529
156.416
155.213
153.922
152.545
151.084
149.541
147.92
146.225
144.459
142.627
140.734
138.786
136.788
134.746
132.667
130.556
128.42
126.265
124.104
162.76
162.66
162.426
162.07
161.608
161.047
160.389
159.636
158.789
157.851
156.823
155.707
154.504
153.218
151.849
150.4
148.875
147.277
145.609
143.876
142.082
140.232
138.331
136.385
134.399
132.378
130.329
128.256
126.166
124.069
162.219
162.116
161.876
161.512
161.042
160.473
159.808
159.048
158.195
157.251
156.22
155.103
153.903
152.621
151.26
149.824
148.315
146.737
145.093
143.389
141.627
139.814
137.953
136.051
134.111
132.139
130.141
128.121
126.085
124.042
161.776
161.67
161.422
161.05
160.573
159.997
159.326
158.559
157.702
156.755
155.723
154.606
153.408
152.131
150.778
149.353
147.858
146.297
144.674
142.994
141.259
139.476
137.648
135.78
133.878
131.945
129.988
128.01
126.016
124.015
161.444
161.331
161.074
160.696
160.213
159.633
158.956
158.186
157.325
156.377
155.343
154.227
153.032
151.76
150.414
148.998
147.515
145.968
144.362
142.7
140.988
139.228
137.426
135.586
133.714
131.812
129.887
127.943
125.983
124.016
161.238
161.101
160.827
160.442
159.957
159.374
158.695
157.922
157.06
156.111
155.077
153.963
152.77
151.502
150.162
148.752
147.277
145.741
144.146
142.498
140.8
139.056
137.271
135.45
133.597
131.715
129.811
127.887
125.949
124.001
161.217
161.016
160.714
160.323
159.835
159.248
158.566
157.791
156.928
155.979
154.946
153.833
152.643
151.379
150.043
148.639
147.171
145.642
144.056
142.417
140.73
138.997
137.225
135.417
133.577
131.709
129.819
127.91
125.987
124.053
1.36963
20.7109
38.925
84.6849
77.8331
66.9471
99.8763
88.7434
78.4965
100.999
91.3606
83.9721
104.808
97.1458
90.927
108.693
102.299
96.8483
111.489
106.02
101.312
113.616
108.912
104.858
115.351
111.263
107.74
116.768
113.169
110.071
117.914
114.708
111.954
118.839
115.955
113.48
119.585
116.965
114.722
120.185
117.785
115.733
120.664
118.45
116.559
121.044
118.988
117.234
121.343
119.422
117.786
121.576
119.772
118.237
121.755
120.052
118.604
121.89
120.275
118.902
121.991
120.452
119.144
122.063
120.591
119.339
122.115
120.7
119.496
122.152
120.786
119.624
122.176
120.852
119.725
122.2
120.911
119.812
122.212
120.951
119.876
122.247
121.008
119.949
122.251
121.028
119.984
122.325
121.116
120.077
47.8771
48.9994
50.5461
51.3871
51.6249
51.6518
51.5665
51.3103
50.8566
50.1851
49.2706
48.0905
46.6279
44.8716
42.8175
40.4705
37.8448
34.9611
31.851
28.5638
25.1599
21.7037
18.263
14.9221
11.7668
8.86849
6.24326
3.85112
1.81017
0.486164
55.1974
52.4961
52.6054
52.4238
52.2008
52.2195
52.2476
52.0518
51.6371
50.9926
50.0885
48.9023
47.4169
45.621
43.5109
41.0922
38.3806
35.3912
32.1562
28.7311
25.1814
21.5749
17.9785
14.494
11.2193
8.24006
5.60963
3.31023
1.43537
0.344762
65.5076
57.707
54.9761
53.8212
53.5301
53.4314
53.2059
52.8818
52.4666
51.8533
50.9641
49.773
48.2656
46.4322
44.2704
41.7853
38.9919
35.905
32.5572
29.007
25.3206
21.5513
17.7801
14.132
10.7129
7.61705
4.96167
2.75653
1.05136
0.189499
74.059
65.0397
59.9964
57.1119
55.5618
54.7603
54.3374
54.003
53.5205
52.8125
51.8721
50.6626
49.1379
47.2751
45.0699
42.5275
39.6625
36.4925
33.0507
29.3889
25.5662
21.6381
17.7075
13.9002
10.2927
7.02624
4.27853
2.13588
0.620985
-0.00227642
82.2699
73.3297
66.8702
62.3355
59.2732
57.3039
56.0802
55.2715
54.5971
53.8452
52.8673
51.5962
50.0152
48.1112
45.8684
43.2822
40.3623
37.1274
33.6102
29.8575
25.9253
21.8752
17.8065
13.825
10.012
6.56885
3.70543
1.57369
0.264215
-0.196478
89.3721
81.1087
74.0256
68.3936
64.1765
61.1189
58.9245
57.3224
56.0757
54.9731
53.8295
52.4979
50.8802
48.9315
46.6422
44.014
41.0531
37.7732
34.2026
30.385
26.3753
22.2384
18.0662
13.9604
10.0249
6.45849
3.46177
1.23655
0.113756
-0.328701
95.0508
87.739
80.6565
74.5093
69.5599
65.6698
62.6212
60.2146
58.2642
56.5921
55.0338
53.4416
51.6898
49.6823
47.3605
44.7019
41.7096
38.3994
34.7973
30.9426
26.8874
22.697
18.4599
14.2826
10.2876
6.66172
3.60951
1.33632
0.109612
-0.518121
99.5895
93.2017
86.4804
80.2549
74.9421
70.502
66.7961
63.6975
61.0769
58.7959
56.716
54.7078
52.6552
50.4578
48.0348
45.33
42.3161
38.9917
35.3773
31.5096
27.4387
23.2288
18.9662
14.7595
10.7399
7.08569
3.99875
1.66707
0.260527
-0.619772
103.227
97.6286
91.4206
85.39
80.0001
75.2736
71.1314
67.5056
64.3211
61.4826
58.8827
56.4141
53.9758
51.4775
48.8412
46.0039
42.921
39.5694
35.9499
32.0864
28.0231
23.822
19.567
15.3649
11.3474
7.68206
4.55496
2.12896
0.515726
-0.645615
106.135
101.188
95.522
89.8263
84.5504
79.7471
75.3736
71.4009
67.7954
64.5005
61.4416
58.5368
55.7038
52.8651
49.9515
46.9043
43.678
40.2424
36.5856
32.7166
28.6664
24.4886
20.2605
16.0839
12.0849
8.41617
5.24131
2.69569
0.855544
-0.602086
108.471
104.055
98.898
93.5862
88.5307
83.7937
79.3502
75.1928
71.3141
67.6868
64.2644
60.9893
57.7997
54.6334
51.4323
48.1451
44.7305
41.1592
37.4164
33.5045
29.4447
25.2802
21.0777
16.9285
12.9473
9.26888
6.03218
3.34617
1.2624
-0.509827
110.36
106.382
101.676
96.7446
91.9557
87.3693
82.9675
78.752
74.7297
70.8919
67.2129
63.6555
60.176
56.7282
53.266
49.7473
46.1371
42.4095
38.551
34.5622
30.4601
26.2808
22.0812
17.9404
13.958
10.2484
6.92591
4.07544
1.72947
-0.38217
111.899
108.283
103.969
99.3909
94.8779
90.4841
86.1927
82.0076
77.9417
73.9973
70.162
66.4135
62.7228
59.0571
55.3823
51.6659
47.8797
44.0029
40.0241
35.9443
31.7785
27.5583
23.3329
19.1703
15.1548
11.3811
7.94066
4.89724
2.26809
-0.204199
113.157
109.847
105.87
101.61
97.3632
93.1765
89.0324
84.9335
80.8944
76.9225
73.0137
69.1555
65.3296
61.5139
57.6841
53.8165
49.8897
45.8879
41.8027
37.6358
33.4011
29.1261
24.8537
20.6418
16.5608
12.6883
9.09618
5.83122
2.90017
0.0630891
114.191
111.139
107.454
103.477
99.4765
95.4957
91.5146
87.5334
83.566
79.6219
75.7016
71.7987
67.9023
63.998
60.0694
56.0994
52.073
47.9786
43.8107
39.5718
35.2744
30.9426
26.613
22.334
18.164
14.1655
10.395
6.88693
3.64317
0.45665
115.042
112.212
108.779
105.051
101.276
97.4912
93.6757
89.827
85.9573
82.0765
78.1874
74.2874
70.3704
66.4274
62.4474
58.4191
54.3317
50.1775
45.9531
41.6616
37.3141
32.9309
28.5424
24.1887
19.917
15.7772
11.8134
8.05201
4.49451
0.983307
115.745
113.104
109.89
106.382
102.81
99.2081
95.5535
91.8415
88.0823
84.2854
80.4547
76.5898
72.6875
68.7424
64.7477
60.6958
56.5795
52.3937
48.1366
43.8113
39.4272
35.0011
30.5575
26.1285
21.7514
17.4654
13.3049
9.29068
5.42574
1.61133
116.324
113.848
110.823
107.509
104.12
100.685
97.1828
93.6052
89.9608
86.2583
82.5017
78.6918
74.8273
70.9053
66.9215
62.8712
58.7496
54.5535
50.282
45.938
41.5291
37.0684
32.5751
28.0739
23.5936
19.1641
14.8114
10.552
6.38962
2.28353
116.802
114.467
111.608
108.465
105.238
101.956
98.5944
95.1452
91.6144
88.0096
84.3348
80.5912
76.7785
72.8952
68.939
64.9069
60.7959
56.604
52.3307
47.9784
43.5528
39.0638
34.5257
29.9568
25.378
20.8113
16.2753
11.7821
7.33391
2.93857
117.196
114.982
112.269
109.275
106.193
103.047
99.8152
96.4858
93.0639
89.5558
85.965
82.2926
78.539
74.7034
70.7847
66.7809
62.6902
58.5111
54.2436
49.8892
45.4518
40.9385
36.3591
31.7263
27.0546
22.3583
17.6497
12.9356
8.21429
3.52801
117.52
115.411
112.823
109.961
107.006
103.983
100.868
97.6487
94.3287
90.9132
87.4048
83.8045
80.1126
76.3289
72.4525
68.4824
64.4171
60.2558
55.9979
51.6444
47.1977
42.6621
38.0436
33.3503
28.5906
23.7729
18.9028
13.9814
9.00149
4.0244
117.786
115.766
113.287
110.541
107.698
104.783
101.772
98.6528
95.4265
92.0973
88.6673
85.137
81.5063
77.7752
73.9428
70.0084
65.9709
61.8291
57.5826
53.2313
48.7762
44.2191
39.5633
34.8122
29.9698
25.0385
20.0183
14.9043
9.68282
4.4213
118.003
116.06
113.675
111.028
108.283
105.463
102.544
99.5141
96.3724
93.1221
89.7646
86.3
82.7278
79.0475
75.2585
71.3597
67.35
63.2283
58.9934
54.6445
50.1812
45.6035
40.9118
36.1062
31.1863
26.1498
20.9914
15.7007
10.2578
4.72652
118.181
116.303
113.998
111.437
108.775
106.038
103.2
100.248
97.1812
94.0015
90.7096
87.3051
83.7868
80.1541
76.406
72.5411
68.5582
64.4556
60.2318
55.8852
51.4141
46.8168
42.0913
37.2349
32.2436
27.1111
21.8276
16.3775
10.7359
4.95681
118.325
116.501
114.263
111.775
109.185
106.517
103.748
100.864
97.862
94.744
91.5099
88.1586
84.6887
81.099
77.3879
73.5541
69.5958
65.5109
61.2973
56.9526
52.4741
47.8585
43.102
38.1994
33.1438
27.9256
22.5309
16.9403
11.1247
5.1258
118.446
116.666
114.485
112.057
109.526
106.917
104.206
101.378
98.4312
95.3657
92.1811
88.8757
85.4478
81.8955
78.2171
74.4108
70.4742
66.405
62.2006
57.8576
53.3725
48.7407
43.9568
39.0137
33.902
28.6094
23.1188
17.4076
11.4437
5.25392
118.539
116.794
114.657
112.277
109.794
107.232
104.568
101.786
98.8834
95.8606
92.7164
89.4487
86.0553
82.5341
78.8828
75.0992
71.1808
67.1247
62.9277
58.5859
54.0949
49.4493
44.6421
39.6648
34.5061
29.1513
23.5811
17.7701
11.6844
5.33737
118.63
116.911
114.809
112.467
110.021
107.494
104.866
102.12
99.2521
96.2627
93.1503
89.9124
86.5464
83.0498
79.4203
75.6551
71.7514
67.7059
63.5151
59.1746
54.6793
50.0229
45.1977
40.1937
34.9982
29.5949
23.9623
18.0728
11.8903
5.41091
118.682
116.979
114.901
112.583
110.162
107.659
105.055
102.333
99.4881
96.521
93.4298
90.2117
86.8639
83.3838
79.7686
76.0155
72.1215
68.0829
63.8958
59.5557
55.0569
50.3927
45.5545
40.5316
35.3103
29.8729
24.1965
18.2514
12.0003
5.42759
118.775
117.075
115.01
112.71
110.304
107.816
105.227
102.519
99.6884
96.7349
93.6564
90.4503
87.1136
83.6434
80.037
76.2913
72.4031
68.3688
64.1843
59.8448
55.3444
50.6761
45.8311
40.7982
35.5632
30.1076
24.4072
18.4301
12.1331
5.46973
)
;

boundaryField
{
    inlet
    {
        type            zeroGradient;
    }
    outlet
    {
        type            fixedValue;
        value           uniform 0;
    }
    flap
    {
        type            zeroGradient;
    }
    upperWall
    {
        type            zeroGradient;
    }
    lowerWall
    {
        type            zeroGradient;
    }
    frontAndBack
    {
        type            empty;
    }
}


// ************************************************************************* //
