/*--------------------------------*- C++ -*----------------------------------*\
  =========                 |
  \\      /  F ield         | OpenFOAM: The Open Source CFD Toolbox
   \\    /   O peration     | Website:  https://openfoam.org
    \\  /    A nd           | Version:  dev
     \\/     M anipulation  |
\*---------------------------------------------------------------------------*/
FoamFile
{
    version     2.0;
    format      ascii;
    class       volVectorField;
    location    "1.3";
    object      U;
}
// * * * * * * * * * * * * * * * * * * * * * * * * * * * * * * * * * * * * * //

dimensions      [0 1 -1 0 0 0 0];

internalField   nonuniform List<vector> 
2790
(
(9.94393 0 0.0205559)
(9.87547 0 0.0296629)
(9.77458 0 0.0361149)
(9.64822 0 0.0427386)
(9.50209 0 0.0496312)
(9.33708 0 0.0567432)
(9.15235 0 0.0642043)
(8.94702 0 0.0721768)
(8.72025 0 0.0807987)
(8.47107 0 0.0901949)
(8.1983 0 0.10049)
(7.90058 0 0.111813)
(7.57642 0 0.12429)
(7.22426 0 0.138047)
(6.84255 0 0.153191)
(6.42982 0 0.169807)
(5.98481 0 0.187927)
(5.50672 0 0.207511)
(4.99538 0 0.228406)
(4.4516 0 0.250307)
(3.8775 0 0.272699)
(3.2769 0 0.294815)
(2.6557 0 0.315612)
(2.02204 0 0.333926)
(1.38469 0 0.349948)
(0.775037 0 0.372502)
(0.0754139 0 0.305655)
(-0.4583 0 -0.118183)
(-0.450733 0 -0.281179)
(-0.228273 0 -0.412506)
(9.99845 0 0.0408053)
(9.9812 0 0.0626113)
(9.9351 0 0.0795154)
(9.86293 0 0.0971647)
(9.76894 0 0.115844)
(9.6541 0 0.1354)
(9.51777 0 0.156088)
(9.35912 0 0.178261)
(9.17732 0 0.202228)
(8.97143 0 0.228264)
(8.74025 0 0.256638)
(8.48244 0 0.28761)
(8.19648 0 0.321422)
(7.88075 0 0.358277)
(7.5336 0 0.398303)
(7.15343 0 0.441509)
(6.7388 0 0.487723)
(6.28863 0 0.536507)
(5.80245 0 0.587062)
(5.28066 0 0.638112)
(4.72497 0 0.687787)
(4.13884 0 0.733519)
(3.52799 0 0.771987)
(2.90129 0 0.799184)
(2.27157 0 0.810838)
(1.66788 0 0.803354)
(1.08269 0 0.737393)
(0.643455 0 0.536185)
(0.153508 0 0.201834)
(-0.00730528 0 -0.456073)
(9.99554 0 0.043381)
(9.97531 0 0.0756567)
(9.93118 0 0.103976)
(9.8637 0 0.133278)
(9.77582 0 0.164268)
(9.66862 0 0.196932)
(9.54178 0 0.231616)
(9.39467 0 0.268823)
(9.22664 0 0.309035)
(9.0369 0 0.352704)
(8.82447 0 0.400277)
(8.58819 0 0.452199)
(8.32672 0 0.50889)
(8.03861 0 0.570714)
(7.7223 0 0.637929)
(7.37621 0 0.710609)
(6.99881 0 0.788545)
(6.58874 0 0.871105)
(6.14502 0 0.957066)
(5.66733 0 1.04441)
(5.15634 0 1.13008)
(4.6142 0 1.20979)
(4.04519 0 1.2777)
(3.4567 0 1.32619)
(2.85996 0 1.345)
(2.27554 0 1.31907)
(1.71054 0 1.2092)
(1.19903 0 0.959977)
(0.688738 0 0.55668)
(0.345987 0 -0.176444)
(9.99397 0 0.0497415)
(9.97156 0 0.0937413)
(9.92725 0 0.134446)
(9.86104 0 0.175463)
(9.77496 0 0.218101)
(9.67005 0 0.262771)
(9.54622 0 0.31)
(9.40304 0 0.360454)
(9.24004 0 0.414793)
(9.05666 0 0.473652)
(8.85219 0 0.537661)
(8.62577 0 0.607444)
(8.37642 0 0.683606)
(8.10306 0 0.766693)
(7.80452 0 0.85713)
(7.47956 0 0.955137)
(7.12693 0 1.06059)
(6.74543 0 1.17286)
(6.334 0 1.29056)
(5.89192 0 1.41128)
(5.41903 0 1.53121)
(4.91615 0 1.6448)
(4.38553 0 1.74426)
(3.83155 0 1.81895)
(3.26081 0 1.85432)
(2.6841 0 1.83008)
(2.10659 0 1.7116)
(1.53915 0 1.46067)
(0.948534 0 1.06414)
(0.504876 0 0.482131)
(9.99326 0 0.0575251)
(9.96969 0 0.111647)
(9.9253 0 0.163228)
(9.86024 0 0.214959)
(9.776 0 0.268498)
(9.67338 0 0.32462)
(9.55239 0 0.383994)
(9.4127 0 0.447373)
(9.25391 0 0.515525)
(9.07556 0 0.589196)
(8.87709 0 0.669122)
(8.65783 0 0.756039)
(8.41703 0 0.85066)
(8.15388 0 0.953642)
(7.86752 0 1.06552)
(7.55702 0 1.18663)
(7.22144 0 1.31695)
(6.85981 0 1.4559)
(6.47117 0 1.6021)
(6.05461 0 1.75302)
(5.60942 0 1.90452)
(5.13521 0 2.0504)
(4.63224 0 2.18175)
(4.1017 0 2.2863)
(3.54565 0 2.3476)
(2.96776 0 2.34437)
(2.36907 0 2.24738)
(1.75254 0 2.02588)
(1.08155 0 1.66592)
(0.531944 0 1.12698)
(9.99296 0 0.0659203)
(9.96897 0 0.129544)
(9.92492 0 0.191489)
(9.8613 0 0.253814)
(9.77926 0 0.318196)
(9.67943 0 0.385624)
(9.56179 0 0.456893)
(9.4261 0 0.532839)
(9.272 0 0.614323)
(9.0991 0 0.702197)
(8.90692 0 0.797301)
(8.69489 0 0.900466)
(8.46236 0 1.0125)
(8.20867 0 1.13416)
(7.93309 0 1.26607)
(7.63488 0 1.40865)
(7.31323 0 1.56198)
(6.96726 0 1.72561)
(6.59602 0 1.89826)
(6.1984 0 2.07748)
(5.77315 0 2.2592)
(5.31887 0 2.43712)
(4.83406 0 2.60211)
(4.3172 0 2.74152)
(3.76677 0 2.83863)
(3.18161 0 2.87253)
(2.55906 0 2.81728)
(1.89993 0 2.64553)
(1.16466 0 2.34337)
(0.545476 0 1.8616)
(9.99291 0 0.0745278)
(9.96901 0 0.147314)
(9.92572 0 0.219114)
(9.86383 0 0.291629)
(9.78437 0 0.366459)
(9.68777 0 0.444746)
(9.57405 0 0.527424)
(9.44298 0 0.615427)
(9.29428 0 0.709706)
(9.12759 0 0.811207)
(8.94249 0 0.920858)
(8.73845 0 1.03958)
(8.51491 0 1.16826)
(8.27125 0 1.30772)
(8.00678 0 1.45868)
(7.72078 0 1.62167)
(7.41245 0 1.79687)
(7.08085 0 1.98398)
(6.72484 0 2.18196)
(6.34302 0 2.38863)
(5.93355 0 2.60028)
(5.49405 0 2.81106)
(5.02149 0 3.01231)
(4.51221 0 3.19191)
(3.96184 0 3.33371)
(3.36588 0 3.41748)
(2.71886 0 3.41883)
(2.02208 0 3.31108)
(1.23332 0 3.07787)
(0.559014 0 2.65463)
(9.99301 0 0.0831135)
(9.96955 0 0.164766)
(9.9274 0 0.245941)
(9.86757 0 0.328189)
(9.79103 0 0.413045)
(9.69812 0 0.501753)
(9.58884 0 0.595367)
(9.46301 0 0.694916)
(9.32039 0 0.801432)
(9.16069 0 0.915945)
(8.98351 0 1.03947)
(8.78839 0 1.173)
(8.57479 0 1.31751)
(8.34211 0 1.47393)
(8.08969 0 1.64306)
(7.81674 0 1.82554)
(7.52237 0 2.02173)
(7.20548 0 2.23155)
(6.86466 0 2.45426)
(6.49806 0 2.68817)
(6.1032 0 2.93018)
(5.67676 0 3.17525)
(5.21434 0 3.41576)
(4.71035 0 3.64073)
(4.15809 0 3.83511)
(3.55031 0 3.97943)
(2.879 0 4.04961)
(2.14628 0 4.01728)
(1.30661 0 3.8605)
(0.578374 0 3.49547)
(9.9932 0 0.0915276)
(9.97045 0 0.181731)
(9.92978 0 0.271824)
(9.87232 0 0.363332)
(9.79904 0 0.457753)
(9.71023 0 0.556399)
(9.60588 0 0.660426)
(9.48586 0 0.77095)
(9.34998 0 0.88908)
(9.19799 0 1.01592)
(9.02955 0 1.15257)
(8.84424 0 1.30011)
(8.64157 0 1.45961)
(8.42095 0 1.63207)
(8.18171 0 1.81845)
(7.92302 0 2.01953)
(7.64387 0 2.23589)
(7.34296 0 2.46775)
(7.01857 0 2.7148)
(6.66841 0 2.97595)
(6.28934 0 3.24898)
(5.87709 0 3.53)
(5.42597 0 3.81283)
(4.92863 0 4.08815)
(4.37601 0 4.34252)
(3.75806 0 4.55745)
(3.06351 0 4.70855)
(2.29399 0 4.76405)
(1.3992 0 4.69357)
(0.608731 0 4.39016)
(9.99347 0 0.0996668)
(9.97163 0 0.198067)
(9.93271 0 0.296622)
(9.87792 0 0.396895)
(9.80822 0 0.50038)
(9.72389 0 0.608438)
(9.62493 0 0.722307)
(9.51123 0 0.843182)
(9.38268 0 0.972245)
(9.23907 0 1.11067)
(9.08013 0 1.25964)
(8.90548 0 1.42031)
(8.71468 0 1.59385)
(8.5072 0 1.78139)
(8.28235 0 1.984)
(8.03929 0 2.20268)
(7.77692 0 2.43827)
(7.49378 0 2.69137)
(7.1879 0 2.9622)
(6.85661 0 3.25045)
(6.49618 0 3.55495)
(6.10154 0 3.87328)
(5.66579 0 4.20112)
(5.17982 0 4.53137)
(4.63205 0 4.85291)
(4.00897 0 5.14894)
(3.29441 0 5.39504)
(2.48664 0 5.55533)
(1.52738 0 5.58835)
(0.657228 0 5.35758)
(9.99378 0 0.107455)
(9.97302 0 0.213656)
(9.93609 0 0.320204)
(9.88423 0 0.428731)
(9.81841 0 0.540744)
(9.73891 0 0.657648)
(9.64573 0 0.780748)
(9.53884 0 0.911307)
(9.41815 0 1.05057)
(9.28353 0 1.19979)
(9.13476 0 1.3602)
(8.97155 0 1.53306)
(8.79352 0 1.71961)
(8.60019 0 1.92112)
(8.39092 0 2.13883)
(8.16489 0 2.37393)
(7.92099 0 2.62759)
(7.65769 0 2.90083)
(7.3729 0 3.19451)
(7.06371 0 3.5092)
(6.72603 0 3.84498)
(6.3542 0 4.20116)
(5.94035 0 4.57573)
(5.47379 0 4.96453)
(4.94026 0 5.35983)
(4.3219 0 5.74808)
(3.59533 0 6.1066)
(2.75056 0 6.39666)
(1.71435 0 6.56379)
(0.735954 0 6.43139)
(9.99414 0 0.114836)
(9.97459 0 0.228403)
(9.93984 0 0.342456)
(9.89114 0 0.458703)
(9.82946 0 0.578682)
(9.75509 0 0.703832)
(9.66807 0 0.835515)
(9.56838 0 0.975051)
(9.45602 0 1.12375)
(9.33092 0 1.2829)
(9.19294 0 1.45382)
(9.04187 0 1.63784)
(8.87741 0 1.83629)
(8.69917 0 2.05056)
(8.50661 0 2.28205)
(8.29898 0 2.53219)
(8.07524 0 2.80246)
(7.83395 0 3.09436)
(7.57304 0 3.4094)
(7.28963 0 3.74911)
(6.97957 0 4.11494)
(6.63703 0 4.50816)
(6.25368 0 4.92951)
(5.81776 0 5.37854)
(5.31266 0 5.85243)
(4.71582 0 6.34353)
(3.99418 0 6.83506)
(3.12261 0 7.29079)
(1.99854 0 7.64623)
(0.868416 0 7.67008)
(9.99453 0 0.121762)
(9.97628 0 0.242227)
(9.94388 0 0.363276)
(9.89855 0 0.486693)
(9.84125 0 0.614049)
(9.77228 0 0.746818)
(9.6917 0 0.886404)
(9.59958 0 1.03418)
(9.49596 0 1.19148)
(9.38084 0 1.35968)
(9.25416 0 1.54012)
(9.11582 0 1.7342)
(8.96564 0 1.94334)
(8.80332 0 2.16904)
(8.62847 0 2.41284)
(8.44049 0 2.67641)
(8.23852 0 2.96152)
(8.02131 0 3.27011)
(7.78707 0 3.60436)
(7.5332 0 3.96674)
(7.25594 0 4.3601)
(6.94987 0 4.78771)
(6.60703 0 5.25333)
(6.21572 0 5.76096)
(5.75841 0 6.31432)
(5.20903 0 6.9152)
(4.52457 0 7.55996)
(3.65762 0 8.22834)
(2.45067 0 8.86545)
(1.10601 0 9.18404)
(9.99495 0 0.128201)
(9.97808 0 0.255064)
(9.94817 0 0.382579)
(9.90638 0 0.512598)
(9.85364 0 0.646727)
(9.79028 0 0.786467)
(9.71642 0 0.933255)
(9.63215 0 1.0885)
(9.53759 0 1.25357)
(9.43283 0 1.42988)
(9.31789 0 1.61881)
(9.19278 0 1.8218)
(9.05744 0 2.04036)
(8.91174 0 2.27604)
(8.75544 0 2.53055)
(8.58818 0 2.80571)
(8.40937 0 3.10356)
(8.21809 0 3.42644)
(8.01302 0 3.77709)
(7.79217 0 4.15879)
(7.55263 0 4.57564)
(7.29009 0 5.03279)
(6.99813 0 5.5369)
(6.66693 0 6.09657)
(6.28095 0 6.72305)
(5.81527 0 7.43082)
(5.22296 0 8.23833)
(4.43674 0 9.16535)
(3.21235 0 10.2293)
(1.57448 0 11.2148)
(9.99538 0 0.134122)
(9.97997 0 0.266862)
(9.95264 0 0.400293)
(9.91452 0 0.536324)
(9.86651 0 0.676592)
(9.80895 0 0.822619)
(9.74199 0 0.975867)
(9.66581 0 1.13776)
(9.58058 0 1.30972)
(9.48646 0 1.49315)
(9.38359 0 1.68947)
(9.27208 0 1.90015)
(9.15203 0 2.12674)
(9.02347 0 2.37087)
(8.88639 0 2.63431)
(8.74067 0 2.91902)
(8.58608 0 3.22723)
(8.42219 0 3.56156)
(8.24828 0 3.92515)
(8.06326 0 4.32189)
(7.86547 0 4.75677)
(7.65244 0 5.23634)
(7.42045 0 5.76947)
(7.1638 0 6.36851)
(6.87328 0 7.05124)
(6.53385 0 7.84456)
(6.11364 0 8.79254)
(5.56489 0 9.97586)
(4.59946 0 11.5975)
(2.63034 0 14.3835)
(0.352239 0 -0.508932)
(0.814045 0 -0.380349)
(1.23171 0 -0.297392)
(1.57666 0 -0.242059)
(1.8564 0 -0.201866)
(2.0856 0 -0.17106)
(2.27279 0 -0.146776)
(2.42052 0 -0.125201)
(2.52498 0 -0.0996787)
(2.56977 0 -0.0658276)
(2.54451 0 -0.0282013)
(2.46133 0 0.00718547)
(2.32935 0 0.0368244)
(2.15655 0 0.0600359)
(1.95127 0 0.0767024)
(1.72196 0 0.0864185)
(1.47955 0 0.0895223)
(1.23547 0 0.0869802)
(0.999912 0 0.0799399)
(0.781532 0 0.0695006)
(0.588646 0 0.0570895)
(0.429799 0 0.0435018)
(0.312943 0 0.0291177)
(0.247287 0 0.0137733)
(0.225437 0 -0.00410257)
(0.273379 0 -0.0323985)
(0.422618 0 -0.0813338)
(0.734188 0 -0.141317)
(1.11122 0 -0.260754)
(1.97242 0 -0.279286)
(0.163735 0 -0.819618)
(0.544299 0 -0.626703)
(0.831351 0 -0.490007)
(1.07078 0 -0.391867)
(1.25112 0 -0.314809)
(1.37471 0 -0.247785)
(1.43817 0 -0.183412)
(1.42827 0 -0.11297)
(1.33224 0 -0.0342609)
(1.19662 0 0.0397489)
(1.0347 0 0.102664)
(0.841209 0 0.154546)
(0.620123 0 0.195486)
(0.376247 0 0.226201)
(0.117576 0 0.246)
(-0.143612 0 0.255129)
(-0.402971 0 0.254883)
(-0.654893 0 0.245649)
(-0.89181 0 0.228139)
(-1.10633 0 0.203318)
(-1.29052 0 0.172458)
(-1.43674 0 0.136428)
(-1.53705 0 0.0955799)
(-1.58407 0 0.0492444)
(-1.57532 0 -0.00551929)
(-1.49329 0 -0.0761329)
(-1.3405 0 -0.164725)
(-1.11342 0 -0.257709)
(-0.831922 0 -0.361306)
(-0.547772 0 -0.405942)
(0.0413269 0 -1.07668)
(0.264858 0 -0.863404)
(0.369034 0 -0.675356)
(0.45969 0 -0.52231)
(0.492219 0 -0.387886)
(0.4634 0 -0.256688)
(0.369454 0 -0.126128)
(0.226905 0 -0.00200718)
(0.0822245 0 0.100984)
(-0.0888232 0 0.185652)
(-0.282473 0 0.258935)
(-0.495639 0 0.320387)
(-0.724181 0 0.368249)
(-0.96399 0 0.401313)
(-1.21041 0 0.419229)
(-1.45869 0 0.422399)
(-1.70326 0 0.411879)
(-1.93805 0 0.388188)
(-2.15693 0 0.352149)
(-2.35367 0 0.305058)
(-2.52182 0 0.248567)
(-2.65484 0 0.184335)
(-2.74609 0 0.113664)
(-2.78949 0 0.0366979)
(-2.78212 0 -0.0486941)
(-2.72209 0 -0.145972)
(-2.61167 0 -0.255258)
(-2.45555 0 -0.369894)
(-2.27837 0 -0.478865)
(-2.15005 0 -0.543176)
(-0.0497716 0 -1.13081)
(0.00158037 0 -0.900154)
(-0.0680296 0 -0.670976)
(-0.127018 0 -0.477846)
(-0.229509 0 -0.303176)
(-0.364954 0 -0.142235)
(-0.524019 0 0.00563903)
(-0.677566 0 0.130074)
(-0.852045 0 0.23862)
(-1.04341 0 0.334909)
(-1.2488 0 0.417995)
(-1.46548 0 0.48631)
(-1.69066 0 0.538225)
(-1.92155 0 0.57255)
(-2.15509 0 0.588834)
(-2.38778 0 0.587336)
(-2.61536 0 0.568887)
(-2.83311 0 0.53426)
(-3.03606 0 0.484449)
(-3.21898 0 0.4208)
(-3.37637 0 0.34494)
(-3.50258 0 0.258598)
(-3.59211 0 0.163277)
(-3.64037 0 0.0595626)
(-3.64455 0 -0.0533561)
(-3.60813 0 -0.175141)
(-3.53343 0 -0.302754)
(-3.42666 0 -0.430123)
(-3.30945 0 -0.546113)
(-3.23613 0 -0.626275)
(-0.13583 0 -1.03077)
(-0.233407 0 -0.795935)
(-0.424835 0 -0.559169)
(-0.595507 0 -0.352357)
(-0.778871 0 -0.166011)
(-0.96728 0 0.00319449)
(-1.14411 0 0.148549)
(-1.33164 0 0.27703)
(-1.52783 0 0.392494)
(-1.73151 0 0.49412)
(-1.94165 0 0.580606)
(-2.15697 0 0.650424)
(-2.37606 0 0.702048)
(-2.59734 0 0.734299)
(-2.81888 0 0.746551)
(-3.03824 0 0.738789)
(-3.25234 0 0.711488)
(-3.4575 0 0.665351)
(-3.64963 0 0.601387)
(-3.82427 0 0.521005)
(-3.97658 0 0.426007)
(-4.10165 0 0.318516)
(-4.19491 0 0.20073)
(-4.25272 0 0.074443)
(-4.27279 0 -0.0591155)
(-4.25963 0 -0.198175)
(-4.21572 0 -0.338652)
(-4.14726 0 -0.473614)
(-4.07252 0 -0.593731)
(-4.03005 0 -0.679947)
(-0.206449 0 -0.817372)
(-0.408243 0 -0.586664)
(-0.682512 0 -0.361945)
(-0.92512 0 -0.160476)
(-1.15595 0 0.0209183)
(-1.36646 0 0.176289)
(-1.57598 0 0.315837)
(-1.78539 0 0.443262)
(-1.9949 0 0.557987)
(-2.20497 0 0.658631)
(-2.41587 0 0.743664)
(-2.62766 0 0.811435)
(-2.84012 0 0.860335)
(-3.05271 0 0.889047)
(-3.2645 0 0.896706)
(-3.47393 0 0.88297)
(-3.6788 0 0.847968)
(-3.87625 0 0.792194)
(-4.06287 0 0.716536)
(-4.23474 0 0.622334)
(-4.38754 0 0.511399)
(-4.5168 0 0.385988)
(-4.61844 0 0.248698)
(-4.68928 0 0.102292)
(-4.72725 0 -0.0502981)
(-4.73633 0 -0.205362)
(-4.71969 0 -0.357642)
(-4.68333 0 -0.499745)
(-4.64219 0 -0.623647)
(-4.62093 0 -0.711446)
(-0.253728 0 -0.519008)
(-0.524324 0 -0.300796)
(-0.849325 0 -0.0963571)
(-1.12726 0 0.0776123)
(-1.38074 0 0.230246)
(-1.62167 0 0.371007)
(-1.85214 0 0.501297)
(-2.07444 0 0.621112)
(-2.29053 0 0.729409)
(-2.50213 0 0.824639)
(-2.71075 0 0.904993)
(-2.91755 0 0.968546)
(-3.12331 0 1.01343)
(-3.3284 0 1.03801)
(-3.53265 0 1.04108)
(-3.73523 0 1.02188)
(-3.9346 0 0.980119)
(-4.1285 0 0.915966)
(-4.31402 0 0.830072)
(-4.48761 0 0.723642)
(-4.6453 0 0.598485)
(-4.78286 0 0.457033)
(-4.8964 0 0.302341)
(-4.98289 0 0.138133)
(-5.04027 0 -0.031145)
(-5.07101 0 -0.200179)
(-5.07949 0 -0.36295)
(-5.07149 0 -0.511708)
(-5.05864 0 -0.638786)
(-5.05369 0 -0.726253)
(-0.273094 0 -0.141215)
(-0.578709 0 0.0474968)
(-0.924903 0 0.194962)
(-1.22583 0 0.332291)
(-1.50302 0 0.460867)
(-1.7602 0 0.582494)
(-2.00044 0 0.697133)
(-2.22704 0 0.80411)
(-2.44313 0 0.902033)
(-2.65157 0 0.988994)
(-2.85485 0 1.06278)
(-3.05505 0 1.12105)
(-3.25377 0 1.16152)
(-3.45206 0 1.18215)
(-3.65038 0 1.18125)
(-3.84846 0 1.15759)
(-4.04526 0 1.11041)
(-4.23896 0 1.03948)
(-4.427 0 0.945144)
(-4.60612 0 0.828387)
(-4.77249 0 0.690943)
(-4.92197 0 0.535352)
(-5.05061 0 0.365036)
(-5.15522 0 0.184514)
(-5.23356 0 -0.000402821)
(-5.28497 0 -0.182813)
(-5.31717 0 -0.355536)
(-5.3351 0 -0.510971)
(-5.34707 0 -0.64103)
(-5.3556 0 -0.727705)
(-0.267906 0 0.24399)
(-0.586286 0 0.38707)
(-0.945319 0 0.497798)
(-1.25842 0 0.602932)
(-1.54396 0 0.703044)
(-1.80406 0 0.80038)
(-2.04301 0 0.894997)
(-2.26508 0 0.985884)
(-2.47438 0 1.07119)
(-2.67465 0 1.1485)
(-2.86916 0 1.21506)
(-3.06067 0 1.26801)
(-3.2514 0 1.30453)
(-3.44295 0 1.32205)
(-3.63621 0 1.31835)
(-3.83135 0 1.29166)
(-4.0277 0 1.24069)
(-4.22376 0 1.16477)
(-4.41719 0 1.06383)
(-4.60482 0 0.93857)
(-4.78283 0 0.790579)
(-4.94702 0 0.622452)
(-5.09321 0 0.437922)
(-5.21779 0 0.24217)
(-5.31812 0 0.0422123)
(-5.39264 0 -0.153372)
(-5.44789 0 -0.336061)
(-5.49031 0 -0.498483)
(-5.52487 0 -0.631709)
(-5.54519 0 -0.717795)
(-0.254543 0 0.616784)
(-0.57425 0 0.736635)
(-0.933836 0 0.808808)
(-1.24277 0 0.87663)
(-1.52105 0 0.944049)
(-1.77066 0 1.01393)
(-1.99708 0 1.08632)
(-2.2055 0 1.1598)
(-2.40083 0 1.23193)
(-2.58747 0 1.29962)
(-2.76924 0 1.3595)
(-2.9494 0 1.40805)
(-3.13056 0 1.44187)
(-3.3147 0 1.45778)
(-3.50304 0 1.45297)
(-3.69605 0 1.42507)
(-3.89332 0 1.37226)
(-4.09357 0 1.29332)
(-4.29458 0 1.18773)
(-4.49322 0 1.05582)
(-4.6856 0 0.898984)
(-4.86733 0 0.719837)
(-5.0339 0 0.522402)
(-5.18105 0 0.312414)
(-5.3053 0 0.0978189)
(-5.40471 0 -0.111391)
(-5.48287 0 -0.304828)
(-5.54904 0 -0.474824)
(-5.60486 0 -0.61176)
(-5.63602 0 -0.697805)
(-0.241919 0 0.990788)
(-0.556093 0 1.08256)
(-0.902914 0 1.11193)
(-1.19232 0 1.13883)
(-1.44823 0 1.17102)
(-1.67377 0 1.21228)
(-1.87609 0 1.2623)
(-2.06137 0 1.31893)
(-2.23514 0 1.37894)
(-2.40223 0 1.43846)
(-2.56681 0 1.49332)
(-2.73235 0 1.53935)
(-2.90172 0 1.57247)
(-3.07709 0 1.58889)
(-3.25993 0 1.58517)
(-3.45088 0 1.55833)
(-3.64976 0 1.50596)
(-3.85544 0 1.42628)
(-4.06581 0 1.31825)
(-4.27773 0 1.18177)
(-4.48717 0 1.01795)
(-4.68946 0 0.829365)
(-4.87956 0 0.620206)
(-5.05235 0 0.396571)
(-5.20316 0 0.167084)
(-5.32932 0 -0.0568731)
(-5.43063 0 -0.261938)
(-5.52039 0 -0.440234)
(-5.59698 0 -0.58174)
(-5.6386 0 -0.668511)
(-0.233811 0 1.35611)
(-0.540879 0 1.41504)
(-0.864361 0 1.39423)
(-1.11921 0 1.37532)
(-1.33703 0 1.37084)
(-1.52426 0 1.38428)
(-1.6905 0 1.41383)
(-1.84279 0 1.45607)
(-1.9871 0 1.50666)
(-2.12839 0 1.56075)
(-2.27086 0 1.61337)
(-2.418 0 1.65962)
(-2.57272 0 1.69479)
(-2.73729 0 1.71444)
(-2.91328 0 1.71454)
(-3.10152 0 1.69148)
(-3.30196 0 1.64225)
(-3.51366 0 1.56447)
(-3.73463 0 1.45655)
(-3.96169 0 1.31784)
(-4.19053 0 1.14907)
(-4.41604 0 0.952645)
(-4.63244 0 0.732844)
(-4.83347 0 0.496107)
(-5.01307 0 0.251777)
(-5.16761 0 0.0125838)
(-5.29764 0 -0.206581)
(-5.41162 0 -0.394543)
(-5.50937 0 -0.541794)
(-5.56151 0 -0.630213)
(-0.23754 0 1.71967)
(-0.543113 0 1.73119)
(-0.833686 0 1.64331)
(-1.03604 0 1.5705)
(-1.19731 0 1.52934)
(-1.33071 0 1.51833)
(-1.44842 0 1.53161)
(-1.55773 0 1.56385)
(-1.66455 0 1.60929)
(-1.77358 0 1.662)
(-1.8887 0 1.71616)
(-2.01319 0 1.7662)
(-2.1498 0 1.8068)
(-2.30077 0 1.83298)
(-2.46777 0 1.84011)
(-2.65171 0 1.824)
(-2.85275 0 1.78102)
(-3.07015 0 1.70823)
(-3.30214 0 1.60339)
(-3.54549 0 1.46517)
(-3.79557 0 1.29376)
(-4.04673 0 1.09133)
(-4.29252 0 0.86217)
(-4.52568 0 0.61304)
(-4.73867 0 0.353913)
(-4.92622 0 0.0984396)
(-5.08931 0 -0.137198)
(-5.22897 0 -0.337324)
(-5.34896 0 -0.491719)
(-5.41218 0 -0.582842)
(-0.268107 0 2.10531)
(-0.589348 0 2.03433)
(-0.834537 0 1.84283)
(-0.956714 0 1.70377)
(-1.03678 0 1.63033)
(-1.09923 0 1.60249)
(-1.15605 0 1.60637)
(-1.21264 0 1.63499)
(-1.27416 0 1.68112)
(-1.34455 0 1.73763)
(-1.42697 0 1.79798)
(-1.52418 0 1.85604)
(-1.63862 0 1.90604)
(-1.77243 0 1.94251)
(-1.92729 0 1.96034)
(-2.10425 0 1.95478)
(-2.30366 0 1.92164)
(-2.52517 0 1.85743)
(-2.76742 0 1.75921)
(-3.02737 0 1.62476)
(-3.30016 0 1.45353)
(-3.57977 0 1.24735)
(-3.8593 0 1.01053)
(-4.13035 0 0.749894)
(-4.38326 0 0.475716)
(-4.61017 0 0.201945)
(-4.81041 0 -0.0535622)
(-4.97782 0 -0.26799)
(-5.12187 0 -0.430885)
(-5.19728 0 -0.525839)
(-0.378186 0 2.69465)
(-0.729448 0 2.3824)
(-0.90645 0 1.97607)
(-0.895591 0 1.74469)
(-0.858031 0 1.65594)
(-0.83267 0 1.62608)
(-0.818042 0 1.62981)
(-0.813091 0 1.66301)
(-0.822194 0 1.71706)
(-0.848009 0 1.78343)
(-0.892475 0 1.85512)
(-0.957587 0 1.92573)
(-1.04533 0 1.98921)
(-1.15761 0 2.03988)
(-1.29612 0 2.07223)
(-1.46207 0 2.08102)
(-1.65596 0 2.06146)
(-1.87801 0 2.00974)
(-2.12785 0 1.92221)
(-2.40301 0 1.79544)
(-2.69864 0 1.62801)
(-3.00868 0 1.42139)
(-3.32593 0 1.17978)
(-3.64032 0 0.90945)
(-3.9389 0 0.62072)
(-4.20978 0 0.328195)
(-4.44933 0 0.0519727)
(-4.6627 0 -0.183139)
(-4.83388 0 -0.357618)
(-4.92331 0 -0.457516)
(9.99584 0 0.139601)
(9.98195 0 0.277781)
(9.95735 0 0.416678)
(9.92309 0 0.558247)
(9.88003 0 0.704148)
(9.82855 0 0.855919)
(9.76885 0 1.01503)
(9.70116 0 1.18293)
(9.62572 0 1.36103)
(9.5428 0 1.55075)
(9.45264 0 1.75353)
(9.35547 0 1.97084)
(9.25156 0 2.20424)
(9.14112 0 2.45539)
(9.0244 0 2.7261)
(8.90159 0 3.01839)
(8.77287 0 3.33458)
(8.63835 0 3.67743)
(8.49811 0 4.05026)
(8.35214 0 4.45726)
(8.20035 0 4.90381)
(8.04265 0 5.39707)
(7.87899 0 5.94682)
(7.70966 0 6.56688)
(7.53589 0 7.27757)
(7.36269 0 8.11038)
(7.20316 0 9.11754)
(7.14596 0 10.3898)
(7.58144 0 12.0674)
(7.74969 0 14.7114)
(9.99632 0 0.144648)
(9.98404 0 0.287826)
(9.9623 0 0.431718)
(9.93207 0 0.57831)
(9.89416 0 0.729278)
(9.84899 0 0.886167)
(9.79679 0 1.05045)
(9.73786 0 1.22358)
(9.67253 0 1.40696)
(9.60114 0 1.602)
(9.52405 0 1.81013)
(9.44164 0 2.03282)
(9.35432 0 2.27159)
(9.26253 0 2.52809)
(9.16677 0 2.80412)
(9.06758 0 3.10167)
(8.96556 0 3.42304)
(8.86142 0 3.77095)
(8.75604 0 4.14866)
(8.65054 0 4.56024)
(8.54646 0 5.01087)
(8.44609 0 5.50726)
(8.35303 0 6.05837)
(8.27339 0 6.67627)
(8.21807 0 7.37748)
(8.20866 0 8.18447)
(8.28315 0 9.12604)
(8.49622 0 10.2337)
(9.112 0 11.451)
(9.56991 0 12.4962)
(9.99682 0 0.149174)
(9.98621 0 0.296833)
(9.96744 0 0.445189)
(9.94138 0 0.596246)
(9.90881 0 0.751686)
(9.87014 0 0.91305)
(9.82567 0 1.0818)
(9.77575 0 1.25937)
(9.72077 0 1.44716)
(9.66117 0 1.64653)
(9.59743 0 1.85889)
(9.53005 0 2.08566)
(9.45962 0 2.32832)
(9.38679 0 2.58844)
(9.3123 0 2.86775)
(9.23703 0 3.16813)
(9.16201 0 3.49174)
(9.0885 0 3.84108)
(9.01812 0 4.21911)
(8.95298 0 4.6294)
(8.89597 0 5.07634)
(8.85122 0 5.56533)
(8.82481 0 6.10303)
(8.82596 0 6.69743)
(8.86871 0 7.35747)
(8.97458 0 8.09116)
(9.17362 0 8.89968)
(9.47426 0 9.77123)
(10.0043 0 10.6536)
(10.642 0 11.3374)
(9.99734 0 0.153126)
(9.98844 0 0.304693)
(9.97272 0 0.456921)
(9.95095 0 0.611821)
(9.92385 0 0.771065)
(9.89184 0 0.936183)
(9.85526 0 1.10862)
(9.81452 0 1.28977)
(9.77007 0 1.48099)
(9.72244 0 1.68363)
(9.67221 0 1.89901)
(9.62001 0 2.12848)
(9.56658 0 2.37345)
(9.51276 0 2.63538)
(9.45954 0 2.91584)
(9.40808 0 3.21654)
(9.35979 0 3.53938)
(9.3164 0 3.88649)
(9.28008 0 4.26033)
(9.25369 0 4.6637)
(9.24098 0 5.09984)
(9.24703 0 5.57237)
(9.27882 0 6.08518)
(9.34588 0 6.64197)
(9.46091 0 7.2452)
(9.64008 0 7.89424)
(9.90524 0 8.58165)
(10.2638 0 9.29254)
(10.7813 0 10.0161)
(11.5184 0 10.6392)
(9.99786 0 0.156457)
(9.99072 0 0.311313)
(9.97811 0 0.466778)
(9.96071 0 0.624852)
(9.93916 0 0.787192)
(9.9139 0 0.9553)
(9.88531 0 1.13059)
(9.85384 0 1.31441)
(9.82002 0 1.50807)
(9.78442 0 1.71284)
(9.74773 0 1.92998)
(9.71068 0 2.16074)
(9.67416 0 2.4064)
(9.63918 0 2.66828)
(9.6069 0 2.94774)
(9.57873 0 3.24626)
(9.55635 0 3.56538)
(9.54183 0 3.90679)
(9.53772 0 4.27229)
(9.54724 0 4.66382)
(9.57452 0 5.08335)
(9.62484 0 5.53274)
(9.70496 0 6.01347)
(9.82345 0 6.5261)
(9.99086 0 7.06941)
(10.2196 0 7.63946)
(10.5263 0 8.22807)
(10.9212 0 8.82067)
(11.4271 0 9.40587)
(12.124 0 9.90911)
(9.99839 0 0.159123)
(9.99302 0 0.316604)
(9.98356 0 0.474629)
(9.97057 0 0.635171)
(9.95462 0 0.799857)
(9.93615 0 0.970153)
(9.91558 0 1.14742)
(9.8934 0 1.33297)
(9.87017 0 1.52802)
(9.84655 0 1.73379)
(9.82328 0 1.95141)
(9.8012 0 2.18202)
(9.7813 0 2.42677)
(9.76469 0 2.68676)
(9.75271 0 2.96316)
(9.7469 0 3.25711)
(9.74914 0 3.56979)
(9.76166 0 3.90238)
(9.78716 0 4.25602)
(9.82898 0 4.63175)
(9.89117 0 5.03039)
(9.97871 0 5.45235)
(10.0976 0 5.89731)
(10.2551 0 6.36378)
(10.4594 0 6.84853)
(10.7198 0 7.34587)
(11.0468 0 7.84678)
(11.4476 0 8.33601)
(11.9229 0 8.79748)
(12.5451 0 9.18981)
(9.99893 0 0.161083)
(9.99533 0 0.320488)
(9.98902 0 0.480357)
(9.98045 0 0.642624)
(9.97009 0 0.808873)
(9.9584 0 0.980523)
(9.94581 0 1.15888)
(9.93283 0 1.34517)
(9.92008 0 1.54057)
(9.90826 0 1.74616)
(9.89815 0 1.96298)
(9.89068 0 2.19204)
(9.88687 0 2.43429)
(9.88796 0 2.69065)
(9.89533 0 2.96203)
(9.91063 0 3.24924)
(9.93579 0 3.55309)
(9.97307 0 3.87422)
(10.0251 0 4.21316)
(10.0952 0 4.57017)
(10.187 0 4.94512)
(10.3048 0 5.3373)
(10.4537 0 5.74516)
(10.6393 0 6.16593)
(10.8676 0 6.59527)
(11.1446 0 7.02668)
(11.4759 0 7.45112)
(11.8652 0 7.85557)
(12.3063 0 8.22612)
(12.862 0 8.54247)
(9.99946 0 0.162303)
(9.99763 0 0.322896)
(9.99445 0 0.483862)
(9.99026 0 0.64708)
(9.98545 0 0.814081)
(9.98045 0 0.986225)
(9.97572 0 1.16475)
(9.97179 0 1.35081)
(9.9693 0 1.54548)
(9.96897 0 1.74974)
(9.97162 0 1.9645)
(9.97821 0 2.19063)
(9.98981 0 2.42889)
(10.0077 0 2.67999)
(10.0332 0 2.94457)
(10.0681 0 3.22315)
(10.1142 0 3.51612)
(10.1736 0 3.82369)
(10.249 0 4.14584)
(10.3431 0 4.48218)
(10.4592 0 4.83188)
(10.6009 0 5.19344)
(10.772 0 5.56456)
(10.9767 0 5.94184)
(11.2189 0 6.32055)
(11.502 0 6.69441)
(11.8287 0 7.05549)
(12.2 0 7.3939)
(12.6084 0 7.69909)
(13.1067 0 7.96009)
(9.99998 0 0.162753)
(9.99989 0 0.32377)
(9.99981 0 0.485059)
(9.99992 0 0.64843)
(10.0006 0 0.815352)
(10.0021 0 0.987117)
(10.0051 0 1.16489)
(10.0099 0 1.34973)
(10.0174 0 1.54261)
(10.0281 0 1.74441)
(10.043 0 1.95591)
(10.063 0 2.17779)
(10.0891 0 2.41067)
(10.1226 0 2.65503)
(10.165 0 2.91126)
(10.2177 0 3.17958)
(10.2825 0 3.46005)
(10.3615 0 3.75249)
(10.4568 0 4.05642)
(10.5709 0 4.371)
(10.7065 0 4.6949)
(10.8662 0 5.02616)
(11.0531 0 5.36213)
(11.2697 0 5.69923)
(11.5185 0 6.03294)
(11.8011 0 6.35769)
(12.1182 0 6.66696)
(12.4693 0 6.95334)
(12.8468 0 7.20899)
(13.2954 0 7.42741)
(10.0005 0 0.16241)
(10.0021 0 0.323065)
(10.005 0 0.483881)
(10.0094 0 0.646593)
(10.0153 0 0.812593)
(10.0232 0 0.983099)
(10.0336 0 1.15919)
(10.0469 0 1.34184)
(10.0639 0 1.53191)
(10.0852 0 1.73016)
(10.1116 0 1.93723)
(10.1441 0 2.15367)
(10.1838 0 2.3799)
(10.2318 0 2.61621)
(10.2894 0 2.86276)
(10.358 0 3.11952)
(10.4394 0 3.38625)
(10.5351 0 3.66247)
(10.6471 0 3.94739)
(10.7774 0 4.23982)
(10.9281 0 4.53816)
(11.1011 0 4.84026)
(11.2984 0 5.14336)
(11.5216 0 5.44408)
(11.7718 0 5.73833)
(12.0497 0 6.02142)
(12.3545 0 6.28813)
(12.685 0 6.53295)
(13.0343 0 6.75026)
(13.4407 0 6.93616)
(10.001 0 0.161259)
(10.0043 0 0.320748)
(10.0101 0 0.480285)
(10.0185 0 0.641513)
(10.0295 0 0.805745)
(10.0436 0 0.974116)
(10.061 0 1.14761)
(10.0824 0 1.32712)
(10.1084 0 1.51338)
(10.1396 0 1.70705)
(10.1769 0 1.90863)
(10.2211 0 2.11852)
(10.2732 0 2.33699)
(10.3342 0 2.56414)
(10.4055 0 2.79992)
(10.4882 0 3.04411)
(10.5837 0 3.29624)
(10.6936 0 3.55561)
(10.8193 0 3.82119)
(10.9623 0 4.09165)
(11.1243 0 4.36523)
(11.3064 0 4.63978)
(11.51 0 4.91266)
(11.7358 0 5.1808)
(11.9841 0 5.44069)
(12.2545 0 5.68849)
(12.5461 0 5.92015)
(12.8569 0 6.13162)
(13.1808 0 6.319)
(13.5519 0 6.47998)
(10.0015 0 0.159288)
(10.0063 0 0.3168)
(10.015 0 0.474245)
(10.0272 0 0.633165)
(10.0431 0 0.794787)
(10.063 0 0.960159)
(10.0872 0 1.13018)
(10.1162 0 1.30562)
(10.1506 0 1.48714)
(10.1911 0 1.67526)
(10.2384 0 1.87038)
(10.2932 0 2.07274)
(10.3565 0 2.28247)
(10.4293 0 2.49953)
(10.5125 0 2.72371)
(10.6073 0 2.95461)
(10.7149 0 3.19161)
(10.8364 0 3.43384)
(10.973 0 3.68019)
(11.1258 0 3.92923)
(11.2958 0 4.17922)
(11.4838 0 4.42809)
(11.6904 0 4.67346)
(11.9159 0 4.91263)
(12.1599 0 5.14271)
(12.4217 0 5.3606)
(12.6998 0 5.56325)
(12.9924 0 5.74772)
(13.2941 0 5.91136)
(13.6355 0 6.05282)
(10.0019 0 0.156495)
(10.0083 0 0.311218)
(10.0196 0 0.465757)
(10.0355 0 0.621551)
(10.0561 0 0.779734)
(10.0814 0 0.941265)
(10.1119 0 1.10695)
(10.148 0 1.27746)
(10.1903 0 1.45336)
(10.2392 0 1.63505)
(10.2956 0 1.82282)
(10.36 0 2.0168)
(10.4333 0 2.21699)
(10.5163 0 2.42323)
(10.61 0 2.63517)
(10.7151 0 2.85231)
(10.8326 0 3.07391)
(10.9635 0 3.29905)
(11.1085 0 3.52655)
(11.2684 0 3.75501)
(11.4438 0 3.98276)
(11.6351 0 4.20793)
(11.8424 0 4.42841)
(12.0655 0 4.64193)
(12.3038 0 4.84611)
(12.5563 0 5.03857)
(12.8215 0 5.21699)
(13.0974 0 5.3793)
(13.3797 0 5.5237)
(13.6962 0 5.64943)
(10.0023 0 0.152885)
(10.0101 0 0.30401)
(10.0239 0 0.454839)
(10.0433 0 0.606702)
(10.0682 0 0.760637)
(10.0986 0 0.917513)
(10.1349 0 1.07804)
(10.1776 0 1.24281)
(10.227 0 1.41227)
(10.2837 0 1.58673)
(10.3482 0 1.76638)
(10.4212 0 1.95126)
(10.5033 0 2.14125)
(10.5952 0 2.3361)
(10.6976 0 2.53539)
(10.8113 0 2.73851)
(10.9369 0 2.9447)
(11.0751 0 3.153)
(11.2263 0 3.36225)
(11.3911 0 3.57112)
(11.5697 0 3.77809)
(11.7622 0 3.98149)
(11.9684 0 4.17953)
(12.1879 0 4.37031)
(12.4197 0 4.55195)
(12.6628 0 4.72261)
(12.9157 0 4.88057)
(13.1767 0 5.02439)
(13.442 0 5.15285)
(13.7373 0 5.26558)
(10.0027 0 0.148468)
(10.0118 0 0.295197)
(10.0279 0 0.441526)
(10.0506 0 0.588673)
(10.0794 0 0.737578)
(10.1145 0 0.889021)
(10.1562 0 1.04362)
(10.2048 0 1.20188)
(10.2607 0 1.36416)
(10.3243 0 1.53069)
(10.3961 0 1.70156)
(10.4766 0 1.87673)
(10.5662 0 2.05601)
(10.6657 0 2.23908)
(10.7755 0 2.42544)
(10.8961 0 2.61448)
(11.028 0 2.80541)
(11.1717 0 2.99729)
(11.3274 0 3.18902)
(11.4952 0 3.37938)
(11.6753 0 3.56702)
(11.8675 0 3.7505)
(12.0713 0 3.9283)
(12.2861 0 4.09889)
(12.5111 0 4.26079)
(12.745 0 4.41259)
(12.9865 0 4.55306)
(13.2341 0 4.68117)
(13.4846 0 4.79614)
(13.7618 0 4.89782)
(10.0031 0 0.14326)
(10.0134 0 0.284814)
(10.0317 0 0.425874)
(10.0572 0 0.567543)
(10.0897 0 0.710669)
(10.1291 0 0.855943)
(10.1757 0 1.0039)
(10.2297 0 1.15496)
(10.2913 0 1.30939)
(10.361 0 1.46736)
(10.4391 0 1.62889)
(10.5261 0 1.79387)
(10.6222 0 1.96205)
(10.7279 0 2.13306)
(10.8437 0 2.3064)
(10.9698 0 2.48143)
(11.1065 0 2.65739)
(11.2541 0 2.83337)
(11.4126 0 3.00839)
(11.5821 0 3.18134)
(11.7623 0 3.35105)
(11.9529 0 3.51628)
(12.1535 0 3.6758)
(12.3632 0 3.82839)
(12.5811 0 3.97287)
(12.8062 0 4.10821)
(13.0372 0 4.23349)
(13.2728 0 4.34803)
(13.5102 0 4.45132)
(13.7719 0 4.54335)
(10.0034 0 0.137283)
(10.0149 0 0.272905)
(10.0351 0 0.407952)
(10.0633 0 0.543415)
(10.0991 0 0.680049)
(10.1424 0 0.81846)
(10.1933 0 0.959105)
(10.252 0 1.10232)
(10.3188 0 1.24833)
(10.3938 0 1.3972)
(10.4773 0 1.54892)
(10.5697 0 1.70332)
(10.6712 0 1.86013)
(10.7821 0 2.01895)
(10.9026 0 2.17927)
(11.0329 0 2.34047)
(11.1731 0 2.50183)
(11.3233 0 2.66253)
(11.4834 0 2.82166)
(11.6532 0 2.97827)
(11.8325 0 3.13135)
(12.0208 0 3.27987)
(12.2174 0 3.42282)
(12.4217 0 3.55924)
(12.6328 0 3.68824)
(12.8495 0 3.80902)
(13.0708 0 3.92095)
(13.2955 0 4.02356)
(13.5214 0 4.11653)
(13.7695 0 4.19993)
(10.0037 0 0.130563)
(10.0162 0 0.259522)
(10.0381 0 0.387842)