/*--------------------------------*- C++ -*----------------------------------*\
  =========                 |
  \\      /  F ield         | OpenFOAM: The Open Source CFD Toolbox
   \\    /   O peration     | Website:  https://openfoam.org
    \\  /    A nd           | Version:  dev
     \\/     M anipulation  |
\*---------------------------------------------------------------------------*/
FoamFile
{
    version     2.0;
    format      ascii;
    class       surfaceVectorField;
    location    "1.3";
    object      Uf;
}
// * * * * * * * * * * * * * * * * * * * * * * * * * * * * * * * * * * * * * //

dimensions      [0 1 -1 0 0 0 0];

internalField   nonuniform List<vector> 
5457
(
(9.92074 0 0.0251638)
(9.97119 0 0.0388153)
(9.82357 0 0.0329274)
(9.92834 0 0.0487376)
(9.70868 0 0.0394663)
(9.85484 0 0.0590182)
(9.57382 0 0.0462261)
(9.75558 0 0.070953)
(9.41887 0 0.0532297)
(9.63552 0 0.0834928)
(9.24394 0 0.0605183)
(9.49559 0 0.0965444)
(9.0487 0 0.0682382)
(9.33506 0 0.110355)
(8.83249 0 0.0765393)
(9.15307 0 0.125167)
(8.59437 0 0.0855529)
(8.94879 0 0.141181)
(8.33323 0 0.0954041)
(8.72125 0 0.158577)
(8.04778 0 0.106219)
(8.46928 0 0.177534)
(7.73659 0 0.118126)
(8.19151 0 0.198226)
(7.39813 0 0.131251)
(7.88645 0 0.220814)
(7.03081 0 0.14571)
(7.55251 0 0.245431)
(6.63311 0 0.161598)
(7.18808 0 0.272161)
(6.20365 0 0.178975)
(6.79162 0 0.301006)
(5.74138 0 0.197836)
(6.3618 0 0.331844)
(5.24577 0 0.218083)
(5.89768 0 0.364375)
(4.71714 0 0.239487)
(5.39891 0 0.398056)
(4.15695 0 0.261636)
(4.86613 0 0.432025)
(3.56821 0 0.283889)
(4.30124 0 0.465028)
(2.95587 0 0.305338)
(3.70787 0 0.495366)
(2.32717 0 0.324878)
(3.09184 0 0.520907)
(1.69157 0 0.342033)
(2.46167 0 0.539358)
(1.05876 0 0.36136)
(1.82813 0 0.549982)
(0.427821 0 0.338679)
(1.22146 0 0.561619)
(-0.155801 0 0.0912037)
(0.579053 0 0.532069)
(-0.42185 0 -0.200655)
(0.0925778 0 0.248415)
(-0.397502 0 -0.347627)
(-0.148612 0 -0.023284)
(-0.117789 0 -0.389329)
(9.99627 0 0.0518386)
(9.99699 0 0.0406442)
(9.95833 0 0.0711644)
(9.97826 0 0.0677623)
(9.89729 0 0.0884455)
(9.93314 0 0.0903748)
(9.81494 0 0.106616)
(9.86331 0 0.114282)
(9.71103 0 0.125739)
(9.77238 0 0.139484)
(9.5854 0 0.145868)
(9.66136 0 0.165876)
(9.43771 0 0.167307)
(9.52978 0 0.193835)
(9.26731 0 0.190388)
(9.3769 0 0.223812)
(9.07331 0 0.215402)
(9.20198 0 0.256207)
(8.85461 0 0.24262)
(9.00416 0 0.291389)
(8.6099 0 0.272309)
(8.78236 0 0.329724)
(8.33776 0 0.304718)
(8.53532 0 0.371575)
(8.03662 0 0.34007)
(8.2616 0 0.417281)
(7.70482 0 0.37853)
(7.95968 0 0.467132)
(7.34072 0 0.420164)
(7.62795 0 0.521326)
(6.9428 0 0.464892)
(7.26482 0 0.579907)
(6.50978 0 0.512406)
(6.8688 0 0.642685)
(6.04088 0 0.562087)
(6.43868 0 0.70912)
(5.53606 0 0.612892)
(5.97374 0 0.778187)
(4.99639 0 0.663247)
(5.474 0 0.848219)
(4.42452 0 0.710927)
(4.94066 0 0.916736)
(3.8251 0 0.752983)
(4.37652 0 0.980279)
(3.20548 0 0.785748)
(3.78659 0 1.03428)
(2.57662 0 0.80508)
(3.17899 0 1.073)
(1.95622 0 0.807051)
(2.56577 0 1.08918)
(1.38369 0 0.769979)
(1.97171 0 1.07125)
(0.9067 0 0.635586)
(1.39662 0 0.966923)
(0.415274 0 0.367012)
(0.921242 0 0.707269)
(0.0469999 0 -0.13105)
(0.421123 0 0.328899)
(0.169341 0 -0.343296)
(9.98889 0 0.0597117)
(9.99476 0 0.0460853)
(9.9539 0 0.0899858)
(9.97344 0 0.0853136)
(9.89637 0 0.118802)
(9.92922 0 0.119925)
(9.81887 0 0.148958)
(9.86237 0 0.155056)
(9.7217 0 0.180796)
(9.77539 0 0.191846)
(9.60468 0 0.214481)
(9.66933 0 0.230458)
(9.46754 0 0.250441)
(9.544 0 0.27135)
(9.30981 0 0.289169)
(9.39886 0 0.315125)
(9.13078 0 0.33113)
(9.23334 0 0.362357)
(8.92953 0 0.376775)
(9.04678 0 0.413595)
(8.70499 0 0.426548)
(8.83833 0 0.469379)
(8.45588 0 0.480883)
(8.60698 0 0.530251)
(8.18082 0 0.540171)
(8.35157 0 0.596729)
(7.8783 0 0.604723)
(8.07084 0 0.669274)
(7.54672 0 0.674703)
(7.76341 0 0.748235)
(7.18453 0 0.750042)
(7.42789 0 0.833765)
(6.79027 0 0.830318)
(7.06287 0 0.925703)
(6.36278 0 0.9146)
(6.66708 0 1.02342)
(5.90141 0 1.00126)
(6.23951 0 1.1256)
(5.40634 0 1.08776)
(5.77963 0 1.23002)
(4.87904 0 1.17041)
(5.28768 0 1.33324)
(4.32279 0 1.24415)
(4.76517 0 1.43027)
(3.74352 0 1.30223)
(4.21536 0 1.51423)
(3.15109 0 1.33571)
(3.64413 0 1.57573)
(2.56143 0 1.33188)
(3.06039 0 1.60166)
(1.99805 0 1.26348)
(2.47982 0 1.57273)
(1.46668 0 1.0831)
(1.90856 0 1.45135)
(0.944155 0 0.755919)
(1.36909 0 1.19516)
(0.468982 0 0.185738)
(0.818636 0 0.783309)
(0.425432 0 0.116044)
(9.98501 0 0.0720043)
(9.99361 0 0.0534246)
(9.94995 0 0.114337)
(9.97062 0 0.102902)
(9.89344 0 0.1552)
(9.92627 0 0.148953)
(9.81722 0 0.197037)
(9.86064 0 0.195155)
(9.72195 0 0.240703)
(9.77548 0 0.243183)
(9.60759 0 0.286668)
(9.67171 0 0.293573)
(9.47395 0 0.335529)
(9.5493 0 0.346889)
(9.32071 0 0.387948)
(9.40787 0 0.403836)
(9.14738 0 0.444574)
(9.24698 0 0.465127)
(8.9533 0 0.506039)
(9.06611 0 0.53145)
(8.73767 0 0.572969)
(8.86464 0 0.603486)
(8.49958 0 0.64598)
(8.6418 0 0.681913)
(8.23798 0 0.725646)
(8.39673 0 0.767394)
(7.95175 0 0.812452)
(8.12847 0 0.860528)
(7.63967 0 0.906719)
(7.83602 0 0.961801)
(7.30051 0 1.0085)
(7.51829 0 1.07149)
(6.93301 0 1.1174)
(7.17419 0 1.18951)
(6.53607 0 1.23242)
(6.80262 0 1.31526)
(6.10878 0 1.35164)
(6.40259 0 1.44734)
(5.65075 0 1.47196)
(5.97326 0 1.58326)
(5.16233 0 1.58869)
(5.51422 0 1.71902)
(4.64516 0 1.69513)
(5.02568 0 1.84865)
(4.10269 0 1.78205)
(4.50889 0 1.96368)
(3.54092 0 1.83684)
(3.96663 0 2.05245)
(2.96854 0 1.84205)
(3.40323 0 2.09912)
(2.39542 0 1.77013)
(2.82593 0 2.08288)
(1.8235 0 1.58463)
(2.23783 0 1.97275)
(1.24729 0 1.26003)
(1.64584 0 1.73319)
(0.660397 0 0.769658)
(1.01504 0 1.34456)
(0.51841 0 0.762862)
(9.98323 0 0.0849095)
(9.99311 0 0.0616378)
(9.94776 0 0.137746)
(9.96933 0 0.120692)
(9.89221 0 0.189402)
(9.92511 0 0.177489)
(9.81745 0 0.242048)
(9.86077 0 0.234489)
(9.72413 0 0.296894)
(9.77763 0 0.293466)
(9.61232 0 0.354662)
(9.6764 0 0.355279)
(9.48186 0 0.416062)
(9.55709 0 0.420631)
(9.33247 0 0.481857)
(9.4194 0 0.490318)
(9.16376 0 0.552801)
(9.26295 0 0.565159)
(8.9752 0 0.629636)
(9.08733 0 0.645953)
(8.76617 0 0.7131)
(8.89201 0 0.733493)
(8.53594 0 0.803915)
(8.67636 0 0.828562)
(8.28375 0 0.902766)
(8.4397 0 0.931924)
(8.00874 0 1.01025)
(8.18128 0 1.04428)
(7.71003 0 1.1268)
(7.90031 0 1.16622)
(7.38667 0 1.25257)
(7.59595 0 1.29812)
(7.03773 0 1.38725)
(7.26733 0 1.44)
(6.66222 0 1.52987)
(6.91354 0 1.59134)
(6.25922 0 1.67846)
(6.53359 0 1.7508)
(5.82795 0 1.82967)
(6.12651 0 1.91586)
(5.36789 0 1.97833)
(5.69128 0 2.0824)
(4.87906 0 2.11686)
(5.22704 0 2.2441)
(4.36229 0 2.23465)
(4.73315 0 2.39186)
(3.8194 0 2.31732)
(4.20945 0 2.51313)
(3.2531 0 2.34596)
(3.65621 0 2.5913)
(2.66611 0 2.29529)
(3.07469 0 2.60539)
(2.05703 0 2.1353)
(2.46406 0 2.52803)
(1.41819 0 1.84375)
(1.82623 0 2.32969)
(0.736627 0 1.39323)
(1.1231 0 1.99634)
(0.53871 0 1.48434)
(9.9825 0 0.0981126)
(9.99294 0 0.0702098)
(9.94698 0 0.160887)
(9.96899 0 0.138504)
(9.89259 0 0.223024)
(9.92532 0 0.205429)
(9.8197 0 0.28639)
(9.86256 0 0.272841)
(9.72881 0 0.352313)
(9.78182 0 0.342442)
(9.62003 0 0.421684)
(9.6836 0 0.415308)
(9.49325 0 0.49532)
(9.56792 0 0.492293)
(9.34822 0 0.574068)
(9.43454 0 0.57428)
(9.18458 0 0.658785)
(9.28314 0 0.662179)
(9.0019 0 0.750317)
(9.11335 0 0.756889)
(8.79963 0 0.8495)
(8.92471 0 0.859295)
(8.57716 0 0.957154)
(8.71667 0 0.970269)
(8.33385 0 1.07406)
(8.48864 0 1.09066)
(8.069 0 1.2009)
(8.23996 0 1.22125)
(7.78186 0 1.33821)
(7.96994 0 1.36272)
(7.47166 0 1.48623)
(7.67783 0 1.51554)
(7.13757 0 1.64477)
(7.36284 0 1.67982)
(6.77868 0 1.81296)
(7.02405 0 1.8552)
(6.39396 0 1.98894)
(6.66043 0 2.04049)
(5.98226 0 2.16942)
(6.27071 0 2.23337)
(5.54227 0 2.34922)
(5.85335 0 2.42993)
(5.07258 0 2.5206)
(5.40646 0 2.62407)
(4.57172 0 2.67265)
(4.92778 0 2.80684)
(4.03821 0 2.79065)
(4.41471 0 2.96586)
(3.4705 0 2.85578)
(3.8643 0 3.0847)
(2.86671 0 2.84458)
(3.27375 0 3.14284)
(2.22263 0 2.73038)
(2.63896 0 3.11521)
(1.53155 0 2.49264)
(1.96101 0 2.97496)
(0.787955 0 2.09961)
(1.19899 0 2.70745)
(0.552245 0 2.2561)
(9.98236 0 0.111356)
(9.99296 0 0.0788502)
(9.94724 0 0.183643)
(9.96928 0 0.156116)
(9.89426 0 0.255805)
(9.92656 0 0.232646)
(9.82357 0 0.329491)
(9.8657 0 0.310031)
(9.73555 0 0.40607)
(9.7877 0 0.389872)
(9.63033 0 0.486579)
(9.69295 0 0.473379)
(9.50782 0 0.571951)
(9.58144 0 0.561541)
(9.3678 0 0.66313)
(9.45299 0 0.655336)
(9.20998 0 0.761063)
(9.30734 0 0.755756)
(9.03394 0 0.866688)
(9.14414 0 0.863788)
(8.83921 0 0.980928)
(8.963 0 0.980403)
(8.62526 0 1.10469)
(8.76342 0 1.10656)
(8.39147 0 1.23882)
(8.54485 0 1.24318)
(8.1372 0 1.3841)
(8.30668 0 1.39115)
(7.86175 0 1.54115)
(8.04823 0 1.55122)
(7.56436 0 1.71031)
(7.76876 0 1.72397)
(7.24417 0 1.89154)
(7.46741 0 1.90967)
(6.90015 0 2.08415)
(7.14316 0 2.10813)
(6.53103 0 2.28653)
(6.79475 0 2.31843)
(6.1352 0 2.49572)
(6.42054 0 2.53864)
(5.71056 0 2.70693)
(6.01838 0 2.76534)
(5.25444 0 2.91289)
(5.5854 0 2.99306)
(4.76346 0 3.10318)
(5.11791 0 3.21364)
(4.23355 0 3.26366)
(4.61128 0 3.41553)
(3.66005 0 3.3761)
(4.05997 0 3.58313)
(3.03794 0 3.41817)
(3.4581 0 3.69661)
(2.36161 0 3.36431)
(2.79893 0 3.7318)
(1.62655 0 3.19308)
(2.08418 0 3.6613)
(0.833222 0 2.86372)
(1.26996 0 3.46611)
(0.568694 0 3.07219)
(9.98258 0 0.124427)
(9.9931 0 0.0873793)
(9.94826 0 0.205839)
(9.97 0 0.173333)
(9.89696 0 0.287557)
(9.92859 0 0.258998)
(9.82881 0 0.371124)
(9.86995 0 0.345886)
(9.74408 0 0.457929)
(9.79503 0 0.435529)
(9.6429 0 0.549119)
(9.70418 0 0.529217)
(9.52523 0 0.645736)
(9.59736 0 0.628054)
(9.39088 0 0.74881)
(9.47443 0 0.73311)
(9.2396 0 0.859373)
(9.33519 0 0.845455)
(9.07102 0 0.978444)
(9.17934 0 0.966157)
(8.88472 0 1.10703)
(9.00653 0 1.09627)
(8.6802 0 1.24612)
(8.81631 0 1.23684)
(8.45689 0 1.39666)
(8.60818 0 1.38887)
(8.21415 0 1.5595)
(8.38153 0 1.55334)
(7.95128 0 1.73539)
(8.1357 0 1.73112)
(7.66743 0 1.9248)
(7.86988 0 1.92292)
(7.36161 0 2.12789)
(7.58312 0 2.12921)
(7.03258 0 2.34424)
(7.27422 0 2.35004)
(6.67872 0 2.57262)
(6.94161 0 2.58489)
(6.29787 0 2.81062)
(6.58324 0 2.83236)
(5.88712 0 3.05418)
(6.19627 0 3.08977)
(5.44262 0 3.29695)
(5.77693 0 3.35265)
(4.95932 0 3.52959)
(5.32015 0 3.61408)
(4.43098 0 3.73908)
(4.81949 0 3.86386)
(3.85038 0 3.90813)
(4.26705 0 4.08774)
(3.20993 0 4.01494)
(3.65419 0 4.26669)
(2.50282 0 4.03325)
(2.97126 0 4.37645)
(1.72566 0 3.93796)
(2.22013 0 4.38695)
(0.88284 0 3.67581)
(1.3529 0 4.2721)
(0.593552 0 3.93687)
(9.98306 0 0.137168)
(9.99333 0 0.0956768)
(9.94984 0 0.227316)
(9.97104 0 0.189993)
(9.90051 0 0.318125)
(9.93125 0 0.28434)
(9.83521 0 0.411106)
(9.87512 0 0.380243)
(9.75416 0 0.507665)
(9.80363 0 0.479204)
(9.65749 0 0.609034)
(9.71706 0 0.582567)
(9.54518 0 0.716348)
(9.6154 0 0.691532)
(9.41711 0 0.83072)
(9.49855 0 0.80725)
(9.27306 0 0.953258)
(9.36633 0 0.930869)
(9.11271 0 1.08506)
(9.21853 0 1.06353)
(8.93569 0 1.22722)
(9.05484 0 1.20636)
(8.74155 0 1.38081)
(8.87486 0 1.3605)
(8.52975 0 1.54687)
(8.67812 0 1.52705)
(8.29966 0 1.72637)
(8.46407 0 1.70708)
(8.05052 0 1.92019)
(8.23203 0 1.90161)
(7.78144 0 2.129)
(7.98116 0 2.11152)
(7.49125 0 2.3532)
(7.71039 0 2.33752)
(7.17845 0 2.59275)
(7.41837 0 2.58001)
(6.84106 0 2.84693)
(7.10324 0 2.83895)
(6.47634 0 3.1141)
(6.76251 0 3.11363)
(6.08061 0 3.39117)
(6.39276 0 3.40234)
(5.64887 0 3.67311)
(5.98932 0 3.70192)
(5.17454 0 3.95214)
(5.54588 0 4.00708)
(4.64932 0 4.21686)
(5.05423 0 4.30956)
(4.06338 0 4.45127)
(4.50403 0 4.59699)
(3.40629 0 4.6339)
(3.88351 0 4.85159)
(2.66881 0 4.73663)
(3.17896 0 5.04879)
(1.84666 0 4.72839)
(2.39031 0 5.1546)
(0.946218 0 4.54005)
(1.46329 0 5.1332)
(0.632979 0 4.86364)
(9.98371 0 0.149455)
(9.99362 0 0.103656)
(9.95186 0 0.247933)
(9.97233 0 0.205965)
(9.90476 0 0.347358)
(9.9344 0 0.308533)
(9.84261 0 0.449256)
(9.88107 0 0.412946)
(9.76559 0 0.555055)
(9.81331 0 0.520705)
(9.67385 0 0.666053)
(9.7314 0 0.633198)
(9.5674 0 0.783467)
(9.63533 0 0.751698)
(9.44617 0 0.908485)
(9.52504 0 0.877435)
(9.30997 0 1.04229)
(9.40042 0 1.01162)
(9.15856 0 1.18605)
(9.2613 0 1.15547)
(8.99163 0 1.34094)
(9.10744 0 1.31019)
(8.80877 0 1.50812)
(8.93851 0 1.47698)
(8.60948 0 1.68874)
(8.7541 0 1.65706)
(8.39316 0 1.88391)
(8.55369 0 1.85162)
(8.15906 0 2.09465)
(8.33664 0 2.06182)
(7.90619 0 2.32189)
(8.10209 0 2.28875)
(7.63329 0 2.56633)
(7.84895 0 2.53342)
(7.33865 0 2.8284)
(7.57573 0 2.79663)
(7.01996 0 3.10805)
(7.2804 0 3.07892)
(6.67401 0 3.40452)
(6.96016 0 3.38043)
(6.29642 0 3.71602)
(6.61111 0 3.7006)
(5.88117 0 4.03916)
(6.22787 0 4.03785)
(5.42022 0 4.36822)
(5.80307 0 4.38899)
(4.90318 0 4.69406)
(5.32681 0 4.74832)
(4.31721 0 5.00269)
(4.78615 0 5.10625)
(3.64791 0 5.27346)
(4.16544 0 5.44736)
(2.8813 0 5.47614)
(3.44487 0 5.74768)
(2.0087 0 5.57204)
(2.6186 0 5.96938)
(1.03505 0 5.47159)
(1.62087 0 6.06431)
(0.696591 0 5.8774)
(9.98449 0 0.16119)
(9.99396 0 0.111253)
(9.95423 0 0.267567)
(9.9738 0 0.221142)
(9.90961 0 0.375116)
(9.93796 0 0.331454)
(9.85087 0 0.485407)
(9.88768 0 0.443853)
(9.7782 0 0.599895)
(9.82394 0 0.55986)
(9.69177 0 0.719933)
(9.747 0 0.680899)
(9.59162 0 0.846807)
(9.6569 0 0.808306)
(9.47772 0 0.981772)
(9.55361 0 0.943373)
(9.34995 0 1.12607)
(9.43709 0 1.08738)
(9.20813 0 1.28095)
(9.30722 0 1.24159)
(9.05202 0 1.44766)
(9.16385 0 1.40728)
(8.88127 0 1.62745)
(9.00671 0 1.58575)
(8.69545 0 1.82157)
(8.83546 0 1.77829)
(8.49401 0 2.03127)
(8.64968 0 1.98622)
(8.27622 0 2.25778)
(8.44876 0 2.21086)
(8.04111 0 2.50228)
(8.23193 0 2.45354)
(7.78737 0 2.76584)
(7.99812 0 2.71556)
(7.5132 0 3.04943)
(7.74582 0 2.9982)
(7.21609 0 3.35374)
(7.47297 0 3.30265)
(6.89255 0 3.6791)
(7.17667 0 3.62994)
(6.53772 0 4.0252)
(6.8528 0 3.98087)
(6.14481 0 4.39068)
(6.49561 0 4.3557)
(5.70454 0 4.77246)
(6.09702 0 4.75377)
(5.20442 0 5.16454)
(5.64577 0 5.17271)
(4.62821 0 5.55627)
(5.12646 0 5.60705)
(3.95592 0 5.92948)
(4.51886 0 6.04578)
(3.16538 0 6.25336)
(3.79476 0 6.46838)
(2.23728 0 6.48122)
(2.93659 0 6.83597)
(1.16735 0 6.4968)
(1.85644 0 7.08748)
(0.802185 0 7.02075)
(9.98537 0 0.172298)
(9.99434 0 0.118415)
(9.95688 0 0.286111)
(9.97543 0 0.235434)
(9.91495 0 0.401274)
(9.94186 0 0.352994)
(9.85986 0 0.519409)
(9.89485 0 0.472837)
(9.79183 0 0.642005)
(9.83536 0 0.596515)
(9.71104 0 0.77046)
(9.76369 0 0.725488)
(9.61757 0 0.906117)
(9.67988 0 0.861138)
(9.51144 0 1.05029)
(9.58398 0 1.00481)
(9.39261 0 1.20427)
(9.47599 0 1.15783)
(9.26096 0 1.36938)
(9.35588 0 1.32153)
(9.11631 0 1.54693)
(9.22355 0 1.49725)
(8.95841 0 1.73825)
(9.07885 0 1.68633)
(8.78693 0 1.94471)
(8.92152 0 1.89016)
(8.6014 0 2.16769)
(8.75124 0 2.11019)
(8.40116 0 2.40862)
(8.56754 0 2.34789)
(8.18534 0 2.66894)
(8.36973 0 2.60481)
(7.95269 0 2.95016)
(8.15688 0 2.88257)
(7.70145 0 3.25376)
(7.92763 0 3.18292)
(7.42914 0 3.58128)
(7.68006 0 3.50769)
(7.13227 0 3.93421)
(7.41141 0 3.8589)
(6.80583 0 4.3139)
(7.11776 0 4.23871)
(6.44276 0 4.72135)
(6.79345 0 4.64941)
(6.03303 0 5.15671)
(6.43035 0 5.09325)
(5.56252 0 5.61832)
(6.01674 0 5.57198)
(5.01157 0 6.10092)
(5.53554 0 6.08589)
(4.35344 0 6.59223)
(4.96242 0 6.6316)
(3.55348 0 7.06565)
(4.25938 0 7.19769)
(2.57155 0 7.47064)
(3.39011 0 7.75281)
(1.37592 0 7.6583)
(2.22461 0 8.23087)
(0.987214 0 8.36838)
(9.98634 0 0.182715)
(9.99474 0 0.125105)
(9.95975 0 0.303475)
(9.97718 0 0.24877)
(9.92069 0 0.425722)
(9.94603 0 0.373059)
(9.86947 0 0.551132)
(9.90246 0 0.499786)
(9.80633 0 0.681227)
(9.84744 0 0.630539)
(9.73146 0 0.817445)
(9.78128 0 0.766805)
(9.64501 0 0.961173)
(9.70406 0 0.910006)
(9.54703 0 1.11377)
(9.61586 0 1.06153)
(9.43756 0 1.27658)
(9.51677 0 1.22274)
(9.31656 0 1.45098)
(9.40683 0 1.39501)
(9.18394 0 1.63832)
(9.28603 0 1.57973)
(9.03955 0 1.84002)
(9.1543 0 1.7783)
(8.88317 0 2.05754)
(9.01154 0 1.99218)
(8.71446 0 2.2924)
(8.85753 0 2.22292)
(8.53291 0 2.5462)
(8.69196 0 2.47213)
(8.33779 0 2.82067)
(8.51434 0 2.74157)
(8.12805 0 3.11766)
(8.32394 0 3.03314)
(7.90216 0 3.43924)
(8.1197 0 3.34899)
(7.65792 0 3.78772)
(7.90005 0 3.6916)
(7.39215 0 4.16577)
(7.66268 0 4.06386)
(7.10025 0 4.57646)
(7.40429 0 4.46927)
(6.77553 0 5.0233)
(7.11998 0 4.9121)
(6.4082 0 5.51018)
(6.80258 0 5.3976)
(5.98375 0 6.04095)
(6.44132 0 5.93216)
(5.48046 0 6.61835)
(6.01968 0 6.52331)
(4.86547 0 7.24143)
(5.51215 0 7.17903)
(4.0889 0 7.89814)
(4.87377 0 7.90566)
(3.0764 0 8.5507)
(4.04718 0 8.6982)
(1.72918 0 9.02664)
(2.83151 0 9.51922)
(1.34025 0 10.062)
(9.98737 0 0.19239)
(9.99516 0 0.13129)
(9.9628 0 0.319584)
(9.97903 0 0.261092)
(9.92676 0 0.448365)
(9.95041 0 0.391572)
(9.87959 0 0.580464)
(9.91045 0 0.524608)
(9.82154 0 0.717432)
(9.86007 0 0.661819)
(9.75284 0 0.860738)
(9.79961 0 0.804719)
(9.67367 0 1.0118)
(9.72921 0 0.954755)
(9.58416 0 1.17202)
(9.64898 0 1.11335)
(9.4844 0 1.34278)
(9.55908 0 1.28189)
(9.37445 0 1.52547)
(9.45964 0 1.46178)
(9.25432 0 1.72152)
(9.35074 0 1.65444)
(9.12398 0 1.93238)
(9.23243 0 1.86132)
(8.98333 0 2.15961)
(9.10473 0 2.08394)
(8.83221 0 2.40482)
(8.9676 0 2.3239)
(8.67029 0 2.66977)
(8.82091 0 2.58294)
(8.4971 0 2.95642)
(8.66443 0 2.86295)
(8.31189 0 3.26693)
(8.49772 0 3.16609)
(8.11352 0 3.60386)
(8.32014 0 3.49484)
(7.90032 0 3.97022)
(8.13065 0 3.85214)
(7.66983 0 4.36971)
(7.92771 0 4.24162)
(7.41842 0 4.80695)
(7.70905 0 4.66786)
(7.14068 0 5.28786)
(7.47127 0 5.13678)
(6.82847 0 5.82008)
(7.20929 0 5.65628)
(6.46917 0 6.41355)
(6.91536 0 6.23706)
(6.04257 0 7.08116)
(6.57712 0 6.89407)
(5.51483 0 7.8394)
(6.17456 0 7.64879)
(4.82596 0 8.70738)
(5.6683 0 8.53368)
(3.86176 0 9.70367)
(5.00081 0 9.59849)
(2.38998 0 10.7279)
(3.90591 0 10.9267)
(2.10241 0 12.4028)
(9.98845 0 0.201285)
(9.99561 0 0.136948)
(9.96599 0 0.334375)
(9.98094 0 0.272354)
(9.9331 0 0.469122)
(9.95495 0 0.40847)
(9.89011 0 0.607296)
(9.91873 0 0.547226)
(9.83732 0 0.750478)
(9.87314 0 0.690266)
(9.77498 0 0.900159)
(9.81856 0 0.839123)
(9.70331 0 1.05778)
(9.75517 0 0.995263)
(9.62251 0 1.22477)
(9.68315 0 1.16012)
(9.53274 0 1.40253)
(9.60273 0 1.33512)
(9.43415 0 1.59248)
(9.5141 0 1.52165)
(9.32686 0 1.79607)
(9.41746 0 1.72117)
(9.21097 0 2.0148)
(9.313 0 1.93514)
(9.08655 0 2.25026)
(9.20086 0 2.16511)
(8.9536 0 2.50416)
(9.08119 0 2.41274)
(8.81206 0 2.77836)
(8.95409 0 2.6798)
(8.66175 0 3.07497)
(8.81962 0 2.96831)
(8.50232 0 3.39639)
(8.67772 0 3.28054)
(8.33319 0 3.74553)
(8.52824 0 3.61918)
(8.15344 0 4.12589)
(8.37085 0 3.98749)
(7.96164 0 4.54193)
(8.20498 0 4.38953)
(7.75569 0 4.99942)
(8.02976 0 4.83053)
(7.53239 0 5.50609)
(7.84388 0 5.31742)
(7.28688 0 6.07257)
(7.64541 0 5.8597)
(7.01148 0 6.71395)
(7.4316 0 6.47076)
(6.69343 0 7.45264)
(7.19836 0 7.17049)
(6.30988 0 8.32422)
(6.94048 0 7.99021)
(5.81515 0 9.39127)
(6.64817 0 8.9847)
(5.0997 0 10.7964)
(6.34057 0 10.2665)
(3.80694 0 13.0071)
(6.06244 0 12.163)
(5.14192 0 16.1315)
(0.595336 0 -0.445408)
(0.257987 0 -0.583095)
(1.05021 0 -0.339366)
(0.679172 0 -0.435003)
(1.41541 0 -0.270056)
(1.03153 0 -0.340987)
(1.71781 0 -0.222203)
(1.32372 0 -0.275688)
(1.96981 0 -0.186647)
(1.55376 0 -0.224318)
(2.17762 0 -0.159063)
(1.73015 0 -0.180609)
(2.34461 0 -0.136117)
(1.85548 0 -0.141705)
(2.47001 0 -0.112592)
(1.92439 0 -0.103902)
(2.54436 0 -0.0829554)
(1.92861 0 -0.0601482)
(2.55459 0 -0.0472393)
(1.8832 0 -0.00807727)
(2.50097 0 -0.0107193)
(1.7896 0 0.0413543)
(2.39435 0 0.0218278)
(1.65127 0 0.0802826)
(2.24353 0 0.0482915)
(1.47474 0 0.110884)
(2.05624 0 0.0682696)
(1.2664 0 0.134449)
(1.84095 0 0.0815024)
(1.03442 0 0.150894)
(1.60726 0 0.0879518)
(0.789175 0 0.159926)
(1.36557 0 0.0882664)
(0.538291 0 0.161492)
(1.12641 0 0.0835021)
(0.290287 0 0.156022)
(0.899673 0 0.0747827)
(0.054051 0 0.144432)
(0.694506 0 0.0633692)
(-0.162397 0 0.127602)
(0.518391 0 0.0503768)
(-0.350936 0 0.106947)
(0.378024 0 0.0363957)
(-0.50347 0 0.083225)
(0.27995 0 0.0215372)
(-0.612052 0 0.0567757)
(0.231376 0 0.00494216)
(-0.66839 0 0.0274559)
(0.241326 0 -0.0180815)
(-0.674939 0 -0.00549125)
(0.335477 0 -0.0565738)
(-0.609955 0 -0.0507336)
(0.557449 0 -0.110967)
(-0.458941 0 -0.116784)
(0.910393 0 -0.200322)
(-0.189618 0 -0.181307)
(1.4938 0 -0.269909)
(0.139649 0 -0.292619)
(0.712327 0 -0.317974)
(0.373041 0 -0.724313)
(0.102531 0 -0.948466)
(0.700597 0 -0.559172)
(0.404579 0 -0.748247)
(0.962471 0 -0.441524)
(0.600193 0 -0.585504)
(1.16443 0 -0.353798)
(0.765235 0 -0.459811)
(1.31277 0 -0.281697)
(0.871669 0 -0.356359)
(1.40408 0 -0.215983)
(0.919055 0 -0.259968)
(1.42913 0 -0.148612)
(0.903811 0 -0.16296)
(1.37706 0 -0.0740856)
(0.827585 0 -0.0607566)
(1.26221 0 0.00230181)
(0.707233 0 0.0327606)
(1.1121 0 0.0708304)
(0.553899 0 0.110492)
(0.935073 0 0.128295)
(0.376112 0 0.177878)
(0.729439 0 0.174771)
(0.172785 0 0.235124)
(0.498574 0 0.21066)
(-0.0520291 0 0.280619)
(0.249861 0 0.235982)
(-0.293872 0 0.312987)
(-0.00840065 0 0.25051)
(-0.546415 0 0.331908)
(-0.26821 0 0.255008)
(-0.801152 0 0.337724)
(-0.523464 0 0.250321)
(-1.05312 0 0.332047)
(-0.767605 0 0.236999)
(-1.29647 0 0.315298)
(-0.993216 0 0.215877)
(-1.52437 0 0.288143)
(-1.19282 0 0.188072)
(-1.73 0 0.251745)
(-1.35859 0 0.154659)
(-1.90617 0 0.207611)
(-1.48323 0 0.116248)
(-2.04579 0 0.157122)
(-1.56003 0 0.072689)
(-2.14157 0 0.101237)
(-1.58261 0 0.0221898)
(-2.18678 0 0.0402175)
(-1.53923 0 -0.0404042)
(-2.17872 0 -0.0294276)
(-1.42574 0 -0.1199)
(-2.10769 0 -0.111889)
(-1.25177 0 -0.210662)
(-1.97609 0 -0.208314)
(-0.993593 0 -0.308889)
(-1.78449 0 -0.313932)
(-0.728636 0 -0.383357)
(-1.55515 0 -0.425512)
(-1.34891 0 -0.47244)
(0.170682 0 -0.971316)
(-0.00422234 0 -1.11564)
(0.320903 0 -0.770504)
(0.133219 0 -0.891904)
(0.42575 0 -0.599748)
(0.150502 0 -0.683401)
(0.481147 0 -0.455902)
(0.166336 0 -0.510315)
(0.47829 0 -0.323071)
(0.131355 0 -0.353816)
(0.414449 0 -0.192188)
(0.0492233 0 -0.204484)
(0.296819 0 -0.0648093)
(-0.0772828 0 -0.0631412)
(0.153316 0 0.048873)
(-0.22533 0 0.0581423)
(-0.00642904 0 0.142812)
(-0.38491 0 0.16199)
(-0.188129 0 0.221856)
(-0.566115 0 0.254011)
(-0.390662 0 0.289294)
(-0.765635 0 0.334074)
(-0.61044 0 0.344032)
(-0.980557 0 0.400616)
(-0.843404 0 0.384583)
(-1.20742 0 0.451897)
(-1.08543 0 0.410164)
(-1.44277 0 0.486725)
(-1.33188 0 0.420795)
(-1.68275 0 0.504644)
(-1.57785 0 0.417202)
(-1.92323 0 0.506053)
(-1.81718 0 0.400175)
(-2.15931 0 0.491959)
(-2.04374 0 0.370384)
(-2.38558 0 0.463102)
(-2.2514 0 0.328885)
(-2.59649 0 0.420425)
(-2.43393 0 0.27715)
(-2.78632 0 0.365268)
(-2.58487 0 0.216834)
(-2.9491 0 0.299271)
(-2.69795 0 0.149421)
(-3.07871 0 0.224164)
(-2.76747 0 0.0756406)
(-3.1691 0 0.141486)
(-2.78735 0 -0.00548788)
(-3.21493 0 0.0514515)
(-2.75496 0 -0.0967518)
(-3.21333 0 -0.0473022)
(-2.67217 0 -0.199962)
(-3.16511 0 -0.156499)
(-2.54641 0 -0.311891)
(-3.07255 0 -0.274481)
(-2.38589 0 -0.423728)
(-2.9411 0 -0.396391)
(-2.21921 0 -0.510636)
(-2.79391 0 -0.509115)
(-2.69309 0 -0.581537)
(-0.0134839 0 -1.01686)
(-0.0928005 0 -1.10243)
(-0.0344123 0 -0.786935)
(-0.115913 0 -0.87189)
(-0.0860155 0 -0.575565)
(-0.246432 0 -0.635219)
(-0.173257 0 -0.391555)
(-0.361262 0 -0.430779)
(-0.294461 0 -0.223667)
(-0.50419 0 -0.245928)
(-0.443845 0 -0.0691815)
(-0.666117 0 -0.0746526)
(-0.599622 0 0.0671129)
(-0.834065 0 0.0690486)
(-0.765845 0 0.183698)
(-1.00461 0 0.195865)
(-0.948706 0 0.286189)
(-1.18994 0 0.30992)
(-1.14685 0 0.375955)
(-1.38746 0 0.410519)
(-1.35754 0 0.451744)
(-1.59522 0 0.496558)
(-1.57794 0 0.511958)
(-1.81122 0 0.566581)
(-1.80533 0 0.555183)
(-2.03336 0 0.619078)
(-2.03686 0 0.580595)
(-2.25944 0 0.652928)
(-2.26938 0 0.588094)
(-2.48698 0 0.667612)
(-2.49911 0 0.578222)
(-2.71301 0 0.663268)
(-2.72147 0 0.551781)
(-2.93385 0 0.640535)
(-2.93159 0 0.509653)
(-3.1453 0 0.600184)
(-3.12441 0 0.453005)
(-3.34285 0 0.54325)
(-3.29464 0 0.383323)
(-3.52162 0 0.471138)
(-3.43679 0 0.302285)
(-3.67648 0 0.385592)
(-3.54544 0 0.211507)
(-3.80212 0 0.288587)
(-3.61555 0 0.11204)
(-3.89351 0 0.18207)
(-3.64341 0 0.00377794)
(-3.94654 0 0.0672009)
(-3.62827 0 -0.113521)
(-3.95867 0 -0.0556592)
(-3.57415 0 -0.238185)
(-3.93388 0 -0.185662)
(-3.48858 0 -0.365677)
(-3.87457 0 -0.319503)
(-3.38282 0 -0.487425)
(-3.78696 0 -0.450715)
(-3.26557 0 -0.585715)
(-3.69098 0 -0.567927)
(-3.63309 0 -0.652182)
(-0.158487 0 -0.914755)
(-0.171139 0 -0.947204)
(-0.327858 0 -0.678967)
(-0.320825 0 -0.709919)
(-0.500729 0 -0.456999)
(-0.553673 0 -0.473806)
(-0.682321 0 -0.260298)
(-0.760313 0 -0.265228)
(-0.871043 0 -0.0824193)
(-0.967411 0 -0.0779402)
(-1.05292 0 0.075003)
(-1.16687 0 0.0834198)
(-1.23753 0 0.212022)
(-1.36005 0 0.225705)
(-1.42983 0 0.334072)
(-1.55852 0 0.355192)
(-1.62977 0 0.4427)
(-1.76137 0 0.47167)
(-1.8366 0 0.536846)
(-1.96824 0 0.573885)
(-2.04914 0 0.615098)
(-2.17876 0 0.660472)
(-2.26603 0 0.675927)
(-2.39232 0 0.729898)
(-2.4858 0 0.717981)
(-2.60809 0 0.780653)
(-2.70674 0 0.740352)
(-2.82503 0 0.811531)
(-2.92676 0 0.742717)
(-3.04169 0 0.82182)
(-3.14314 0 0.725302)
(-3.25609 0 0.811351)
(-3.3525 0 0.688695)
(-3.46557 0 0.780426)
(-3.55096 0 0.633751)
(-3.66688 0 0.729654)
(-3.73425 0 0.561676)
(-3.85625 0 0.660002)
(-3.89779 0 0.474074)
(-4.0295 0 0.572854)
(-4.03683 0 0.372904)
(-4.18206 0 0.470022)
(-4.14663 0 0.260327)
(-4.30923 0 0.353692)
(-4.22295 0 0.138341)
(-4.40667 0 0.226252)
(-4.26314 0 0.00846176)
(-4.471 0 0.089919)
(-4.2675 0 -0.127814)
(-4.50002 0 -0.0532578)
(-4.2401 0 -0.267574)
(-4.49798 0 -0.200422)
(-4.18784 0 -0.405327)
(-4.46771 0 -0.346999)
(-4.11995 0 -0.532955)
(-4.41529 0 -0.485589)
(-4.04133 0 -0.636324)
(-4.35736 0 -0.607363)
(-4.32549 0 -0.695247)
(-0.27365 0 -0.703396)
(-0.230088 0 -0.67918)
(-0.542331 0 -0.475647)
(-0.466283 0 -0.452978)
(-0.795331 0 -0.262414)
(-0.765919 0 -0.237576)
(-1.03707 0 -0.0708625)
(-1.02619 0 -0.0448455)
(-1.25785 0 0.0976755)
(-1.26835 0 0.11859)
(-1.46968 0 0.245229)
(-1.49406 0 0.267517)
(-1.67993 0 0.378788)
(-1.71406 0 0.404127)
(-1.88974 0 0.499939)
(-1.92992 0 0.529023)
(-2.09963 0 0.607708)
(-2.14271 0 0.641467)
(-2.31008 0 0.700639)
(-2.35355 0 0.740118)
(-2.5213 0 0.777145)
(-2.56331 0 0.823363)
(-2.73319 0 0.835593)
(-2.7726 0 0.889452)
(-2.94541 0 0.874519)
(-2.98171 0 0.936679)
(-3.15725 0 0.89283)
(-3.19056 0 0.963601)
(-3.36752 0 0.88992)
(-3.39858 0 0.969192)
(-3.57437 0 0.865678)
(-3.60458 0 0.95291)
(-3.77529 0 0.820415)
(-3.8067 0 0.914675)
(-3.96714 0 0.754818)
(-4.00238 0 0.85482)
(-4.1463 0 0.669998)
(-4.18844 0 0.774121)
(-4.3087 0 0.567529)
(-4.36118 0 0.673859)
(-4.45005 0 0.449443)
(-4.51642 0 0.555857)
(-4.56604 0 0.318163)
(-4.64983 0 0.422466)
(-4.65285 0 0.17637)
(-4.75742 0 0.276506)
(-4.70822 0 0.0269089)
(-4.83608 0 0.121214)
(-4.73265 0 -0.126904)
(-4.88376 0 -0.039774)
(-4.72999 0 -0.280592)
(-4.90367 0 -0.201856)
(-4.70622 0 -0.427844)
(-4.89959 0 -0.359505)
(-4.66859 0 -0.560955)
(-4.87741 0 -0.504921)
(-4.62256 0 -0.667022)
(-4.85041 0 -0.630448)
(-4.83731 0 -0.718518)
(-0.349206 0 -0.411206)
(-0.263411 0 -0.337154)
(-0.683063 0 -0.199798)
(-0.551517 0 -0.133708)
(-0.981723 0 -0.0104119)
(-0.887114 0 0.0412888)
(-1.24928 0 0.153017)
(-1.17655 0 0.199074)
(-1.49873 0 0.299786)
(-1.44188 0 0.34064)
(-1.73541 0 0.435374)
(-1.69093 0 0.473215)
(-1.96238 0 0.560488)
(-1.92629 0 0.596732)
(-2.18187 0 0.674613)
(-2.15074 0 0.710881)
(-2.39582 0 0.776455)
(-2.36683 0 0.814545)
(-2.60591 0 0.864336)
(-2.57685 0 0.906062)
(-2.81351 0 0.93639)
(-2.7828 0 0.983461)
(-3.01959 0 0.990718)
(-2.9863 0 1.04463)
(-3.22477 0 1.02557)
(-3.18854 0 1.08753)
(-3.42915 0 1.03953)
(-3.39023 0 1.11032)
(-3.63227 0 1.0316)
(-3.59152 0 1.11156)
(-3.83297 0 1.00125)
(-3.79185 0 1.09026)
(-4.02938 0 0.948425)
(-3.98993 0 1.04591)
(-4.21892 0 0.873532)
(-4.18373 0 0.978472)
(-4.39838 0 0.777493)
(-4.37051 0 0.888439)
(-4.56408 0 0.661812)
(-4.54687 0 0.776915)
(-4.71199 0 0.528605)
(-4.70889 0 0.645672)
(-4.83801 0 0.380612)
(-4.85242 0 0.497188)
(-4.9385 0 0.221218)
(-4.97351 0 0.334678)
(-5.01114 0 0.0545056)
(-5.06906 0 0.162275)
(-5.05623 0 -0.114652)
(-5.13691 0 -0.0148889)
(-5.07701 0 -0.280592)
(-5.17799 0 -0.190659)
(-5.07872 0 -0.43644)
(-5.19833 0 -0.358605)
(-5.0674 0 -0.574488)
(-5.20329 0 -0.510739)
(-5.04944 0 -0.681997)
(-5.20286 0 -0.639453)
(-5.20465 0 -0.726711)
(-0.387696 0 -0.0479867)
(-0.2705 0 0.04257)
(-0.747462 0 0.120348)
(-0.582498 0 0.210338)
(-1.06913 0 0.262806)
(-0.935111 0 0.34164)
(-1.36044 0 0.395811)
(-1.24213 0 0.46465)
(-1.62935 0 0.520954)
(-1.52349 0 0.580003)
(-1.87894 0 0.639129)
(-1.78213 0 0.690135)
(-2.11284 0 0.749983)
(-2.02172 0 0.795217)
(-2.33442 0 0.852487)
(-2.24606 0 0.89447)
(-2.54675 0 0.944994)
(-2.45876 0 0.98632)
(-2.75258 0 1.02544)
(-2.66311 0 1.06863)
(-2.9542 0 1.09156)
(-2.862 0 1.13895)
(-3.15347 0 1.14104)
(-3.05786 0 1.19469)
(-3.35174 0 1.17172)
(-3.25259 0 1.2333)
(-3.54979 0 1.18171)
(-3.44751 0 1.25248)
(-3.74771 0 1.16956)
(-3.6433 0 1.25028)
(-3.94489 0 1.13428)
(-3.83991 0 1.2252)
(-4.13992 0 1.07537)
(-4.03648 0 1.17622)
(-4.33062 0 0.992877)
(-4.23136 0 1.10288)
(-4.51411 0 0.887463)
(-4.42209 0 1.00532)
(-4.68689 0 0.760486)
(-4.60547 0 0.884374)
(-4.84504 0 0.614077)
(-4.77766 0 0.741711)
(-4.98453 0 0.451211)
(-4.9345 0 0.579889)
(-5.10162 0 0.275853)
(-5.07191 0 0.402465)
(-5.19359 0 0.0931604)
(-5.18651 0 0.214259)
(-5.25974 0 -0.0905181)
(-5.27584 0 0.0216166)
(-5.3027 0 -0.268143)
(-5.33881 0 -0.167508)
(-5.32801 0 -0.432325)
(-5.38253 0 -0.345289)
(-5.34058 0 -0.575224)
(-5.41271 0 -0.504284)
(-5.34728 0 -0.68385)
(-5.43597 0 -0.636088)
(-5.45039 0 -0.722541)
(-0.394632 0 0.314675)
(-0.261225 0 0.429088)
(-0.762198 0 0.441772)
(-0.580268 0 0.561843)
(-1.09609 0 0.549737)
(-0.939578 0 0.653405)
(-1.39809 0 0.65239)
(-1.2506 0 0.739968)
(-1.67212 0 0.751131)
(-1.5325 0 0.823929)
(-1.92236 0 0.847124)
(-1.78736 0 0.907625)
(-2.15326 0 0.939897)
(-2.02004 0 0.991148)
(-2.36911 0 1.02803)
(-2.23529 0 1.07331)
(-2.57391 0 1.10938)
(-2.43761 0 1.152)
(-2.77122 0 1.18138)
(-2.63106 0 1.22448)
(-2.96409 0 1.24122)
(-2.8192 0 1.28769)
(-3.15501 0 1.28605)
(-3.00504 0 1.33845)
(-3.34592 0 1.31319)
(-3.19098 0 1.37365)
(-3.53806 0 1.32023)
(-3.37882 0 1.39041)
(-3.732 0 1.30516)
(-3.56963 0 1.38621)
(-3.92749 0 1.26648)
(-3.7637 0 1.35898)
(-4.12347 0 1.20319)
(-3.96051 0 1.30717)
(-4.31803 0 1.1149)
(-4.15867 0 1.22981)