/*--------------------------------*- C++ -*----------------------------------*\
  =========                 |
  \\      /  F ield         | OpenFOAM: The Open Source CFD Toolbox
   \\    /   O peration     | Website:  https://openfoam.org
    \\  /    A nd           | Version:  dev
     \\/     M anipulation  |
\*---------------------------------------------------------------------------*/
FoamFile
{
    version     2.0;
    format      ascii;
    class       surfaceVectorField;
    location    "9.6";
    object      Uf;
}
// * * * * * * * * * * * * * * * * * * * * * * * * * * * * * * * * * * * * * //

dimensions      [0 1 -1 0 0 0 0];

internalField   nonuniform List<vector> 
5457
(
(9.92088 0 0.0251102)
(9.97124 0 0.0387466)
(9.82401 0 0.0328279)
(9.92858 0 0.0485868)
(9.7096 0 0.0393135)
(9.85547 0 0.0587706)
(9.57542 0 0.0460136)
(9.75679 0 0.0705968)
(9.42136 0 0.0529515)
(9.63751 0 0.0830178)
(9.24751 0 0.0601693)
(9.49858 0 0.095942)
(9.05358 0 0.0678147)
(9.33926 0 0.109619)
(8.83887 0 0.076039)
(9.15869 0 0.124297)
(8.60245 0 0.0849755)
(8.95603 0 0.140177)
(8.34317 0 0.0947509)
(8.7303 0 0.157444)
(8.05974 0 0.105494)
(8.4803 0 0.176282)
(7.75067 0 0.117336)
(8.20465 0 0.196871)
(7.41441 0 0.130404)
(7.90181 0 0.219377)
(7.04933 0 0.14482)
(7.57014 0 0.24394)
(6.65383 0 0.160683)
(7.208 0 0.270651)
(6.22649 0 0.178055)
(6.81379 0 0.299519)
(5.76618 0 0.196939)
(6.3861 0 0.330433)
(5.27231 0 0.217244)
(5.92391 0 0.363102)
(4.74509 0 0.238746)
(5.42683 0 0.396992)
(4.18591 0 0.261041)
(4.89536 0 0.431251)
(3.59767 0 0.283494)
(4.33134 0 0.464629)
(2.98526 0 0.305205)
(3.7383 0 0.495429)
(2.35583 0 0.325068)
(3.12197 0 0.521509)
(1.71883 0 0.342543)
(2.49078 0 0.540547)
(1.08409 0 0.361876)
(1.85558 0 0.551656)
(0.451597 0 0.348618)
(1.24525 0 0.563005)
(-0.145984 0 0.102374)
(0.608645 0 0.544795)
(-0.423671 0 -0.2071)
(0.0945846 0 0.259281)
(-0.402172 0 -0.361227)
(-0.133804 0 -0.0205599)
(-0.119681 0 -0.393902)
(9.99641 0 0.0516742)
(9.99705 0 0.0405062)
(9.95878 0 0.0708646)
(9.9785 0 0.0674577)
(9.89823 0 0.0879912)
(9.93377 0 0.0898749)
(9.81657 0 0.105991)
(9.86452 0 0.113562)
(9.71356 0 0.124929)
(9.77436 0 0.138523)
(9.58905 0 0.144863)
(9.66432 0 0.164657)
(9.4427 0 0.166101)
(9.53393 0 0.192345)
(9.27384 0 0.18898)
(9.38245 0 0.222046)
(9.08159 0 0.213798)
(9.20912 0 0.254167)
(8.86481 0 0.240833)
(9.01308 0 0.289085)
(8.62219 0 0.270356)
(8.79322 0 0.327177)
(8.35226 0 0.302629)
(8.54824 0 0.368814)
(8.0534 0 0.337881)
(8.27669 0 0.414347)
(7.72394 0 0.376288)
(7.97701 0 0.46408)
(7.36217 0 0.41793)
(7.64753 0 0.518225)
(6.9665 0 0.462736)
(7.28662 0 0.576844)
(6.53558 0 0.510414)
(6.89272 0 0.639764)
(6.06856 0 0.560359)
(6.46456 0 0.706464)
(5.5653 0 0.611543)
(6.00132 0 0.775943)
(5.0268 0 0.662401)
(5.50297 0 0.846551)
(4.45557 0 0.710717)
(4.97058 0 0.915825)
(3.85618 0 0.75354)
(4.40687 0 0.980314)
(3.23589 0 0.787185)
(3.81673 0 1.03545)
(2.60553 0 0.807478)
(3.20816 0 1.07546)
(1.98253 0 0.810433)
(2.59311 0 1.09311)
(1.40507 0 0.776838)
(1.99596 0 1.07702)
(0.929551 0 0.646315)
(1.41928 0 0.978308)
(0.439668 0 0.384222)
(0.93742 0 0.716695)
(0.0590804 0 -0.118712)
(0.443619 0 0.343398)
(0.174887 0 -0.336037)
(9.98903 0 0.0594339)
(9.99481 0 0.0458799)
(9.95433 0 0.0894816)
(9.97368 0 0.084859)
(9.89728 0 0.118039)
(9.92983 0 0.119181)
(9.82045 0 0.147908)
(9.86356 0 0.153986)
(9.72414 0 0.179434)
(9.77734 0 0.190421)
(9.60818 0 0.21279)
(9.67224 0 0.228653)
(9.4723 0 0.24841)
(9.54806 0 0.269149)
(9.31602 0 0.286795)
(9.40427 0 0.31252)
(9.13861 0 0.328422)
(9.24028 0 0.359352)
(8.93916 0 0.37375)
(9.05541 0 0.410205)
(8.71654 0 0.423237)
(8.8488 0 0.465633)
(8.46947 0 0.47733)
(8.6194 0 0.526192)
(8.19653 0 0.536436)
(8.36602 0 0.592415)
(7.89615 0 0.600882)
(8.08736 0 0.664784)
(7.56672 0 0.670852)
(7.78202 0 0.743667)
(7.20662 0 0.746298)
(7.44853 0 0.82924)
(6.81433 0 0.826823)
(7.08546 0 0.921369)
(6.38862 0 0.911521)
(6.69146 0 1.01945)
(5.92876 0 0.99879)
(6.26545 0 1.12222)
(5.43485 0 1.08612)
(5.80684 0 1.22746)
(4.90825 0 1.16984)
(5.31578 0 1.33177)
(4.35213 0 1.24489)
(4.79367 0 1.4302)
(3.77229 0 1.30453)
(4.24367 0 1.51587)
(3.17844 0 1.3398)
(3.67152 0 1.57939)
(2.58637 0 1.33806)
(3.08605 0 1.60768)
(2.01964 0 1.27288)
(2.50268 0 1.58149)
(1.48676 0 1.09529)
(1.92853 0 1.46412)
(0.958166 0 0.769035)
(1.38509 0 1.21025)
(0.479799 0 0.202283)
(0.829439 0 0.800863)
(0.43368 0 0.133897)
(9.98515 0 0.0716181)
(9.99367 0 0.053151)
(9.95039 0 0.113637)
(9.97087 0 0.102297)
(9.89436 0 0.154143)
(9.9269 0 0.147963)
(9.81881 0 0.195586)
(9.86184 0 0.193734)
(9.7244 0 0.238828)
(9.77744 0 0.241294)
(9.61109 0 0.284345)
(9.67464 0 0.291184)
(9.4787 0 0.332745)
(9.55339 0 0.343981)
(9.32689 0 0.384703)
(9.41331 0 0.400402)
(9.15516 0 0.44088)
(9.25394 0 0.461174)
(8.96282 0 0.501921)
(9.07476 0 0.527001)
(8.74906 0 0.56847)
(8.87511 0 0.598581)
(8.51292 0 0.641159)
(8.65418 0 0.676613)
(8.25332 0 0.720582)
(8.41109 0 0.761777)
(7.96909 0 0.807245)
(8.14484 0 0.854697)
(7.65899 0 0.901494)
(7.85437 0 0.955883)
(7.32171 0 1.00341)
(7.53855 0 1.06564)
(6.95598 0 1.11263)
(7.19624 0 1.18391)
(6.56059 0 1.22819)
(6.82629 0 1.31014)
(6.13462 0 1.34821)
(6.42763 0 1.44297)
(5.67756 0 1.46963)
(5.99938 0 1.57995)
(5.1897 0 1.58779)
(5.54105 0 1.71711)
(4.67256 0 1.69602)
(5.05275 0 1.84855)
(4.1295 0 1.78512)
(4.53566 0 1.96582)
(3.56637 0 1.84247)
(3.99243 0 2.05726)
(2.99179 0 1.85063)
(3.42732 0 2.10706)
(2.41562 0 1.78236)
(2.84738 0 2.09436)
(1.84036 0 1.60029)
(2.25602 0 1.98857)
(1.25926 0 1.27824)
(1.66015 0 1.75284)
(0.666712 0 0.789333)
(1.02386 0 1.36752)
(0.522997 0 0.7869)
(9.98337 0 0.0844126)
(9.99316 0 0.0612952)
(9.9482 0 0.136846)
(9.96958 0 0.119935)
(9.89314 0 0.188044)
(9.92574 0 0.176252)
(9.81905 0 0.240185)
(9.86198 0 0.232714)
(9.7266 0 0.294488)
(9.77962 0 0.291107)
(9.61587 0 0.351684)
(9.67937 0 0.352299)
(9.48667 0 0.4125)
(9.56124 0 0.417008)
(9.33873 0 0.477711)
(9.42492 0 0.486044)
(9.17164 0 0.548091)
(9.27003 0 0.560246)
(8.98484 0 0.624401)
(9.09613 0 0.640435)
(8.77768 0 0.707396)
(8.90265 0 0.727422)
(8.54941 0 0.797822)
(8.68896 0 0.822017)
(8.29921 0 0.896389)
(8.45431 0 0.925009)
(8.02618 0 1.00372)
(8.19792 0 1.03713)
(7.72939 0 1.12028)
(7.91895 0 1.15899)
(7.40784 0 1.24624)
(7.61649 0 1.291)
(7.06053 0 1.38134)
(7.28963 0 1.43323)
(6.68644 0 1.52465)
(6.93738 0 1.58518)
(6.28458 0 1.67425)
(6.55872 0 1.74557)
(5.85409 0 1.82683)
(6.15258 0 1.91194)
(5.3944 0 1.97728)
(5.71792 0 2.08021)
(4.90544 0 2.11805)
(5.25376 0 2.24411)
(4.38794 0 2.23857)
(4.75942 0 2.39459)
(3.84365 0 2.32447)
(4.23463 0 2.51914)
(3.27516 0 2.35683)
(3.67959 0 2.60113)
(2.68516 0 2.31043)
(3.09545 0 2.61954)
(2.0725 0 2.15479)
(2.48146 0 2.54711)
(1.42924 0 1.86715)
(1.83974 0 2.35346)
(0.742542 0 1.41929)
(1.13125 0 2.02422)
(0.543257 0 1.51417)
(9.98264 0 0.0975039)
(9.99299 0 0.0697973)
(9.94743 0 0.159785)
(9.96924 0 0.137592)
(9.89353 0 0.221362)
(9.92596 0 0.20394)
(9.82132 0 0.284111)
(9.8638 0 0.270706)
(9.73132 0 0.349372)
(9.78384 0 0.339606)
(9.62364 0 0.418049)
(9.68662 0 0.411726)
(9.49815 0 0.490974)
(9.57215 0 0.487938)
(9.3546 0 0.569016)
(9.44017 0 0.569146)
(9.19263 0 0.653053)
(9.29037 0 0.656283)
(9.01175 0 0.743953)
(9.12235 0 0.75027)
(8.81141 0 0.842579)
(8.93563 0 0.852021)
(8.59097 0 0.949779)
(8.72962 0 0.962439)
(8.34971 0 1.06636)
(8.50369 0 1.0824)
(8.0869 0 1.19305)
(8.25713 0 1.21273)
(7.80174 0 1.33039)
(7.9892 0 1.35414)
(7.49339 0 1.47869)
(7.6991 0 1.50712)
(7.16096 0 1.63778)
(7.38595 0 1.67186)
(6.80346 0 1.80683)
(7.04878 0 1.84801)
(6.41983 0 1.98405)
(6.68648 0 2.03445)
(6.00883 0 2.1662)
(6.29771 0 2.22891)
(5.56909 0 2.34814)
(5.88088 0 2.42754)
(5.09913 0 2.52221)
(5.43401 0 2.62429)
(4.59742 0 2.67753)
(4.95477 0 2.81028)
(4.06238 0 2.79941)
(4.4405 0 2.97316)
(3.4924 0 2.86896)
(3.88819 0 3.09651)
(2.88556 0 2.86272)
(3.29492 0 3.15971)
(2.2378 0 2.75367)
(2.65663 0 3.13765)
(1.54229 0 2.52071)
(1.97463 0 3.00287)
(0.793568 0 2.13099)
(1.20711 0 2.74022)
(0.556678 0 2.29142)
(9.9825 0 0.110633)
(9.99301 0 0.0783665)
(9.9477 0 0.182336)
(9.96954 0 0.155047)
(9.89522 0 0.253834)
(9.92722 0 0.230901)
(9.82523 0 0.326789)
(9.86696 0 0.30753)
(9.73811 0 0.402583)
(9.78976 0 0.386549)
(9.63401 0 0.482268)
(9.69603 0 0.469181)
(9.51282 0 0.566798)
(9.58576 0 0.556437)
(9.37433 0 0.657141)
(9.45876 0 0.649318)
(9.21822 0 0.754269)
(9.31475 0 0.748843)
(9.04406 0 0.859149)
(9.1534 0 0.856027)
(8.85135 0 0.972736)
(8.97425 0 0.971875)
(8.63951 0 1.09597)
(8.77681 0 1.09738)
(8.40789 0 1.22973)
(8.56046 0 1.23351)
(8.15579 0 1.37485)
(8.32455 0 1.38118)
(7.88246 0 1.53197)
(8.06836 0 1.54119)
(7.58706 0 1.70149)
(7.79106 0 1.71417)
(7.26866 0 1.88341)
(7.49174 0 1.90043)
(6.92616 0 2.07708)
(7.16929 0 2.09982)
(6.55822 0 2.28095)
(6.82238 0 2.31151)
(6.16316 0 2.49214)
(6.44928 0 2.5336)
(5.73879 0 2.70589)
(6.04776 0 2.76273)
(5.28238 0 2.91501)
(5.61489 0 2.99351)
(4.79047 0 3.10912)
(5.14687 0 3.21785)
(4.25894 0 3.27411)
(4.639 0 3.42421)
(3.68305 0 3.39169)
(4.08568 0 3.59702)
(3.05774 0 3.43944)
(3.48096 0 3.71632)
(2.37748 0 3.39148)
(2.81805 0 3.75782)
(1.63773 0 3.22579)
(2.09891 0 3.69359)
(0.839035 0 2.90041)
(1.27876 0 3.50402)
(0.573288 0 3.11321)
(9.98273 0 0.123589)
(9.99316 0 0.0868231)
(9.94872 0 0.204323)
(9.97026 0 0.172104)
(9.89793 0 0.285271)
(9.92926 0 0.256992)
(9.83049 0 0.36799)
(9.87123 0 0.343011)
(9.74669 0 0.453883)
(9.79714 0 0.431708)
(9.64666 0 0.544116)
(9.70733 0 0.524388)
(9.53035 0 0.639754)
(9.60178 0 0.62218)
(9.39758 0 0.741855)
(9.48034 0 0.726179)
(9.24807 0 0.851479)
(9.34281 0 0.837487)
(9.08145 0 0.969681)
(9.18888 0 0.957205)
(8.89727 0 1.0975)
(9.01816 0 1.08643)
(8.69499 0 1.23598)
(8.8302 0 1.22623)
(8.474 0 1.38609)
(8.62443 0 1.37768)
(8.23361 0 1.54874)
(8.40023 0 1.5418)
(7.97305 0 1.72472)
(8.15685 0 1.71951)
(7.69141 0 1.91457)
(7.89345 0 1.91157)
(7.38762 0 2.11848)
(7.60898 0 2.1185)
(7.06036 0 2.33609)
(7.30217 0 2.34043)
(6.70791 0 2.56624)
(6.97137 0 2.5769)
(6.32804 0 2.80659)
(6.6144 0 2.82656)
(5.91775 0 3.05312)
(6.22836 0 3.0868)
(5.47308 0 3.29956)
(5.80936 0 3.35324)
(4.98891 0 3.53663)
(5.35224 0 3.619)
(4.45894 0 3.75132)
(4.85045 0 3.87394)
(3.87583 0 3.92628)
(4.29599 0 4.1038)
(3.23197 0 4.03958)
(3.68013 0 4.28945)
(2.52052 0 4.06461)
(2.99313 0 4.40642)
(1.73815 0 3.97566)
(2.23707 0 4.42411)
(0.889352 0 3.71822)
(1.36315 0 4.31573)
(0.59866 0 3.98427)
(9.98321 0 0.136212)
(9.99339 0 0.0950465)
(9.95032 0 0.225587)
(9.97131 0 0.188601)
(9.9015 0 0.315517)
(9.93193 0 0.282067)
(9.83693 0 0.407531)
(9.87642 0 0.376985)
(9.75682 0 0.503047)
(9.80578 0 0.474873)
(9.66133 0 0.603319)
(9.72028 0 0.57709)
(9.55043 0 0.70951)
(9.61993 0 0.684863)
(9.42399 0 0.822762)
(9.50461 0 0.799374)
(9.28179 0 0.944217)
(9.37418 0 0.921803)
(9.12349 0 1.07501)
(9.22838 0 1.05333)
(8.94871 0 1.21628)
(9.06688 0 1.19513)
(8.75695 0 1.36915)
(8.88929 0 1.34838)
(8.54764 0 1.5347)
(8.6951 0 1.51424)
(8.3201 0 1.71397)
(8.48369 0 1.69384)
(8.07353 0 1.90788)
(8.25435 0 1.88825)
(7.80694 0 2.11717)
(8.00618 0 2.09842)
(7.51909 0 2.34231)
(7.73804 0 2.32513)
(7.20842 0 2.5833)
(7.44848 0 2.56885)
(6.8728 0 2.83953)
(7.13556 0 2.82961)
(6.50944 0 3.10939)
(6.79669 0 3.10679)
(6.11451 0 3.3899)
(6.42831 0 3.39875)
(5.68291 0 3.67607)
(6.02564 0 3.70239)
(5.20794 0 3.9602)
(5.58223 0 4.01253)
(4.68119 0 4.2309)
(5.08973 0 4.32093)
(4.09272 0 4.47212)
(4.53766 0 4.61525)
(3.43197 0 4.66222)
(3.91408 0 4.8776)
(2.68966 0 4.77269)
(3.2051 0 5.08317)
(1.86149 0 4.77181)
(2.41078 0 5.19739)
(0.953985 0 4.58903)
(1.47594 0 5.18358)
(0.639038 0 4.91864)
(9.98386 0 0.148379)
(9.99368 0 0.10295)
(9.95235 0 0.245987)
(9.9726 0 0.204407)
(9.90578 0 0.344422)
(9.9351 0 0.30599)
(9.84436 0 0.445229)
(9.8824 0 0.409298)
(9.76831 0 0.549849)
(9.81551 0 0.515852)
(9.67778 0 0.659606)
(9.73469 0 0.627055)
(9.57278 0 0.775744)
(9.63997 0 0.744211)
(9.45324 0 0.899484)
(9.53127 0 0.86858)
(9.31897 0 1.03205)
(9.40849 0 1.00141)
(9.16972 0 1.17464)
(9.27146 0 1.14396)
(9.00515 0 1.3285)
(9.11993 0 1.29748)
(8.82483 0 1.49483)
(8.95353 0 1.46324)
(8.62823 0 1.67484)
(8.77184 0 1.6425)
(8.41471 0 1.86969)
(8.57431 0 1.83651)
(8.18345 0 2.08049)
(8.36023 0 2.04651)
(7.93341 0 2.30822)
(8.12872 0 2.27367)
(7.66325 0 2.55368)
(7.87859 0 2.51906)
(7.37117 0 2.81736)
(7.60829 0 2.78359)
(7.05474 0 3.09929)
(7.31569 0 3.06788)
(6.71066 0 3.39881)
(6.99786 0 3.37215)
(6.33439 0 3.71421)
(6.65078 0 3.69595)
(5.91978 0 4.04218)
(6.26894 0 4.0378)
(5.45864 0 4.37708)
(5.84477 0 4.3946)
(4.94038 0 4.70981)
(5.36818 0 4.76072)
(4.352 0 5.02633)
(4.82603 0 5.12662)
(3.67887 0 5.30581)
(4.20237 0 5.47678)
(2.90685 0 5.51762)
(3.4771 0 5.78699)
(2.02714 0 5.62226)
(2.64432 0 6.01879)
(1.04481 0 5.52855)
(1.63721 0 6.12299)
(0.704234 0 5.94197)
(9.98465 0 0.159992)
(9.99402 0 0.11047)
(9.95473 0 0.265399)
(9.97409 0 0.219414)
(9.91064 0 0.371845)
(9.93867 0 0.328634)
(9.85266 0 0.480917)
(9.88904 0 0.439806)
(9.78099 0 0.594087)
(9.82618 0 0.554472)
(9.69579 0 0.712732)
(9.75037 0 0.674073)
(9.59714 0 0.838169)
(9.66165 0 0.799975)
(9.48499 0 0.971689)
(9.56 0 0.933504)
(9.35923 0 1.11458)
(9.4454 0 1.07598)
(9.21968 0 1.26813)
(9.31772 0 1.22871)
(9.06606 0 1.43363)
(9.17678 0 1.39303)
(8.89802 0 1.61241)
(9.02233 0 1.57028)
(8.71511 0 1.80578)
(8.85401 0 1.76183)
(8.51672 0 2.01505)
(8.67134 0 1.96906)
(8.3021 0 2.24154)
(8.47371 0 2.19339)
(8.0702 0 2.4865)
(8.26028 0 2.4362)
(7.81966 0 2.7511)
(8.02991 0 2.69892)
(7.54856 0 3.0364)
(7.78105 0 2.9829)
(7.25432 0 3.34319)
(7.51153 0 3.28945)
(6.9333 0 3.67191)
(7.21833 0 3.61972)
(6.58049 0 4.02236)
(6.8972 0 3.97462)
(6.18895 0 4.39328)
(6.54223 0 4.35455)
(5.74917 0 4.7817)
(6.14512 0 4.75897)
(5.24844 0 5.18171)
(5.69438 0 5.18564)
(4.67018 0 5.58264)
(5.17428 0 5.62918)
(3.99411 0 5.96618)
(4.56419 0 6.07858)
(3.19763 0 6.30109)
(3.83538 0 6.5131)
(2.26111 0 6.53977)
(2.96992 0 6.89324)
(1.18021 0 6.56393)
(1.87843 0 7.15666)
(0.812453 0 7.09791)
(9.98553 0 0.170974)
(9.9944 0 0.117554)
(9.95738 0 0.283717)
(9.97572 0 0.233534)
(9.916 0 0.397661)
(9.94258 0 0.349892)
(9.86169 0 0.514446)
(9.89623 0 0.468382)
(9.79468 0 0.635579)
(9.83764 0 0.59058)
(9.71515 0 0.762483)
(9.76712 0 0.717959)
(9.62323 0 0.896532)
(9.68474 0 0.851936)
(9.51891 0 1.03908)
(9.59053 0 0.993891)
(9.40217 0 1.19147)
(9.48453 0 1.14519)
(9.27289 0 1.35505)
(9.3667 0 1.30722)
(9.13088 0 1.53121)
(9.23694 0 1.48135)
(8.97588 0 1.72133)
(9.09508 0 1.66901)
(8.80753 0 1.92686)
(8.94088 0 1.87166)
(8.62534 0 2.14926)
(8.77398 0 2.0908)
(8.42862 0 2.39003)
(8.59388 0 2.32801)
(8.21643 0 2.65073)
(8.39986 0 2.58492)
(7.98747 0 2.93295)
(8.19094 0 2.86328)
(7.73991 0 3.23829)
(7.96571 0 3.16491)
(7.47116 0 3.56842)
(7.72214 0 3.49181)
(7.1776 0 3.92495)
(7.45739 0 3.84612)
(6.85408 0 4.30938)
(7.1674 0 4.23016)
(6.49333 0 4.72285)
(6.84634 0 4.64638)
(6.08509 0 5.16567)
(6.48587 0 5.09722)
(5.61491 0 5.63634)
(6.07396 0 5.58463)
(5.06272 0 6.12969)
(5.59314 0 6.1091)
(4.40125 0 6.63339)
(5.01856 0 6.66739)
(3.59512 0 7.12049)
(4.31137 0 7.24803)
(2.6034 0 7.53947)
(3.43445 0 7.81923)
(1.3937 0 7.73886)
(2.25541 0 8.3135)
(1.00204 0 8.46296)
(9.9865 0 0.181264)
(9.9948 0 0.124164)
(9.96026 0 0.300851)
(9.97747 0 0.246695)
(9.92176 0 0.42176)
(9.94676 0 0.36967)
(9.87133 0 0.545686)
(9.90387 0 0.494917)
(9.80922 0 0.674168)
(9.84977 0 0.624045)
(9.73566 0 0.80867)
(9.78478 0 0.758557)
(9.65079 0 0.950611)
(9.70901 0 0.899909)
(9.55469 0 1.10139)
(9.62256 0 1.04952)
(9.44739 0 1.26241)
(9.52553 0 1.20881)
(9.32887 0 1.43506)
(9.41796 0 1.37919)
(9.19903 0 1.6208)
(9.29984 0 1.5621)
(9.05773 0 1.82109)
(9.17113 0 1.75902)
(8.90472 0 2.03747)
(9.0317 0 1.97148)
(8.73964 0 2.27154)
(8.88133 0 2.2011)
(8.56197 0 2.525)
(8.71969 0 2.4496)
(8.37094 0 2.79968)
(8.54628 0 2.71882)
(8.16544 0 3.09756)
(8.36033 0 3.01079)
(7.94389 0 3.42082)
(8.16072 0 3.3278)
(7.70399 0 3.77193)
(7.94582 0 3.67246)
(7.44245 0 4.15372)
(7.71325 0 4.04782)
(7.15454 0 4.56942)
(7.45958 0 4.45757)
(6.83336 0 5.02277)
(7.17977 0 4.90621)
(6.46885 0 5.51788)
(6.86643 0 5.39923)
(6.04615 0 6.05887)
(6.5085 0 5.94332)
(5.54302 0 6.64873)
(6.08902 0 6.54637)
(4.92585 0 7.2867)
(5.58185 0 7.21675)
(4.14363 0 7.96068)
(4.94097 0 7.96115)
(3.1204 0 8.63218)
(4.10755 0 8.77464)
(1.75527 0 9.12568)
(2.87676 0 9.61898)
(1.3637 0 10.1821)
(9.98754 0 0.19081)
(9.99523 0 0.130268)
(9.96332 0 0.316726)
(9.97932 0 0.258839)
(9.92785 0 0.44405)
(9.95115 0 0.387892)
(9.88147 0 0.574526)
(9.91187 0 0.519317)
(9.82448 0 0.709726)
(9.86243 0 0.654756)
(9.75711 0 0.851144)
(9.80317 0 0.795736)
(9.67957 0 1.00023)
(9.73424 0 0.94374)
(9.59199 0 1.15843)
(9.65581 0 1.10022)
(9.49449 0 1.32717)
(9.56803 0 1.26662)
(9.38712 0 1.5079)
(9.47105 0 1.44439)
(9.26991 0 1.7021)
(9.36496 0 1.63499)
(9.14284 0 1.9113)
(9.24982 0 1.83996)
(9.0058 0 2.13713)
(9.12566 0 2.06088)
(8.85861 0 2.3813)
(8.99243 0 2.29945)
(8.70096 0 2.64567)
(8.85001 0 2.55749)
(8.53232 0 2.93229)
(8.69815 0 2.83701)
(8.35193 0 3.24348)
(8.53642 0 3.14029)
(8.15861 0 3.58193)
(8.36411 0 3.46994)
(7.95061 0 3.95081)
(8.18017 0 3.82908)
(7.72539 0 4.35402)
(7.98301 0 4.22151)
(7.4792 0 4.7964)
(7.77026 0 4.65203)
(7.20646 0 5.28412)
(7.5384 0 5.12685)
(6.89879 0 5.82517)
(7.28222 0 5.65415)
(6.54321 0 6.42988)
(6.99369 0 6.24506)
(6.11898 0 7.11163)
(6.66009 0 6.91508)
(5.59136 0 7.8875)
(6.26082 0 7.6864)
(4.89889 0 8.77724)
(5.75544 0 8.59245)
(3.92469 0 9.79994)
(5.08468 0 9.68426)
(2.43139 0 10.8536)
(3.9765 0 11.047)
(2.14409 0 12.5635)
(9.98862 0 0.199575)
(9.99567 0 0.135843)
(9.96652 0 0.331281)
(9.98124 0 0.269922)
(9.9342 0 0.464447)
(9.9557 0 0.404496)
(9.89202 0 0.600859)
(9.92016 0 0.541509)
(9.8403 0 0.742114)
(9.87552 0 0.682625)
(9.77931 0 0.88973)
(9.82216 0 0.829392)
(9.70931 0 1.04518)
(9.76027 0 0.983309)
(9.63049 0 1.20994)
(9.69009 0 1.14585)
(9.54305 0 1.38545)
(9.61184 0 1.31847)
(9.44715 0 1.57318)
(9.52575 0 1.50263)
(9.34292 0 1.77465)
(9.43204 0 1.69982)
(9.23047 0 1.99144)
(9.33089 0 1.91159)
(9.10988 0 2.22521)
(9.22248 0 2.13955)
(8.98117 0 2.47776)
(9.10697 0 2.38545)
(8.84427 0 2.75106)
(8.98448 0 2.65118)
(8.69899 0 3.04733)
(8.85505 0 2.93884)
(8.54498 0 3.36914)
(8.71864 0 3.25084)
(8.38163 0 3.7195)
(8.57511 0 3.59003)
(8.20799 0 4.10213)
(8.4241 0 3.95983)
(8.02258 0 4.5217)
(8.26503 0 4.36449)
(7.82323 0 4.98422)
(8.097 0 4.8095)
(7.60662 0 5.49776)
(7.91863 0 5.30208)
(7.36771 0 6.07335)
(7.72794 0 5.85209)
(7.09858 0 6.72662)
(7.52202 0 6.47345)
(6.78602 0 7.48073)
(7.29661 0 7.18672)
(6.40647 0 8.37236)
(7.04619 0 8.02426)
(5.91288 0 9.46579)
(6.76047 0 9.04244)
(5.19268 0 10.907)
(6.45828 0 10.3567)
(3.88069 0 13.1741)
(6.18397 0 12.3017)
(5.25012 0 16.3644)
(0.193234 0 -0.115098)
(0.113818 0 -0.189261)
(0.3773 0 -0.0977651)
(0.276257 0 -0.176024)
(0.52862 0 -0.0744033)
(0.438299 0 -0.14129)
(0.645996 0 -0.0531368)
(0.574417 0 -0.107008)
(0.733088 0 -0.0352779)
(0.679851 0 -0.0775234)
(0.793843 0 -0.0204981)
(0.75825 0 -0.0528026)
(0.8316 0 -0.00823984)
(0.814089 0 -0.0320398)
(0.849178 0 0.00185768)
(0.850776 0 -0.0145647)
(0.849845 0 0.00946936)
(0.870765 0 -0.000539028)
(0.834891 0 0.0146998)
(0.876033 0 0.0118117)
(0.808111 0 0.0183073)
(0.867267 0 0.020653)
(0.772057 0 0.0205605)
(0.847183 0 0.0271486)
(0.729429 0 0.021547)
(0.818537 0 0.0313402)
(0.682992 0 0.0213522)
(0.784095 0 0.0333348)
(0.635458 0 0.0201128)
(0.746631 0 0.0333165)
(0.589313 0 0.0180371)
(0.708816 0 0.0315792)
(0.546626 0 0.0154124)
(0.673015 0 0.028522)
(0.508889 0 0.0125838)
(0.641077 0 0.0246196)
(0.476883 0 0.00989373)
(0.614154 0 0.0203876)
(0.45062 0 0.0076101)
(0.592607 0 0.0163342)
(0.429436 0 0.00586475)
(0.576028 0 0.012864)
(0.412281 0 0.00463435)
(0.563462 0 0.0101712)
(0.398112 0 0.0037837)
(0.553796 0 0.00820287)
(0.386177 0 0.00315625)
(0.546133 0 0.00674556)
(0.376049 0 0.00264811)
(0.539949 0 0.00558996)
(0.367474 0 0.00222217)
(0.534997 0 0.00462065)
(0.360233 0 0.00188324)
(0.531122 0 0.00380927)
(0.354055 0 0.00163453)
(0.52812 0 0.00317372)
(0.348646 0 0.00136663)
(0.525675 0 0.00271309)
(0.523114 0 0.00212575)
(0.179558 0 -0.275213)
(0.0956346 0 -0.365127)
(0.351885 0 -0.240794)
(0.24691 0 -0.340821)
(0.496797 0 -0.190238)
(0.389582 0 -0.276598)
(0.61371 0 -0.143442)
(0.510844 0 -0.213593)
(0.706283 0 -0.103808)
(0.607314 0 -0.159926)
(0.778178 0 -0.0706948)
(0.682644 0 -0.115288)
(0.832413 0 -0.0428662)
(0.740562 0 -0.0780621)
(0.871273 0 -0.0192763)
(0.783804 0 -0.046762)
(0.89544 0 0.000579103)
(0.81423 0 -0.0200894)
(0.906889 0 0.0166868)
(0.833424 0 0.00276807)
(0.904829 0 0.0290794)
(0.841454 0 0.0222418)
(0.892344 0 0.0379266)
(0.839002 0 0.0365497)
(0.872111 0 0.0433624)
(0.828498 0 0.0462158)
(0.846912 0 0.0455974)
(0.81239 0 0.0514241)
(0.819498 0 0.0449845)
(0.793148 0 0.0525307)
(0.792384 0 0.0420332)
(0.773137 0 0.0501346)
(0.76766 0 0.0373873)
(0.754424 0 0.0450421)
(0.746784 0 0.0317852)
(0.738583 0 0.0382388)
(0.730478 0 0.0259964)
(0.726551 0 0.030774)
(0.718679 0 0.020702)
(0.718531 0 0.0236729)
(0.710676 0 0.0163447)
(0.714022 0 0.0177234)
(0.705457 0 0.0130333)
(0.712051 0 0.0132657)
(0.702102 0 0.0105843)
(0.711581 0 0.0101455)
(0.700027 0 0.00870351)
(0.71188 0 0.0079182)
(0.698944 0 0.00716629)
(0.712612 0 0.00618786)
(0.698688 0 0.00587377)
(0.713675 0 0.00475856)
(0.699083 0 0.0048204)
(0.715003 0 0.00360133)
(0.699873 0 0.00402654)
(0.716447 0 0.00276799)
(0.700697 0 0.00343365)
(0.717717 0 0.00229972)
(0.718426 0 0.00222616)
(0.153084 0 -0.437118)
(0.0755421 0 -0.515063)
(0.29559 0 -0.383468)
(0.204105 0 -0.4771)
(0.413625 0 -0.306308)
(0.314095 0 -0.386809)
(0.508772 0 -0.235507)
(0.407962 0 -0.300336)
(0.584835 0 -0.175851)
(0.482224 0 -0.227632)
(0.644861 0 -0.126194)
(0.541009 0 -0.167458)
(0.691245 0 -0.0846934)
(0.587044 0 -0.117423)
(0.725886 0 -0.0496901)
(0.622229 0 -0.0754635)
(0.750481 0 -0.0195776)
(0.648007 0 -0.0399858)
(0.766286 0 0.00624144)
(0.665663 0 -0.0097158)
(0.773881 0 0.0271047)
(0.677347 0 0.0163845)
(0.773622 0 0.0425029)
(0.68094 0 0.0367448)
(0.767479 0 0.0523894)
(0.678728 0 0.0507321)
(0.757626 0 0.0570335)
(0.672773 0 0.0584972)
(0.746148 0 0.0570112)
(0.665 0 0.0605754)
(0.73491 0 0.0531586)
(0.657123 0 0.0578254)
(0.725401 0 0.0465179)
(0.650525 0 0.0513956)
(0.718649 0 0.0382889)
(0.646158 0 0.0426437)
(0.715071 0 0.0297418)
(0.644469 0 0.0330531)
(0.714416 0 0.022017)
(0.645315 0 0.0240804)
(0.715893 0 0.0158526)
(0.647969 0 0.0168263)
(0.718511 0 0.0114023)
(0.651339 0 0.0117136)
(0.721487 0 0.0083152)
(0.654382 0 0.00842228)
(0.724451 0 0.00607935)
(0.656523 0 0.00624282)
(0.727291 0 0.00433627)
(0.657693 0 0.00462063)
(0.729965 0 0.0029507)
(0.658042 0 0.00331749)
(0.732395 0 0.00193828)
(0.6577 0 0.00232318)
(0.734403 0 0.00137513)
(0.656717 0 0.00173619)
(0.735678 0 0.00138502)
(0.655059 0 0.00166055)
(0.652101 0 0.00231964)
(0.124025 0 -0.564571)
(0.0553925 0 -0.636538)
(0.231393 0 -0.490374)
(0.155797 0 -0.579776)
(0.316676 0 -0.390562)
(0.227028 0 -0.46644)
(0.38484 0 -0.301326)
(0.290052 0 -0.362479)
(0.439657 0 -0.226958)
(0.338037 0 -0.276427)
(0.483345 0 -0.16523)
(0.376558 0 -0.205427)
(0.517535 0 -0.113633)
(0.407042 0 -0.146436)
(0.543444 0 -0.0701208)
(0.430574 0 -0.0969302)
(0.562094 0 -0.0331665)
(0.448053 0 -0.0550727)
(0.574698 0 -0.0018212)
(0.459805 0 -0.0196714)
(0.582086 0 0.0238604)
(0.468908 0 0.0106866)
(0.583998 0 0.0431128)
(0.471604 0 0.0353047)
(0.582238 0 0.0555049)
(0.470459 0 0.0520267)
(0.578737 0 0.0613037)
(0.467714 0 0.06101)
(0.575022 0 0.0612772)
(0.464929 0 0.063179)
(0.572248 0 0.0565163)
(0.463063 0 0.0597238)
(0.571194 0 0.0483844)
(0.462617 0 0.0521)
(0.572233 0 0.0384709)
(0.463688 0 0.0419663)
(0.575252 0 0.0284543)
(0.465997 0 0.0311298)
(0.579574 0 0.0197992)
(0.468878 0 0.0213924)
(0.584085 0 0.0133595)
(0.471296 0 0.0140872)
(0.587618 0 0.00916034)
(0.472062 0 0.00961866)
(0.589493 0 0.00656898)
(0.470243 0 0.00733691)
(0.589657 0 0.0048465)
(0.465741 0 0.00615006)
(0.588331 0 0.00355445)
(0.459126 0 0.00535221)
(0.585744 0 0.00257039)
(0.451066 0 0.00471157)
(0.582088 0 0.00195562)
(0.44204 0 0.00424691)
(0.577518 0 0.00179919)
(0.432328 0 0.00408375)
(0.572214 0 0.00225542)
(0.422206 0 0.00432085)
(0.410408 0 0.00488774)
(0.0903578 0 -0.65954)
(0.0342942 0 -0.725038)
(0.158653 0 -0.564048)
(0.10137 0 -0.645088)
(0.20774 0 -0.446434)
(0.129106 0 -0.512273)
(0.24596 0 -0.345016)
(0.159397 0 -0.397323)
(0.276515 0 -0.261512)
(0.177986 0 -0.303624)
(0.300835 0 -0.192396)
(0.193203 0 -0.226565)
(0.319912 0 -0.134635)
(0.204812 0 -0.162624)
(0.334402 0 -0.0858716)
(0.213536 0 -0.108936)
(0.344739 0 -0.0444615)
(0.219933 0 -0.0634348)
(0.351764 0 -0.00906855)
(0.223833 0 -0.0252206)
(0.355522 0 0.0203792)
(0.226527 0 0.00778855)
(0.355028 0 0.0424105)
(0.225195 0 0.0356768)
(0.353275 0 0.0561988)
(0.2223 0 0.0533154)
(0.351862 0 0.0622298)
(0.219916 0 0.0620246)
(0.351572 0 0.0616272)
(0.218662 0 0.063382)
(0.352655 0 0.0558299)
(0.218175 0 0.0589827)
(0.35492 0 0.0465119)
(0.217598 0 0.0505864)
(0.357817 0 0.0355154)
(0.215774 0 0.0400766)
(0.360532 0 0.0247764)
(0.211592 0 0.0294004)
(0.361856 0 0.0160443)
(0.204625 0 0.020569)
(0.360496 0 0.0103727)
(0.195026 0 0.0149131)
(0.355395 0 0.00764575)
(0.183088 0 0.0126427)
(0.34657 0 0.00678056)
(0.169452 0 0.0124458)
(0.335 0 0.00668081)
(0.154826 0 0.0126902)
(0.321668 0 0.00672052)
(0.139462 0 0.0127095)
(0.307367 0 0.00669369)
(0.123917 0 0.012418)
(0.292504 0 0.00670307)
(0.10854 0 0.0120665)
(0.277277 0 0.00697753)
(0.0933694 0 0.0119057)
(0.262255 0 0.00734805)
(0.0782648 0 0.0118556)
(0.0626795 0 0.0107314)
(0.0520566 0 -0.717502)
(0.0113126 0 -0.776024)
(0.0770364 0 -0.60054)
(0.0398797 0 -0.668976)
(0.0877703 0 -0.469939)
(0.021405 0 -0.522296)
(0.0937622 0 -0.36189)
(0.0165201 0 -0.402785)
(0.0969073 0 -0.273846)
(0.00287415 0 -0.306424)
(0.0983674 0 -0.201359)
(-0.00886239 0 -0.227834)
(0.098698 0 -0.141018)
(-0.0201518 0 -0.162905)
(0.0983136 0 -0.0902922)
(-0.0302743 0 -0.108618)
(0.0976918 0 -0.0476151)
(-0.0390182 0 -0.0629317)
(0.0963263 0 -0.0108774)
(-0.0475496 0 -0.0241421)
(0.0923804 0 0.0212872)
(-0.0589825 0 0.0108317)
(0.0882426 0 0.0454313)
(-0.0635209 0 0.0387925)
(0.0853295 0 0.0589514)
(-0.0687628 0 0.0554572)
(0.0839199 0 0.0635943)
(-0.0729918 0 0.0630365)
(0.0832604 0 0.0615051)
(-0.0771574 0 0.0638442)
(0.0819182 0 0.0547462)
(-0.0825908 0 0.0599012)
(0.0781664 0 0.0453204)
(-0.0905323 0 0.0530932)
(0.0702751 0 0.0352628)
(-0.101933 0 0.0452249)
(0.0572519 0 0.0265361)
(-0.117251 0 0.037696)
(0.0396656 0 0.0206231)
(-0.135907 0 0.0315067)
(0.0191543 0 0.0180206)
(-0.156516 0 0.0273686)
(-0.00198265 0 0.017854)
(-0.177666 0 0.0251751)
(-0.0221649 0 0.0184233)
(-0.19787 0 0.0241294)
(-0.0411479 0 0.0185787)
(-0.216404 0 0.0234201)
(-0.0587275 0 0.0181422)
(-0.233415 0 0.0224114)
(-0.0750038 0 0.0174573)
(-0.248801 0 0.0211885)
(-0.0902981 0 0.016991)
(-0.262664 0 0.0201132)
(-0.104975 0 0.0166339)
(-0.275408 0 0.0194453)
(-0.118584 0 0.0151451)
(-0.287648 0 0.0186815)
(-0.298333 0 0.0163523)
(0.00563921 0 -0.732957)
(-0.0156745 0 -0.781547)
(-0.0139556 0 -0.595554)
(-0.0307108 0 -0.650237)
(-0.0428967 0 -0.457219)
(-0.0948435 0 -0.495273)
(-0.0718711 0 -0.347978)
(-0.139445 0 -0.37637)
(-0.0999651 0 -0.260166)
(-0.187703 0 -0.281416)
(-0.125678 0 -0.188946)
(-0.230146 0 -0.205486)
(-0.148486 0 -0.130407)
(-0.267929 0 -0.14355)
(-0.168311 0 -0.0813427)
(-0.300694 0 -0.0921919)
(-0.186302 0 -0.0387923)
(-0.328673 0 -0.0483779)
(-0.204639 0 -0.00130143)
(-0.353835 0 -0.00965848)
(-0.218472 0 0.0289572)
(-0.375432 0 0.0215002)
(-0.225702 0 0.0493745)
(-0.384549 0 0.0442368)
(-0.231092 0 0.0606077)
(-0.393224 0 0.0594203)
(-0.23706 0 0.0647049)
(-0.401161 0 0.0673204)
(-0.245089 0 0.0636919)
(-0.410154 0 0.0694719)
(-0.256199 0 0.0593932)
(-0.421385 0 0.0675038)
(-0.270787 0 0.0533947)
(-0.435364 0 0.0628404)
(-0.288507 0 0.0470472)
(-0.451945 0 0.0567855)
(-0.308589 0 0.0413139)
(-0.47059 0 0.0504881)
(-0.330065 0 0.0367229)
(-0.490543 0 0.0448635)
(-0.351773 0 0.0334568)
(-0.510882 0 0.0405508)
(-0.372666 0 0.0313111)
(-0.530746 0 0.0375627)
(-0.391948 0 0.0297083)
(-0.549309 0 0.0352923)
(-0.40905 0 0.0280655)
(-0.566065 0 0.0330865)
(-0.423877 0 0.0262323)
(-0.580629 0 0.0305941)
(-0.436584 0 0.0244647)
(-0.592869 0 0.0280361)
(-0.447551 0 0.0230186)
(-0.603061 0 0.0258833)
(-0.457043 0 0.0216579)
(-0.611841 0 0.0243211)
(-0.465147 0 0.0198377)
(-0.619743 0 0.022746)
(-0.625331 0 0.0207192)
(-0.0428083 0 -0.699665)
(-0.0487132 0 -0.739619)
(-0.11201 0 -0.547749)
(-0.110458 0 -0.58406)
(-0.183047 0 -0.4096)
(-0.2211 0 -0.428944)
(-0.251858 0 -0.303752)
(-0.309447 0 -0.313637)
(-0.314756 0 -0.220851)
(-0.394017 0 -0.225429)
(-0.370694 0 -0.154754)
(-0.4679 0 -0.15687)
(-0.419585 0 -0.100715)
(-0.531475 0 -0.102062)
(-0.461792 0 -0.0553098)
(-0.585314 0 -0.0572217)
(-0.498008 0 -0.0165972)
(-0.630617 0 -0.0190797)
(-0.525507 0 0.0148594)
(-0.665708 0 0.0120615)
(-0.543855 0 0.03859)
(-0.688661 0 0.0356505)
(-0.556483 0 0.0556811)
(-0.704439 0 0.0537455)
(-0.566545 0 0.0665808)
(-0.716893 0 0.0668186)
(-0.576501 0 0.0717794)
(-0.727666 0 0.0744672)
(-0.58784 0 0.0725191)
(-0.738581 0 0.0774194)
(-0.601173 0 0.0699946)
(-0.750704 0 0.076628)
(-0.61647 0 0.0653133)
(-0.764386 0 0.0730614)
(-0.633318 0 0.059583)
(-0.779466 0 0.0677769)
(-0.651235 0 0.0538536)
(-0.7956 0 0.0619014)
(-0.669815 0 0.0489223)
(-0.812473 0 0.0564188)
(-0.688505 0 0.0450823)
(-0.829723 0 0.0519004)
(-0.706566 0 0.0420324)
(-0.846835 0 0.0482713)
(-0.723215 0 0.0391729)
(-0.863102 0 0.0449307)
(-0.737728 0 0.0360695)
(-0.877732 0 0.0412896)
(-0.749757 0 0.0327681)
(-0.890061 0 0.0372329)
(-0.759414 0 0.0297127)
(-0.899851 0 0.03324)
(-0.767146 0 0.0272562)
(-0.907461 0 0.0299511)
(-0.77344 0 0.025249)
(-0.913715 0 0.0275542)
(-0.779104 0 0.0234201)
(-0.919123 0 0.0255868)
(-0.922412 0 0.0240382)
(-0.0984495 0 -0.616966)
(-0.0899675 0 -0.643194)
(-0.218604 0 -0.455585)
(-0.201939 0 -0.469155)
(-0.337377 0 -0.322568)
(-0.364119 0 -0.318044)
(-0.447354 0 -0.225757)
(-0.49647 0 -0.213374)
(-0.544374 0 -0.153648)