/*--------------------------------*- C++ -*----------------------------------*\
  =========                 |
  \\      /  F ield         | OpenFOAM: The Open Source CFD Toolbox
   \\    /   O peration     | Website:  https://openfoam.org
    \\  /    A nd           | Version:  dev
     \\/     M anipulation  |
\*---------------------------------------------------------------------------*/
FoamFile
{
    version     2.0;
    format      ascii;
    class       volScalarField;
    location    "2.2";
    object      p;
}
// * * * * * * * * * * * * * * * * * * * * * * * * * * * * * * * * * * * * * //

dimensions      [0 2 -2 0 0 0 0];

internalField   nonuniform List<scalar> 
2790
(
148.625
148.532
148.8
149.371
150.152
151.11
152.243
153.55
155.027
156.669
158.469
160.42
162.515
164.74
167.081
169.516
172.021
174.56
177.091
179.565
181.923
184.1
186.03
187.65
188.909
189.783
190.219
190.274
190.325
190.538
148.422
148.44
148.732
149.301
150.077
151.032
152.161
153.462
154.932
156.565
158.356
160.297
162.381
164.595
166.925
169.35
171.846
174.379
176.909
179.387
181.755
183.95
185.904
187.552
188.836
189.71
190.106
190.161
190.293
190.578
148.223
148.311
148.622
149.181
149.944
150.886
152
153.283
154.731
156.34
158.103
160.013
162.061
164.237
166.526
168.908
171.36
173.851
176.343
178.79
181.139
183.331
185.303
186.993
188.343
189.318
189.911
190.266
190.581
190.88
147.998
148.117
148.441
148.99
149.739
150.665
151.759
153.018
154.438
156.013
157.737
159.603
161.602
163.723
165.952
168.27
170.655
173.078
175.505
177.895
180.202
182.373
184.354
186.094
187.548
188.699
189.567
190.237
190.79
191.309
147.737
147.87
148.202
148.744
149.477
150.381
151.45
152.677
154.06
155.592
157.267
159.077
161.013
163.064
165.216
167.452
169.751
172.086
174.427
176.74
178.985
181.12
183.101
184.892
186.461
187.804
188.933
189.895
190.706
191.453
147.436
147.574
147.909
148.441
149.154
150.033
151.069
152.259
153.597
155.078
156.693
158.437
160.298
162.267
164.328
166.467
168.662
170.891
173.128
175.343
177.506
179.583
181.544
183.365
185.027
186.528
187.874
189.079
190.099
191.017
147.093
147.232
147.564
148.083
148.773
149.622
150.621
151.767
153.054
154.475
156.023
157.689
159.465
161.338
163.296
165.322
167.398
169.504
171.617
173.713
175.768
177.759
179.666
181.476
183.182
184.782
186.275
187.654
188.818
189.864
146.708
146.846
147.17
147.673
148.337
149.151
150.109
151.206
152.434
153.788
155.259
156.839
158.519
160.285
162.126
164.026
165.967
167.932
169.9
171.852
173.769
175.636
177.443
179.185
180.863
182.482
184.036
185.508
186.757
187.908
146.282
146.415
146.729
147.213
147.848
148.624
149.536
150.577
151.742
153.021
154.408
155.894
157.467
159.116
160.827
162.586
164.377
166.18
167.98
169.759
171.503
173.201
174.848
176.449
178.01
179.544
181.052
182.522
183.793
185.031
145.815
145.943
146.244
146.705
147.308
148.043
148.905
149.887
150.981
152.181
153.476
154.859
156.316
157.838
159.408
161.013
162.635
164.258
165.864
167.438
168.967
170.441
171.859
173.227
174.56
175.878
177.198
178.535
179.735
181.039
145.309
145.431
145.717
146.153
146.721
147.412
148.22
149.138
150.158
151.271
152.469
153.741
155.076
156.46
157.878
159.315
160.753
162.175
163.563
164.898
166.166
167.357
168.464
169.492
170.456
171.385
172.315
173.313
174.274
175.592
144.767
144.881
145.15
145.559
146.09
146.734
147.485
148.335
149.276
150.299
151.394
152.55
153.754
154.992
156.249
157.506
158.746
159.948
161.091
162.154
163.116
163.959
164.668
165.234
165.661
165.971
166.213
166.521
166.902
168.074
144.189
144.296
144.546
144.926
145.419
146.014
146.704
147.483
148.342
149.271
150.258
151.293
152.36
153.446
154.532
155.6
156.628
157.593
158.47
159.23
159.845
160.28
160.504
160.48
160.177
159.58
158.705
157.712
156.762
157.266
143.58
143.678
143.909
144.258
144.71
145.254
145.882
146.588
147.361
148.192
149.069
149.978
150.905
151.833
152.743
153.613
154.42
155.136
155.728
156.162
156.394
156.373
156.036
155.306
154.085
152.257
149.694
146.392
142.44
140.4
142.94
143.03
143.24
143.558
143.967
144.458
145.023
145.654
146.34
147.071
147.834
148.615
149.398
150.165
150.894
151.563
152.142
152.6
152.898
152.991
152.82
152.312
151.37
149.858
147.582
144.253
139.412
132.396
121.927
109.686
3.73609
3.69129
3.54812
3.34577
3.12186
2.89369
2.66766
2.44701
2.23399
2.03005
1.83641
1.65513
1.48987
1.34529
1.22457
1.12701
1.05072
0.997128
0.967639
0.955399
0.951501
0.949824
0.944946
0.929598
0.895187
0.833102
0.736888
0.59952
0.412552
0.173436
3.62474
3.5732
3.4404
3.25449
3.04612
2.83081
2.61531
2.40335
2.19739
1.99898
1.80934
1.63073
1.46731
1.3248
1.20708
1.11293
1.03903
0.987194
0.959253
0.9486
0.946451
0.947391
0.945909
0.9339
0.90181
0.841341
0.747201
0.612262
0.425405
0.175695
3.51869
3.45903
3.33235
3.15978
2.96602
2.76347
2.55873
2.35585
2.15746
1.96516
1.77983
1.60386
1.44199
1.30167
1.18749
1.09186
1.01334
0.968625
0.952974
0.951182
0.953772
0.957584
0.957683
0.946292
0.913954
0.851237
0.752844
0.614672
0.424237
0.172754
3.43468
3.36672
3.24324
3.07983
2.8975
2.70548
2.50992
2.31505
2.1238
1.93791
1.7573
1.58384
1.42065
1.2778
1.17346
1.10083
1.02564
0.965332
0.942784
0.944136
0.951821
0.958943
0.960107
0.948627
0.915796
0.852977
0.753025
0.609074
0.414464
0.162616
3.40309
3.32714
3.20616
3.04788
2.87221
2.68629
2.49614
2.30596
2.11902
1.93803
1.76251
1.59665
1.44373
1.30686
1.18834
1.09711
1.03423
0.985613
0.961403
0.956086
0.958639
0.961323
0.957678
0.94094
0.903441
0.837088
0.733486
0.588086
0.394017
0.144785
3.44335
3.35754
3.23533
3.07577
2.89922
2.71285
2.52281
2.3333
2.14743
1.96746
1.79456
1.63117
1.48008
1.34415
1.22834
1.13473
1.06379
1.01306
0.983302
0.969402
0.963117
0.957211
0.945175
0.920454
0.876034
0.804394
0.697784
0.552662
0.363321
0.127558
3.55781
3.4598
3.32645
3.15674
2.97032
2.77591
2.5798
2.38618
2.19776
2.0165
1.84284
1.67753
1.52469
1.38874
1.27232
1.17628
1.10021
1.04337
1.00482
0.980004
0.962277
0.945133
0.922478
0.888215
0.83582
0.758456
0.64977
0.506349
0.324659
0.110383
3.72842
3.60725
3.45189
3.26265
3.05887
2.85073
2.6448
2.44464
2.25159
2.06601
1.89025
1.72567
1.57385
1.43746
1.31881
1.21872
1.13679
1.07216
1.02325
0.986181
0.955525
0.925632
0.891062
0.846396
0.785761
0.703077
0.593142
0.452585
0.281194
0.0932727
3.90631
3.75216
3.56732
3.35613
3.13593
2.91531
2.69964
2.49259
2.29609
2.11032
1.93482
1.77073
1.61947
1.48269
1.36185
1.25751
1.16929
1.09622
1.03648
0.986803
0.942762
0.899603
0.85267
0.79738
0.728775
0.641542
0.531107
0.39436
0.235418
0.0761612
4.03273
3.85792
3.65005
3.4185
3.18367
2.95487
2.73534
2.52631
2.32873
2.14325
1.96931
1.80699
1.65698
1.5203
1.39782
1.28972
1.1955
1.1141
1.04375
0.98174
0.924537
0.868248
0.809057
0.743349
0.667285
0.576318
0.466052
0.333899
0.188857
0.0590828
4.11278
3.91357
3.68601
3.43947
3.19417
2.95988
2.73973
2.53328
2.33985
2.15891
1.98953
1.83109
1.68377
1.54825
1.42509
1.31418
1.21474
1.12563
1.04532
0.971655
0.901903
0.832984
0.761931
0.686191
0.603187
0.509184
0.399636
0.272645
0.142265
0.0420997
4.11002
3.8733
3.62673
3.37577
3.13631
2.91258
2.70431
2.5093
2.32641
2.15508
1.99406
1.84213
1.69921
1.56616
1.44356
1.33105
1.22748
1.13161
1.04219
0.95772
0.876198
0.795286
0.712831
0.627391
0.537789
0.441239
0.332866
0.211434
0.0959764
0.0252451
3.91256
3.6533
3.42555
3.20725
3.00149
2.80923
2.62849
2.45524
2.28952
2.13291
1.98425
1.84142
1.70441
1.57498
1.45425
1.34154
1.23511
1.1335
1.03585
0.941397
0.848876
0.756584
0.663085
0.568052
0.471866
0.372952
0.266131
0.150619
0.0500821
0.00852355
3.44311
3.17564
3.04521
2.92862
2.79413
2.65671
2.52057
2.37847
2.23434
2.09639
1.96391
1.83234
1.7019
1.57666
1.45901
1.34768
1.23974
1.13331
1.02813
0.924334
0.821419
0.718187
0.613764
0.508881
0.405655
0.30415
0.199276
0.090219
0.00458862
-0.0080816
2.55269
2.29363
2.44258
2.5661
2.5393
2.47337
2.39863
2.29336
2.16867
2.05093
1.93868
1.81994
1.69508
1.57352
1.45999
1.35189
1.24385
1.13322
1.0208
0.908015
0.795105
0.681175
0.565665
0.450235
0.338928
0.234159
0.131786
0.0301396
-0.0403368
-0.0246563
142.26
142.341
142.53
142.815
143.18
143.616
144.115
144.667
145.264
145.892
146.538
147.187
147.822
148.424
148.968
149.429
149.774
149.968
149.964
149.707
149.124
148.118
146.558
144.249
140.892
135.991
128.626
116.878
94.7052
34.8058
141.532
141.604
141.77
142.02
142.34
142.719
143.148
143.62
144.123
144.644
145.17
145.684
146.167
146.599
146.953
147.202
147.311
147.237
146.929
146.323
145.333
143.848
141.707
138.681
134.412
128.316
119.361
105.815
86.3234
57.9578
140.762
140.824
140.967
141.181
141.453
141.773
142.132
142.521
142.928
143.341
143.744
144.12
144.45
144.71
144.875
144.912
144.786
144.449
143.846
142.908
141.542
139.628
137.002
133.435
128.602
122.05
113.192
101.397
87.2316
70.7489
139.951
140.002
140.121
140.299
140.522
140.782
141.069
141.374
141.685
141.988
142.267
142.505
142.682
142.773
142.75
142.581
142.226
141.639
140.76
139.519
137.823
135.556
132.567
128.659
123.587
117.061
108.786
98.4381
85.9607
70.9237
139.1
139.141
139.236
139.376
139.55
139.749
139.964
140.184
140.398
140.591
140.748
140.85
140.875
140.8
140.596
140.229
139.659
138.839
137.712
136.207
134.238
131.7
128.465
124.376
119.255
112.904
105.124
95.6776
84.3988
71.4969
138.213
138.243
138.313
138.415
138.54
138.678
138.82
138.956
139.074
139.159
139.195
139.163
139.042
138.808
138.431
137.878
137.11
136.081
134.736
133.011
130.828
128.098
124.715
120.561
115.507
109.419
102.177
93.6822
83.9288
73.3297
137.291
137.31
137.356
137.42
137.496
137.573
137.643
137.696
137.719
137.698
137.617
137.456
137.196
136.81
136.272
135.549
134.603
133.391
131.863
129.962
127.621
124.767
121.319
117.189
112.292
106.548
99.9056
92.3539
83.9377
74.9919
136.337
136.347
136.368
136.395
136.421
136.439
136.439
136.41
136.341
136.217
136.023
135.74
135.348
134.822
134.136
133.259
132.157
130.79
129.114
127.079
124.632
121.715
118.267
114.228
109.547
104.184
98.1247
91.3911
84.0331
76.3215
135.357
135.356
135.353
135.343
135.322
135.281
135.212
135.105
134.947
134.726
134.425
134.027
133.512
132.857
132.038
131.026
129.79
128.296
126.505
124.376
121.868
118.935
115.537
111.634
107.199
102.216
96.6933
90.6637
84.1813
77.4723
134.352
134.341
134.315
134.27
134.202
134.104
133.969
133.787
133.545
133.231
132.83
132.325
131.698
130.928
129.991
128.863
127.517
125.921
124.046
121.858
119.326
116.416
113.102
109.362
105.184
100.567
95.5313
90.1147
84.3703
78.4823
133.329
133.309
133.259
133.18
133.067
132.916
132.718
132.463
132.142
131.742
131.248
130.646
129.918
129.046
128.008
126.783
125.347
123.675
121.743
119.525
116.998
114.14
110.934
107.371
103.448
99.1763
94.5783
89.6934
84.5693
79.3539
132.292
132.262
132.191
132.079
131.924
131.721
131.463
131.142
130.747
130.267
129.689
128.999
128.182
127.221
126.097
124.793
123.288
121.562
119.597
117.373
114.875
112.088
109.005
105.623
101.948
97.9933
93.7854
89.3597
84.7581
80.0992
131.246
131.207
131.116
130.972
130.777
130.527
130.214
129.83
129.367
128.815
128.161
127.393
126.498
125.461
124.267
122.9
121.344
119.584
117.605
115.395
112.942
110.241
107.287
104.085
100.643
96.9784
93.1157
89.0868
84.9275
80.7336
130.197
130.15
130.04
129.867
129.634
129.339
128.975
128.535
128.01
127.393
126.672
125.836
124.875
123.775
122.524
121.109
119.518
117.74
115.764
113.582
111.187
108.578
105.756
102.727
99.5028
96.1001
92.5419
88.8562
85.0732
81.2706
129.151
129.097
128.968
128.769
128.502
128.166
127.755
127.263
126.684
126.008
125.228
124.335
123.318
122.167
120.872
119.423
117.812
116.029
114.068
111.925
109.596
107.083
104.39
101.526
98.5013
95.3337
92.0435
88.655
85.1934
81.722
128.115
128.054
127.909
127.685
127.386
127.013
126.56
126.022
125.394
124.668
123.838
122.895
121.832
120.641
119.314
117.843
116.222
114.446
112.51
110.413
108.155
105.739
103.171
100.459
97.6172
94.6598
91.6052
88.4743
85.2883
82.0988
127.096
127.028
126.868
126.621
126.294
125.888
125.398
124.819
124.148
123.379
122.506
121.523
120.424
119.203
117.853
116.37
114.749
112.987
111.083
109.037
106.851
104.53
102.08
99.5104
96.8335
94.0632
91.2155
88.3082
85.3591
82.4107
126.099
126.025
125.852
125.586
125.234
124.797
124.274
123.661
122.953
122.148
121.239
120.224
119.097
117.853
116.489
115.002
113.389
111.648
109.781
107.788
105.674
103.444
101.104
98.6646
96.1364
93.5321
90.8659
88.1528
85.408
82.6664
125.133
125.054
124.869
124.585
124.21
123.748
123.197
122.553
121.815
120.979
120.042
119.001
117.853
116.595
115.224
113.739
112.139
110.424
108.596
106.658
104.613
102.469
100.231
97.91
95.515
93.0577
90.5504
88.006
85.4375
82.8737
124.205
124.122
123.926
123.626
123.232
122.748
122.172
121.503
120.738
119.878
118.918
117.858
116.696
115.429
114.057
112.579
110.997
109.311
107.523
105.638
103.66
101.596
99.4519
97.2371
94.9608
92.633
90.2646
87.8668
85.4504
83.0396
123.322
123.235
123.03
122.717
122.306
121.803
121.206
120.516
119.731
118.85
117.874
116.8
115.628
114.357
112.989
111.522
109.96
108.303
106.556
104.722
102.807
100.816
98.7575
96.6382
94.467
92.253
90.0057
87.7348
85.4497
83.1704
122.493
122.402
122.189
121.864
121.44
120.92
120.306
119.599
118.797
117.901
116.912
115.828
114.651
113.381
112.019
110.566
109.025
107.399
105.691
103.905
102.048
100.125
98.142
96.1075
94.0289
91.9143
89.7721
87.6108
85.4386
83.2722
121.725
121.631
121.411
121.076
120.64
120.107
119.479
118.757
117.942
117.035
116.036
114.947
113.769
112.502
111.148
109.711
108.192
106.594
104.923
103.183
101.378
99.515
97.6002
95.6403
93.6425
91.6141
89.5626
87.4954
85.4198
83.3498
121.026
120.93
120.704
120.36
119.913
119.369
118.73
117.998
117.173
116.257
115.253
114.161
112.983
111.721
110.378
108.956
107.458
105.889
104.251
102.552
100.794
98.9846
97.1292
95.2342
93.3062
91.3519
89.3779
87.391
85.3975
83.4092
120.406
120.307
120.075
119.724
119.268
118.715
118.067
117.326
116.493
115.572
114.564
113.471
112.295
111.04
109.707
108.3
106.823
105.279
103.673
102.009
100.293
98.5295
96.7254
94.8859
93.0173
91.1257
89.2171
87.2975
85.3726
83.4525
119.873
119.771
119.534
119.175
118.712
118.152
117.497
116.749
115.911
114.986
113.976
112.884
111.712
110.463
109.141
107.748
106.289
104.768
103.188
101.556
99.8749
98.1513
96.3903
94.5974
92.7784
90.9389
89.0844
87.2206
85.3526
83.4889
119.437
119.332
119.087
118.721
118.251
117.684
117.024
116.271
115.429
114.502
113.491
112.4
111.232
109.99
108.677
107.297
105.854
104.351
102.795
101.188
99.5362
97.8448
96.1188
94.3635
92.5842
90.7863
88.975
87.1552
85.3319
83.5121
119.11
118.999
118.746
118.373
117.898
117.327
116.662
115.905
115.061
114.132
113.122
112.032
110.868
109.631
108.326
106.957
105.526
104.04
102.501
100.915
99.2861
97.62
95.9213
94.1953
92.447
90.6814
88.9035
87.118
85.3299
83.545
118.908
118.773
118.502
118.123
117.646
117.073
116.405
115.647
114.802
113.872
112.863
111.775
110.614
109.382
108.083
106.721
105.3
103.824
102.298
100.726
99.1129
97.4637
95.7834
94.0768
92.3489
90.6045
88.8483
87.085
85.3189
83.5551
118.889
118.69
118.391
118.006
117.526
116.949
116.279
115.519
114.672
113.743
112.734
111.649
110.49
109.262
107.967
106.611
105.196
103.728
102.21
100.648
99.045
97.4069
95.7383
94.0441
92.329
90.5978
88.855
87.1053
85.3528
83.6019
-49.4663
-29.3573
-9.7575
37.7788
30.6559
19.26
53.4735
41.5826
30.6216
54.7789
44.4529
36.5165
59.0403
50.8276
44.1452
63.3725
56.5216
50.6822
66.5857
60.7453
55.7309
69.1239
64.1278
59.8422
71.2603
66.9482
63.255
73.0608
69.2957
66.0787
74.5717
71.2501
68.4191
75.8421
72.8846
70.369
76.9121
74.2563
72.0007
77.8134
75.41
73.371
78.5723
76.3819
74.5248
79.2103
77.201
75.498
79.7455
77.8911
76.3193
80.1929
78.4715
77.012
80.5652
78.9586
77.5953
80.8735
79.3658
78.0853
81.127
79.7049
78.4955
81.3344
79.9859
78.8375
81.5024
80.217
79.1207
81.6389
80.4073
79.355
81.7465
80.56
79.5447
81.8369
80.6877
79.7023
81.9015
80.7821
79.8213
81.9691
80.8723
79.9287
81.9994
80.9189
79.9893
82.0672
81.0008
80.0777
-0.248287
-0.0371872
1.3287
2.24662
2.31749
2.28249
2.28105
2.21794
2.09873
2.00093
1.91588
1.81146
1.68783
1.56767
1.45949
1.35725
1.25072
1.13597
1.01595
0.894003
0.771081
0.646226
0.518841
0.391379
0.270077
0.160712
0.061333
-0.0309818
-0.0856043
-0.0417812
5.71197
2.46962
3.12109
2.85752
2.01648
1.87146
2.163
2.2214
2.04554
1.95015
1.90275
1.81623
1.68254
1.55957
1.45939
1.36756
1.26452
1.14443
1.01522
0.883228
0.74985
0.613493
0.472978
0.331243
0.196906
0.0803643
-0.0157586
-0.0956349
-0.133666
-0.0600606
16.5073
8.0294
5.03617
3.1297
2.50057
2.64375
2.80697
2.33821
1.83165
1.78046
1.89419
1.86762
1.69055
1.55277
1.46216
1.3872
1.2899
1.16081
1.01978
0.877101
0.733446
0.585475
0.430394
0.271123
0.119135
-0.00876724
-0.101523
-0.162349
-0.177978
-0.0785398
25.8958
16.1056
10.3222
6.6598
4.63488
3.57803
2.88318
2.36293
2.12468
2.16122
2.23998
1.97647
1.62503
1.48177
1.44255
1.42035
1.33816
1.19134
1.03401
0.87945
0.724949
0.564254
0.392105
0.211321
0.036974
-0.106821
-0.197439
-0.231408
-0.21635
-0.0973385
34.8973
25.2155
17.9405
12.6364
8.92587
6.39018
4.67089
3.56217
2.88522
2.49248
2.2503
2.00959
1.80404
1.68434
1.6238
1.55708
1.40935
1.20985
1.03546
0.878342
0.72088
0.552965
0.366236
0.162126
-0.0414343
-0.212538
-0.311167
-0.314929
-0.254117
-0.11913
42.7441
33.8696
26.0135
19.5944
14.6603
10.9766
8.26635
6.29204
4.86007
3.8414
3.13282
2.6205
2.22892
1.94187
1.75406
1.623
1.48771
1.32714
1.15092
0.967512
0.778289
0.579263
0.360465
0.119722
-0.123884
-0.330889
-0.44069
-0.410431
-0.281364
-0.138897
49.1356
41.365
33.6199
26.7491
21.1181
16.621
13.0558
10.25
8.06787
6.39933
5.13674
4.1655
3.40139
2.81436
2.38374
2.06366
1.79615
1.54442
1.30053
1.06894
0.846368
0.621129
0.377185
0.107494
-0.169185
-0.403229
-0.524784
-0.49146
-0.317763
-0.18452
54.3405
47.6315
40.3959
33.5787
27.6907
22.7221
18.5523
15.088
12.2504
9.95581
8.11222
6.62662
5.42625
4.46691
3.71025
3.10717
2.60476
2.16533
1.77294
1.42114
1.09926
0.791468
0.481273
0.162388
-0.147765
-0.404227
-0.548362
-0.543228
-0.394485
-0.340308
58.5863
52.7815
46.2094
39.7419
33.9186
28.7896
24.2933
20.3925
17.0553
14.2334
11.8651
9.88445
8.23238
6.86132
5.72815
4.787
3.99172
3.3052
2.70381
2.17165
1.69312
1.25129
0.831316
0.428625
0.0581494
-0.244127
-0.434015
-0.48808
-0.437424
-0.558525
62.0491
56.9864
51.0884
45.1038
39.5421
34.48
29.8889
25.7649
22.1093
18.9064
16.1232
13.7187
11.6501
9.87761
8.36286
7.06667
5.94968
4.97717
4.12235
3.3647
2.68623
2.07004
1.50277
0.980188
0.512967
0.126249
-0.15217
-0.317377
-0.421836
-0.725076
64.8909
60.4314
55.1504
49.6776
44.4705
39.6112
35.0869
30.9094
27.0998
23.6643
20.5925
17.8635
15.4513
13.3281
11.4647
9.83018
8.39274
7.12245
5.99372
4.98539
4.07914
3.25882
2.51212
1.83417
1.23052
0.715504
0.301924
-0.0194297
-0.304504
-0.76914
67.2425
63.2754
58.5324
53.5451
48.7171
44.1258
39.7642
35.6494
31.811
28.2678
25.0241
22.0741
19.4057
17.0028
14.8463
12.9139
11.1821
9.6271
8.2271
6.96284
5.81734
4.77588
3.82713
2.96519
2.19095
1.50987
0.923881
0.416826
-0.0595909
-0.673517
69.2021
65.6409
61.3578
56.8077
52.346
48.0423
43.8902
39.9065
36.1228
32.5638
29.2421
26.1616
23.3205
20.7121
18.326
16.1485
14.1633
12.3533
10.7016
9.19212
7.81042
6.54371
5.38173
4.31785
3.34944
2.4758
1.69243
0.981676
0.306492
-0.457232
70.8438
67.6205
63.7288
59.563
55.4383
51.4159
47.4882
43.6694
39.9897
36.4753
33.1429
30.0023
27.0579
24.3101
21.7554
19.3866
17.1944
15.1672
13.293
11.5597
9.95568
8.47044
7.09495
5.82233
4.6478
3.56705
2.57251
1.64799
0.767026
-0.156493
72.2247
69.2852
65.7269
61.8956
58.0732
54.3135
50.607
46.9647
43.4139
39.9799
36.6811
33.53
30.535
27.7009
25.0292
22.5179
20.1626
17.957
15.8931
13.9625
12.1566
10.467
8.88623
7.40751
6.02509
4.7329
3.52241
2.37984
1.28673
0.188048
73.3893
70.6898
67.4162
63.8752
60.3206
56.8003
53.3027
49.8356
46.4229
43.0882
39.8497
36.7209
33.7124
30.8319
28.0838
25.4701
22.9902
20.6413
18.4194
16.3189
14.3341
12.4585
10.686
9.01047
7.42588
5.92556
4.50095
3.14045
1.83062
0.540253
74.3728
71.877
68.8475
65.5583
62.2396
58.9342
55.6292
52.3292
49.0547
45.8271
42.6635
39.5776
36.5807
33.682
30.8881
28.2035
25.6301
23.1682
20.8163
18.5718
16.4307
14.3887
12.4408
10.5816
8.80533
7.10514
5.4728
3.89805
2.36983
0.873778
75.2036
72.8813
70.0615
66.9905
63.8789
60.7649
57.6348
54.4904
51.3489
48.2293
45.1475
42.1164
39.1474
36.2503
33.4329
30.7012
28.0591
25.5089
23.0512
20.6853
18.4092
16.2199
14.1136
12.0857
10.1307
8.24186
6.41116
4.62882
2.88416
1.17356
75.9047
73.7305
71.091
68.2094
65.2789
62.3344
59.3615
56.3595
53.3429
50.3283
47.3299
44.3596
41.4285
38.5464
35.7215
32.9607
30.2693
27.6508
25.1075
22.64
20.2477
17.9291
15.6811
13.4999
11.3802
9.31559
7.29783
5.31708
3.36179
1.43422
76.4953
74.4475
71.9632
69.2455
66.4731
63.678
60.845
57.972
55.0706
52.1553
49.2385
46.3313
43.4436
40.5851
37.764
34.9877
32.2619
29.5913
26.979
24.4269
21.9354
19.5039
17.1301
14.8107
12.5409
10.314
8.12186
5.954
3.7975
1.65705
76.9913
75.0513
72.7004
70.1244
67.4895
64.8251
62.1161
59.3584
56.5617
53.7384
50.8995
48.0545
45.2127
42.3829
39.5734
36.7913
34.0428
31.333
28.6658
26.0436
23.4678
20.9383
18.4537
16.0108
13.6051
11.2301
8.87724
6.53531
4.19004
1.84646
77.4064
75.5581
73.3215
70.8677
68.3517
65.8012
63.2008
60.5455
57.8427
55.1033
52.3366
49.5511
46.7552
43.9568
41.1636
38.3828
35.6204
32.8818
30.1711
27.4914
24.8445
22.2307
19.6491
17.0969
14.5696
12.0608
9.56148
7.05993
4.54064
2.00778
77.7516
75.981
73.8418
71.4927
69.0789
66.6268
64.1209
61.5552
58.9356
56.2713
53.5705
50.8405
48.0885
45.322
42.5479
39.773
37.0033
34.2439
31.4993
28.7728
26.0663
23.3806
20.715
18.067
15.4321
12.8039
10.173
7.52728
4.85033
2.14485
78.0379
76.3325
74.2758
72.0155
69.6889
67.3208
64.8961
62.4079
59.8609
57.2628
54.6207
51.941
49.23
46.4942
43.7401
40.974
38.2015
35.4278
32.657
29.8927
27.1369
24.3906
21.6531
18.9222
16.1935
13.4603
10.7131
7.93924
5.12197
2.26182
78.2713
76.6201
74.6323
72.4465
70.193
67.8957
65.5397
63.1174
60.6324
58.0914
55.5006
52.8652
50.191
47.4837
44.7492
41.9931
39.2209
36.4374
33.6468
30.8523
28.0562
25.2594
22.4615
19.6601
16.8509
14.027
11.1789
8.29355
5.35398
2.35854
78.4637
76.8564
74.9253
72.8007
70.6074
68.3685
66.0693
63.7019
61.2687
58.7758
56.2283
53.631
50.9887
48.3066
45.59
42.8442
40.0741
37.2842
34.4787
31.6606
28.8322
25.9944
23.1466
20.2866
17.4099
14.5097
11.5761
8.59617
5.55248
2.44044
78.6118
77.0393
75.1529
73.0769
70.9314
68.739
66.4852
64.1616
61.7701
59.3159
56.8037
54.2375
51.6215
48.9606
46.2594
43.5228
40.7554
37.9616
35.1451
32.309
29.4554
26.5851
23.6975
20.7904
17.8592
14.897
11.8939
8.83648
5.70767
2.50054
78.7381
77.1912
75.3389
73.2997
71.1903
69.0331
66.8137
64.5234
62.1637
59.7392
57.2539
54.7116
52.1162
49.4717
46.7827
44.0537
41.289
38.4927
35.6683
32.8188
29.9463
27.0514
24.1336
21.1904
18.2173
15.2072
12.1501
9.03225
5.83642
2.55179
78.8154
77.2846
75.4545
73.4404
71.3555
69.2217
67.0253
64.7574
62.419
60.0143
57.5472
55.0211
52.4395
49.8063
47.1257
44.402
41.6392
38.8414
36.012
33.1538
30.2686
27.3573
24.4192
21.4517
18.4502
15.4074
12.313
9.1533
5.91061
2.57259
78.9029
77.3732
75.5555
73.5564
71.4852
69.364
67.1798
64.9237
62.5964
60.202
57.744
55.2259
52.6509
50.0228
47.3457
44.6238
41.8611
39.0614
36.2281
33.364
30.471
27.5499
24.5998
21.6183
18.6007
15.5395
12.4242
9.23988
5.96654
2.57999
)
;

boundaryField
{
    inlet
    {
        type            zeroGradient;
    }
    outlet
    {
        type            fixedValue;
        value           uniform 0;
    }
    flap
    {
        type            zeroGradient;
    }
    upperWall
    {
        type            zeroGradient;
    }
    lowerWall
    {
        type            zeroGradient;
    }
    frontAndBack
    {
        type            empty;
    }
}


// ************************************************************************* //
