/*--------------------------------*- C++ -*----------------------------------*\
  =========                 |
  \\      /  F ield         | OpenFOAM: The Open Source CFD Toolbox
   \\    /   O peration     | Website:  https://openfoam.org
    \\  /    A nd           | Version:  dev
     \\/     M anipulation  |
\*---------------------------------------------------------------------------*/
FoamFile
{
    version     2.0;
    format      ascii;
    class       volVectorField;
    location    "2.2";
    object      U;
}
// * * * * * * * * * * * * * * * * * * * * * * * * * * * * * * * * * * * * * //

dimensions      [0 1 -1 0 0 0 0];

internalField   nonuniform List<vector> 
2790
(
(9.94398 0 0.0205268)
(9.87569 0 0.029595)
(9.77515 0 0.0360004)
(9.64933 0 0.0425704)
(9.50392 0 0.0494027)
(9.33983 0 0.0564483)
(9.15624 0 0.0638382)
(8.95224 0 0.0717358)
(8.727 0 0.0802808)
(8.47954 0 0.0895999)
(8.20865 0 0.09982)
(7.91295 0 0.111071)
(7.59091 0 0.123485)
(7.24095 0 0.137188)
(6.86144 0 0.152293)
(6.45086 0 0.168887)
(6.00792 0 0.18701)
(5.53171 0 0.206627)
(5.022 0 0.227592)
(4.4795 0 0.249606)
(3.90624 0 0.272164)
(3.30597 0 0.294504)
(2.6845 0 0.31559)
(2.04992 0 0.33425)
(1.41119 0 0.350558)
(0.797542 0 0.372817)
(0.110278 0 0.324842)
(-0.469503 0 -0.114815)
(-0.453765 0 -0.296903)
(-0.231101 0 -0.423674)
(9.9985 0 0.0407141)
(9.98143 0 0.0624049)
(9.93568 0 0.0791726)
(9.86405 0 0.0966668)
(9.7708 0 0.115174)
(9.65691 0 0.134546)
(9.52175 0 0.155039)
(9.36446 0 0.177012)
(9.18425 0 0.20078)
(8.98012 0 0.226623)
(8.75089 0 0.254817)
(8.49518 0 0.285631)
(8.21142 0 0.319316)
(7.89798 0 0.356083)
(7.55314 0 0.396071)
(7.17525 0 0.439303)
(6.76282 0 0.485619)
(6.31468 0 0.534598)
(5.83027 0 0.585455)
(5.30992 0 0.636929)
(4.75522 0 0.687158)
(4.16954 0 0.73358)
(3.55849 0 0.772865)
(2.93082 0 0.800984)
(2.29932 0 0.81362)
(1.69242 0 0.807099)
(1.10672 0 0.747039)
(0.658559 0 0.547703)
(0.186028 0 0.224228)
(-0.00819738 0 -0.453787)
(9.99559 0 0.0432258)
(9.97553 0 0.0753088)
(9.93174 0 0.1034)
(9.86479 0 0.132441)
(9.77761 0 0.163144)
(9.67132 0 0.195496)
(9.54557 0 0.22985)
(9.39975 0 0.266719)
(9.23319 0 0.306591)
(9.0451 0 0.34993)
(8.83447 0 0.397195)
(8.60012 0 0.44884)
(8.34068 0 0.505303)
(8.05467 0 0.566963)
(7.7405 0 0.634095)
(7.39652 0 0.706796)
(7.02115 0 0.784879)
(6.61299 0 0.867739)
(6.17097 0 0.95418)
(5.69469 0 1.04221)
(5.18471 0 1.1288)
(4.64309 0 1.20967)
(4.07398 0 1.27901)
(3.48464 0 1.32915)
(2.8862 0 1.34987)
(2.29892 0 1.32618)
(1.73139 0 1.22049)
(1.2159 0 0.972734)
(0.700919 0 0.569903)
(0.357842 0 -0.156821)
(9.99402 0 0.0495255)
(9.97178 0 0.093258)
(9.92782 0 0.133648)
(9.86214 0 0.174307)
(9.77677 0 0.216551)
(9.67275 0 0.260796)
(9.55001 0 0.307579)
(9.40811 0 0.357576)
(9.24656 0 0.411459)
(9.06479 0 0.469876)
(8.86206 0 0.533472)
(8.6375 0 0.602887)
(8.39008 0 0.678745)
(8.11869 0 0.761611)
(7.82212 0 0.851935)
(7.49908 0 0.949963)
(7.14829 0 1.0556)
(6.76847 0 1.16826)
(6.35852 0 1.28658)
(5.91764 0 1.4082)
(5.4456 0 1.52936)
(4.94312 0 1.64452)
(4.41235 0 1.74593)
(3.85753 0 1.82296)
(3.28517 0 1.86107)
(2.70585 0 1.83999)
(2.1252 0 1.72564)
(1.55392 0 1.47749)
(0.957738 0 1.08333)
(0.509312 0 0.501952)
(9.9933 0 0.0572474)
(9.96991 0 0.111025)
(9.92587 0 0.162201)
(9.86135 0 0.213474)
(9.77782 0 0.266508)
(9.67611 0 0.322088)
(9.55623 0 0.380894)
(9.41783 0 0.443695)
(9.2605 0 0.511272)
(9.08378 0 0.58439)
(8.88707 0 0.663806)
(8.66967 0 0.750274)
(8.43081 0 0.844531)
(8.16961 0 0.947259)
(7.88517 0 1.05902)
(7.57653 0 1.18019)
(7.24268 0 1.31076)
(6.88261 0 1.4502)
(6.49528 0 1.59719)
(6.07975 0 1.74924)
(5.63521 0 1.90226)
(5.16122 0 2.05011)
(4.65794 0 2.18391)
(4.12646 0 2.29141)
(3.56875 0 2.35618)
(2.98834 0 2.3569)
(2.38639 0 2.26449)
(1.76606 0 2.04716)
(1.08979 0 1.6909)
(0.536552 0 1.15364)
(9.99301 0 0.06558)
(9.9692 0 0.128783)
(9.9255 0 0.190233)
(9.86242 0 0.251998)
(9.78111 0 0.315764)
(9.6822 0 0.382532)
(9.56569 0 0.453111)
(9.43132 0 0.528355)
(9.27873 0 0.609145)
(9.1075 0 0.696354)
(8.91713 0 0.790847)
(8.70701 0 0.893483)
(8.47648 0 1.0051)
(8.2248 0 1.12647)
(7.95121 0 1.25827)
(7.6549 0 1.40095)
(7.33501 0 1.55463)
(6.9906 0 1.71889)
(6.62064 0 1.89251)
(6.22398 0 2.07311)
(5.79929 0 2.25666)
(5.3451 0 2.43694)
(4.85984 0 2.60486)
(4.34192 0 2.74781)
(3.78972 0 2.84908)
(3.20201 0 2.88767)
(2.57612 0 2.83766)
(1.91314 0 2.67101)
(1.17256 0 2.37338)
(0.549879 0 1.89376)
(9.99296 0 0.0741239)
(9.96924 0 0.14641)
(9.92631 0 0.217625)
(9.86497 0 0.289475)
(9.78625 0 0.363576)
(9.6906 0 0.44108)
(9.57803 0 0.522941)
(9.44831 0 0.610112)
(9.30116 0 0.703571)
(9.1362 0 0.804287)
(8.95298 0 0.913221)
(8.75095 0 1.03132)
(8.52951 0 1.15951)
(8.28797 0 1.29866)
(8.02562 0 1.44952)
(7.74166 0 1.61265)
(7.43523 0 1.78829)
(7.10531 0 1.9762)
(6.7507 0 2.17536)
(6.36992 0 2.38369)
(5.96105 0 2.59752)
(5.52164 0 2.81107)
(5.04861 0 3.01575)
(4.53818 0 3.19947)
(3.98595 0 3.34611)
(3.38732 0 3.43533)
(2.73679 0 3.44262)
(2.03591 0 3.34077)
(1.24156 0 3.11282)
(0.563433 0 2.69238)
(9.99306 0 0.0826448)
(9.96978 0 0.163718)
(9.92801 0 0.244214)
(9.86873 0 0.325692)
(9.79295 0 0.409702)
(9.70101 0 0.4975)
(9.59291 0 0.590165)
(9.46847 0 0.688747)
(9.32746 0 0.794308)
(9.16955 0 0.907906)
(8.99434 0 1.03059)
(8.80133 0 1.1634)
(8.58995 0 1.30735)
(8.35956 0 1.4634)
(8.10943 0 1.63241)
(7.83873 0 1.81507)
(7.54648 0 2.0118)
(7.23151 0 2.22256)
(6.89233 0 2.44669)
(6.527 0 2.68254)
(6.13295 0 2.9271)
(5.70677 0 3.1754)
(5.24397 0 3.41988)
(4.73889 0 3.64961)
(4.18471 0 3.84956)
(3.57413 0 4.00014)
(2.89903 0 4.07709)
(2.16177 0 4.05153)
(1.31593 0 3.90082)
(0.583142 0 3.53925)
(9.99325 0 0.0909929)
(9.97069 0 0.180536)
(9.93039 0 0.269854)
(9.87351 0 0.360483)
(9.801 0 0.453938)
(9.71319 0 0.551545)
(9.61005 0 0.654484)
(9.49147 0 0.763898)
(9.35725 0 0.880927)
(9.20713 0 1.00671)
(9.04075 0 1.14239)
(8.85768 0 1.28909)
(8.65738 0 1.44792)
(8.43923 0 1.61995)
(8.20251 0 1.80618)
(7.94632 0 2.00745)
(7.66959 0 2.22441)
(7.37092 0 2.45734)
(7.04853 0 2.70601)
(6.70001 0 2.96941)
(6.32211 0 3.24537)
(5.91047 0 3.53011)
(5.45927 0 3.81751)
(4.96103 0 4.0983)
(4.40657 0 4.35906)
(3.78572 0 4.58121)
(3.08705 0 4.74012)
(2.31235 0 4.80346)
(1.41045 0 4.74007)
(0.614236 0 4.4409)
(9.99352 0 0.0990646)
(9.97188 0 0.196722)
(9.93334 0 0.294404)
(9.87913 0 0.393688)
(9.81022 0 0.496083)
(9.72691 0 0.602966)
(9.6292 0 0.715602)
(9.51699 0 0.835216)
(9.39016 0 0.963023)
(9.24851 0 1.10024)
(9.09173 0 1.24809)
(8.91945 0 1.40778)
(8.7312 0 1.58053)
(8.52639 0 1.76753)
(8.30431 0 1.96992)
(8.06405 0 2.18878)
(7.80445 0 2.425)
(7.52397 0 2.67926)
(7.22054 0 2.95189)
(6.89139 0 3.24265)
(6.53267 0 3.55047)
(6.13916 0 3.87301)
(5.70383 0 4.20606)
(5.21738 0 4.54258)
(4.66805 0 4.87149)
(4.04211 0 5.17591)
(3.32313 0 5.43118)
(2.5094 0 5.60081)
(1.54168 0 5.64234)
(0.663994 0 5.41689)
(9.99384 0 0.106784)
(9.97328 0 0.212158)
(9.93673 0 0.317734)
(9.88546 0 0.425157)
(9.82045 0 0.535953)
(9.742 0 0.651541)
(9.6501 0 0.773256)
(9.54474 0 0.902393)
(9.42584 0 1.04024)
(9.29326 0 1.18807)
(9.14678 0 1.34719)
(8.98608 0 1.5189)
(8.81078 0 1.70452)
(8.62035 0 1.90536)
(8.41413 0 2.12274)
(8.19125 0 2.35795)
(7.95052 0 2.61222)
(7.69035 0 2.88668)
(7.40856 0 3.18228)
(7.10212 0 3.4997)
(6.76684 0 3.83913)
(6.39687 0 4.20001)
(5.98417 0 4.58045)
(5.51783 0 4.9764)
(4.9833 0 5.38021)
(4.36241 0 5.77831)
(3.63128 0 6.1478)
(2.77975 0 6.44932)
(1.73329 0 6.6272)
(0.744795 0 6.50185)
(9.9942 0 0.114094)
(9.97484 0 0.226749)
(9.94049 0 0.339729)
(9.8924 0 0.454755)
(9.83155 0 0.573385)
(9.75825 0 0.697074)
(9.67254 0 0.827213)
(9.57444 0 0.965157)
(9.46394 0 1.11225)
(9.34097 0 1.26984)
(9.20539 0 1.43928)
(9.05698 0 1.62196)
(8.89544 0 1.81929)
(8.72034 0 2.03272)
(8.53113 0 2.26374)
(8.327 0 2.51386)
(8.10689 0 2.78466)
(7.86926 0 3.07775)
(7.61198 0 3.39476)
(7.33206 0 3.73734)
(7.02523 0 4.1071)
(6.68548 0 4.50544)
(6.30429 0 4.93329)
(5.86963 0 5.39038)
(5.36452 0 5.87406)
(4.7659 0 6.37676)
(4.04003 0 6.88163)
(3.16109 0 7.35191)
(2.02465 0 7.72174)
(0.880757 0 7.7558)
(9.99459 0 0.12095)
(9.97654 0 0.240414)
(9.94455 0 0.360287)
(9.89983 0 0.482364)
(9.84337 0 0.608236)
(9.77549 0 0.739392)
(9.69627 0 0.877268)
(9.60578 0 1.02327)
(9.50408 0 1.17878)
(9.39118 0 1.3452)
(9.26702 0 1.52396)
(9.1315 0 1.71649)
(8.98443 0 1.92429)
(8.82551 0 2.14894)
(8.65431 0 2.39207)
(8.47023 0 2.65543)
(8.27235 0 2.94092)
(8.05939 0 3.2506)
(7.82948 0 3.58677)
(7.57993 0 3.95206)
(7.30688 0 4.34949)
(7.00474 0 4.78254)
(6.66536 0 5.25519)
(6.27675 0 5.77173)
(5.82095 0 6.33617)
(5.27129 0 6.95063)
(4.58375 0 7.61169)
(3.70964 0 8.29899)
(2.48825 0 8.95657)
(1.12465 0 9.29205)
(9.995 0 0.127315)
(9.97835 0 0.25309)
(9.94884 0 0.379324)
(9.90767 0 0.507881)
(9.85579 0 0.640387)
(9.79355 0 0.778358)
(9.72107 0 0.923262)
(9.63848 0 1.07654)
(9.5459 0 1.23962)
(9.44344 0 1.41393)
(9.33114 0 1.60094)
(9.209 0 1.80214)
(9.07696 0 2.01911)
(8.93491 0 2.25349)
(8.78259 0 2.50707)
(8.61963 0 2.78178)
(8.4454 0 3.07978)
(8.25899 0 3.40353)
(8.05899 0 3.75593)
(7.84338 0 4.14045)
(7.60915 0 4.56136)
(7.35188 0 5.02408)
(7.06497 0 5.53556)
(6.73834 0 6.10478)
(6.35607 0 6.74348)
(5.8926 0 7.46677)
(5.29986 0 8.29389)
(4.50866 0 9.24552)
(3.2693 0 10.3399)
(1.60561 0 11.3585)
(9.99544 0 0.133163)
(9.98024 0 0.264726)
(9.95332 0 0.396769)
(9.91584 0 0.531215)
(9.86869 0 0.669718)
(9.81226 0 0.813815)
(9.74672 0 0.965)
(9.67225 0 1.12474)
(9.58905 0 1.29448)
(9.49732 0 1.47568)
(9.39719 0 1.66982)
(9.2888 0 1.87845)
(9.17224 0 2.10316)
(9.04757 0 2.34568)
(8.91478 0 2.60788)
(8.77376 0 2.89182)
(8.62427 0 3.19987)
(8.46586 0 3.53476)
(8.29781 0 3.89981)
(8.11899 0 4.29909)
(7.92771 0 4.73783)
(7.72143 0 5.22286)
(7.49633 0 5.76339)
(7.24654 0 6.37225)
(6.96264 0 7.06789)
(6.62915 0 7.87815)
(6.21337 0 8.84856)
(5.666 0 10.0623)
(4.6919 0 11.7282)
(2.68934 0 14.5938)
(0.190944 0 -0.209109)
(0.427699 0 -0.180527)
(0.676291 0 -0.147992)
(0.897606 0 -0.121463)
(1.08594 0 -0.100705)
(1.24734 0 -0.0842357)
(1.38812 0 -0.070999)
(1.51247 0 -0.0602643)
(1.62311 0 -0.051403)
(1.72181 0 -0.0437907)
(1.80938 0 -0.0368059)
(1.88551 0 -0.0299939)
(1.94913 0 -0.0232894)
(1.99955 0 -0.0170956)
(2.03753 0 -0.0118776)
(2.06443 0 -0.00745987)
(2.08005 0 -0.00340456)
(2.08344 0 0.000633778)
(2.07642 0 0.00490362)
(2.06327 0 0.00888694)
(2.04729 0 0.0115002)
(2.03132 0 0.0113187)
(2.01953 0 0.00745576)
(2.01658 0 0.000278626)
(2.02577 0 -0.00879042)
(2.04867 0 -0.0180381)
(2.08535 0 -0.0263166)
(2.13548 0 -0.033103)
(2.19841 0 -0.0374035)
(2.28852 0 -0.0361479)
(0.137374 0 -0.421239)
(0.358984 0 -0.38337)
(0.577333 0 -0.323134)
(0.774375 0 -0.270724)
(0.945109 0 -0.228878)
(1.09411 0 -0.195354)
(1.22619 0 -0.16821)
(1.34457 0 -0.146055)
(1.45141 0 -0.127666)
(1.54834 0 -0.111725)
(1.63635 0 -0.0967121)
(1.71548 0 -0.0813899)
(1.78462 0 -0.0655464)
(1.84234 0 -0.0505355)
(1.88882 0 -0.0375506)
(1.92702 0 -0.0236064)
(1.95803 0 -0.0082944)
(1.97977 0 0.00199909)
(1.9916 0 0.00560808)
(1.99137 0 0.00559897)
(1.97892 0 0.00443638)
(1.95233 0 0.00246375)
(1.91111 0 -0.000519868)
(1.85833 0 -0.00416928)
(1.80022 0 -0.00791709)
(1.74494 0 -0.0113223)
(1.70122 0 -0.0144827)
(1.66471 0 -0.0189628)
(1.64619 0 -0.0255319)
(1.67174 0 -0.0324958)
(0.0943065 0 -0.636537)
(0.272809 0 -0.591709)
(0.433369 0 -0.505846)
(0.580284 0 -0.428684)
(0.706636 0 -0.366127)
(0.816198 0 -0.315373)
(0.912116 0 -0.273745)
(0.99642 0 -0.239305)
(1.07051 0 -0.210551)
(1.13556 0 -0.185863)
(1.19272 0 -0.162898)
(1.2427 0 -0.139214)
(1.2845 0 -0.113302)
(1.31542 0 -0.0881842)
(1.33245 0 -0.0720856)
(1.3424 0 -0.0638781)
(1.35186 0 -0.0490806)
(1.31441 0 -0.0237945)
(1.23323 0 0.00143893)
(1.13173 0 0.0242188)
(1.02261 0 0.0446466)
(0.911175 0 0.0607423)
(0.80115 0 0.069233)
(0.698341 0 0.0683591)
(0.610682 0 0.057251)
(0.548419 0 0.036168)
(0.521102 0 0.012566)
(0.530848 0 -0.0111452)
(0.575029 0 -0.0452005)
(0.680021 0 -0.0841822)
(0.0571493 0 -0.783831)
(0.18158 0 -0.725451)
(0.273142 0 -0.617642)
(0.36101 0 -0.522358)
(0.432211 0 -0.444799)
(0.491284 0 -0.381374)
(0.539545 0 -0.328866)
(0.577867 0 -0.284777)
(0.606567 0 -0.247385)
(0.625602 0 -0.215427)
(0.63582 0 -0.186988)
(0.63969 0 -0.160131)
(0.637858 0 -0.132108)
(0.630606 0 -0.0990511)
(0.597303 0 -0.0576155)
(0.477469 0 -0.0135532)
(0.345457 0 0.03169)
(0.266946 0 0.0752003)
(0.183248 0 0.104119)
(0.0983285 0 0.119217)
(0.0172466 0 0.126352)
(-0.0555577 0 0.126542)
(-0.118067 0 0.118683)
(-0.165541 0 0.101565)
(-0.194216 0 0.0748928)
(-0.203781 0 0.0395792)
(-0.202751 0 -0.00102247)
(-0.163155 0 -0.0441418)
(-0.112613 0 -0.0904128)
(-0.0403102 0 -0.129687)
(0.0205141 0 -0.869539)
(0.0819118 0 -0.792447)
(0.0977201 0 -0.667064)
(0.120573 0 -0.559975)
(0.128387 0 -0.471784)
(0.12793 0 -0.399032)
(0.118662 0 -0.338285)
(0.101017 0 -0.286384)
(0.0743523 0 -0.240624)
(0.0353626 0 -0.198772)
(-0.0196585 0 -0.159073)
(-0.089296 0 -0.118587)
(-0.174681 0 -0.0717712)
(-0.284018 0 -0.0178525)
(-0.377387 0 0.0327442)
(-0.431008 0 0.067063)
(-0.496366 0 0.0891182)
(-0.556396 0 0.111755)
(-0.614173 0 0.135158)
(-0.666752 0 0.149732)
(-0.711481 0 0.154022)
(-0.746856 0 0.148266)
(-0.771129 0 0.132933)
(-0.783238 0 0.108049)
(-0.783642 0 0.0744856)
(-0.774924 0 0.0333544)
(-0.761492 0 -0.0136454)
(-0.734241 0 -0.0628377)
(-0.708726 0 -0.107637)
(-0.692195 0 -0.139185)
(-0.0181079 0 -0.884804)
(-0.0269277 0 -0.784547)
(-0.0874485 0 -0.646739)
(-0.13503 0 -0.532547)
(-0.19499 0 -0.437108)
(-0.260756 0 -0.357802)
(-0.3334 0 -0.290811)
(-0.412543 0 -0.232721)
(-0.497431 0 -0.180848)
(-0.586929 0 -0.133225)
(-0.680202 0 -0.0883121)
(-0.775082 0 -0.0448254)
(-0.868468 0 -0.00403341)
(-0.940432 0 0.0312529)
(-0.999955 0 0.0638139)
(-1.0565 0 0.0956543)
(-1.10908 0 0.123134)
(-1.15594 0 0.144626)
(-1.19564 0 0.161377)
(-1.22716 0 0.169925)
(-1.25006 0 0.168647)
(-1.26435 0 0.157331)
(-1.27021 0 0.136455)
(-1.26829 0 0.106748)
(-1.25987 0 0.0694745)
(-1.24697 0 0.0258348)
(-1.23226 0 -0.02263)
(-1.21552 0 -0.0719375)
(-1.20417 0 -0.116902)
(-1.20076 0 -0.149312)
(-0.0626688 0 -0.823824)
(-0.143659 0 -0.702471)
(-0.275577 0 -0.561632)
(-0.392626 0 -0.446349)
(-0.513915 0 -0.350812)
(-0.63423 0 -0.271955)
(-0.752474 0 -0.206005)
(-0.867388 0 -0.149495)
(-0.978038 0 -0.0997639)
(-1.08364 0 -0.0554533)
(-1.18378 0 -0.0161153)
(-1.27004 0 0.0181669)
(-1.34038 0 0.0487458)
(-1.40489 0 0.0776538)
(-1.46315 0 0.105153)
(-1.5149 0 0.130418)
(-1.55955 0 0.152105)
(-1.59634 0 0.16869)
(-1.62448 0 0.179258)
(-1.64378 0 0.18185)
(-1.65475 0 0.175296)
(-1.65828 0 0.159412)
(-1.65545 0 0.134672)
(-1.64763 0 0.101986)
(-1.63656 0 0.0627449)
(-1.62414 0 0.0184491)
(-1.61216 0 -0.0292176)
(-1.60303 0 -0.0769675)
(-1.60001 0 -0.120825)
(-1.60172 0 -0.15252)
(-0.110979 0 -0.688982)
(-0.257979 0 -0.553854)
(-0.456288 0 -0.41761)
(-0.631689 0 -0.309642)
(-0.799325 0 -0.223445)
(-0.955645 0 -0.153955)
(-1.09987 0 -0.0968919)
(-1.23131 0 -0.0495907)
(-1.3491 0 -0.0102535)
(-1.44976 0 0.0217885)
(-1.53533 0 0.0487476)
(-1.61273 0 0.0734209)
(-1.68323 0 0.0972795)
(-1.74651 0 0.1204)
(-1.80198 0 0.141992)
(-1.84924 0 0.161032)
(-1.88801 0 0.176388)
(-1.91802 0 0.186886)
(-1.93912 0 0.191361)
(-1.95164 0 0.188422)
(-1.95649 0 0.177244)
(-1.95498 0 0.157755)
(-1.94867 0 0.130464)
(-1.9393 0 0.0962829)
(-1.9288 0 0.0565129)
(-1.91907 0 0.0127622)
(-1.91137 0 -0.03318)
(-1.90877 0 -0.0788368)
(-1.91204 0 -0.120852)
(-1.91672 0 -0.150745)
(-0.164786 0 -0.488575)
(-0.371435 0 -0.35073)
(-0.627257 0 -0.231557)
(-0.849051 0 -0.138598)
(-1.04811 0 -0.0661186)
(-1.22018 0 -0.0138073)
(-1.36667 0 0.0234835)
(-1.49176 0 0.0513646)
(-1.59935 0 0.0733849)
(-1.69589 0 0.0930203)
(-1.78256 0 0.111374)
(-1.86042 0 0.128884)
(-1.92981 0 0.145708)
(-1.99069 0 0.161757)
(-2.04287 0 0.176381)
(-2.08618 0 0.188635)
(-2.1206 0 0.197444)
(-2.1462 0 0.201719)
(-2.16322 0 0.200372)
(-2.17232 0 0.192372)
(-2.1746 0 0.17716)
(-2.17158 0 0.154784)
(-2.16498 0 0.125786)
(-2.15666 0 0.0910211)
(-2.1486 0 0.0516441)
(-2.14265 0 0.00920959)
(-2.14009 0 -0.0345366)
(-2.1437 0 -0.077794)
(-2.15248 0 -0.117561)
(-2.15953 0 -0.145327)
(-0.235437 0 -0.24933)
(-0.503291 0 -0.0815264)
(-0.790067 0 0.0193186)
(-1.02357 0 0.074177)
(-1.21999 0 0.103812)
(-1.38746 0 0.122298)
(-1.53266 0 0.135943)
(-1.65925 0 0.146939)
(-1.77026 0 0.156591)
(-1.86801 0 0.165592)
(-1.95426 0 0.174438)
(-2.03036 0 0.183445)
(-2.09709 0 0.192456)
(-2.15477 0 0.201022)
(-2.20348 0 0.208435)
(-2.24331 0 0.213819)
(-2.27444 0 0.216191)
(-2.29721 0 0.214528)
(-2.31211 0 0.207848)
(-2.31997 0 0.195359)
(-2.32198 0 0.176708)
(-2.31969 0 0.152058)
(-2.31489 0 0.121971)
(-2.30941 0 0.0872433)
(-2.30509 0 0.0488815)
(-2.30375 0 0.00824475)
(-2.30682 0 -0.0331439)
(-2.31656 0 -0.0739246)
(-2.33054 0 -0.111371)
(-2.3398 0 -0.137198)
(-0.274416 0 0.185638)
(-0.565273 0 0.241285)
(-0.86941 0 0.263851)
(-1.11608 0 0.270372)
(-1.32421 0 0.267337)
(-1.4995 0 0.260316)
(-1.64792 0 0.252513)
(-1.77477 0 0.245691)
(-1.88425 0 0.240543)
(-1.97929 0 0.23723)
(-2.06207 0 0.235705)
(-2.1343 0 0.235739)
(-2.19707 0 0.236715)
(-2.2509 0 0.237806)
(-2.29604 0 0.238163)
(-2.33272 0 0.236951)
(-2.36133 0 0.233281)
(-2.38239 0 0.226199)
(-2.39656 0 0.214805)
(-2.40474 0 0.198458)
(-2.4081 0 0.17697)
(-2.40818 0 0.15061)
(-2.4067 0 0.119956)
(-2.4054 0 0.0857175)
(-2.40591 0 0.0487398)
(-2.40989 0 0.0101308)
(-2.41893 0 -0.0288545)
(-2.43484 0 -0.0671906)
(-2.454 0 -0.102429)
(-2.46548 0 -0.126669)
(-0.284245 0 0.536935)
(-0.607531 0 0.563012)
(-0.941648 0 0.529444)
(-1.20088 0 0.48458)
(-1.41164 0 0.44)
(-1.58387 0 0.400355)
(-1.72651 0 0.367435)
(-1.84669 0 0.34139)
(-1.94942 0 0.321032)
(-2.03787 0 0.305188)
(-2.11435 0 0.293247)
(-2.18078 0 0.284524)
(-2.23846 0 0.277836)
(-2.28796 0 0.271875)
(-2.32947 0 0.265626)
(-2.3633 0 0.258339)
(-2.39 0 0.249249)
(-2.4103 0 0.237451)
(-2.42495 0 0.222067)
(-2.4348 0 0.20254)
(-2.44094 0 0.17881)
(-2.44476 0 0.151257)
(-2.44786 0 0.120473)
(-2.45181 0 0.0870682)
(-2.45799 0 0.0516745)
(-2.46786 0 0.0151314)
(-2.48315 0 -0.0215393)
(-2.50538 0 -0.057537)
(-2.52983 0 -0.0907438)
(-2.54365 0 -0.11373)
(-0.321833 0 0.962749)
(-0.687359 0 0.929888)
(-1.04154 0 0.810783)
(-1.29539 0 0.697891)
(-1.49185 0 0.60601)
(-1.64762 0 0.53182)
(-1.77415 0 0.473324)
(-1.88011 0 0.428868)
(-1.97101 0 0.394475)
(-2.04936 0 0.366919)
(-2.11695 0 0.345249)
(-2.17586 0 0.32866)
(-2.22759 0 0.315272)
(-2.27249 0 0.303074)
(-2.31047 0 0.290901)
(-2.34176 0 0.278237)
(-2.36714 0 0.264541)
(-2.38756 0 0.248919)
(-2.40384 0 0.230402)
(-2.4167 0 0.208426)
(-2.42699 0 0.183034)
(-2.43588 0 0.15473)
(-2.44476 0 0.124149)
(-2.45496 0 0.0917967)
(-2.46757 0 0.0580604)
(-2.48383 0 0.0234901)
(-2.50568 0 -0.0110848)
(-2.53437 0 -0.0449228)
(-2.56433 0 -0.0762588)
(-2.58065 0 -0.0982294)
(-0.399158 0 1.45971)
(-0.829873 0 1.33851)
(-1.19365 0 1.09091)
(-1.4122 0 0.888844)
(-1.56973 0 0.749986)
(-1.69359 0 0.643949)
(-1.79288 0 0.562115)
(-1.87681 0 0.502851)
(-1.95145 0 0.457904)
(-2.01699 0 0.420398)
(-2.07349 0 0.390155)
(-2.12338 0 0.367249)
(-2.16865 0 0.348806)
(-2.20914 0 0.331552)
(-2.24392 0 0.314261)
(-2.27305 0 0.297016)
(-2.29764 0 0.279707)
(-2.31906 0 0.261364)
(-2.33818 0 0.240715)
(-2.35544 0 0.217058)
(-2.37136 0 0.190528)
(-2.38676 0 0.161801)
(-2.40274 0 0.131605)
(-2.42032 0 0.100365)
(-2.4402 0 0.0682113)
(-2.4634 0 0.0353771)
(-2.49207 0 0.00255241)
(-2.52735 0 -0.0293454)
(-2.56303 0 -0.0588222)
(-2.58204 0 -0.0797951)
(-0.566193 0 2.29549)
(-1.07527 0 1.92507)
(-1.4363 0 1.37728)
(-1.56342 0 1.01255)
(-1.64247 0 0.847212)
(-1.71928 0 0.726598)
(-1.7805 0 0.626712)
(-1.83422 0 0.558518)
(-1.88968 0 0.509438)
(-1.94143 0 0.464014)
(-1.985 0 0.426176)
(-2.02436 0 0.399234)
(-2.06323 0 0.378394)
(-2.10025 0 0.357578)
(-2.13266 0 0.335858)
(-2.1601 0 0.314719)
(-2.18444 0 0.294895)
(-2.20781 0 0.275161)
(-2.23115 0 0.253545)
(-2.25446 0 0.229049)
(-2.27772 0 0.201938)
(-2.30135 0 0.173132)
(-2.32608 0 0.143483)
(-2.35248 0 0.113336)
(-2.38076 0 0.082565)
(-2.41155 0 0.0510939)
(-2.44708 0 0.0195938)
(-2.48919 0 -0.0106311)
(-2.53068 0 -0.0380481)
(-2.55257 0 -0.0578457)
(9.9959 0 0.138567)
(9.98222 0 0.275477)
(9.95804 0 0.412876)
(9.92441 0 0.552732)
(9.88223 0 0.696719)
(9.83189 0 0.846391)
(9.77362 0 1.00325)
(9.70768 0 1.16878)
(9.63433 0 1.34443)
(9.55386 0 1.53166)
(9.46654 0 1.73198)
(9.37262 0 1.94693)
(9.27238 0 2.17812)
(9.16608 0 2.42731)
(9.05396 0 2.69639)
(8.93624 0 2.98751)
(8.81312 0 3.30311)
(8.68474 0 3.64608)
(8.55117 0 4.01992)
(8.41242 0 4.429)
(8.26842 0 4.87895)
(8.11908 0 5.37722)
(7.96436 0 5.93397)
(7.80458 0 6.56353)
(7.64099 0 7.28696)
(7.47869 0 8.13685)
(7.33116 0 9.16715)
(7.289 0 10.4715)
(7.75243 0 12.1948)
(7.94604 0 14.9136)
(9.99638 0 0.143535)
(9.98431 0 0.285348)
(9.96298 0 0.42763)
(9.93339 0 0.572375)
(9.89637 0 0.721276)
(9.85235 0 0.87589)
(9.8016 0 1.03772)
(9.74444 0 1.20825)
(9.68124 0 1.38892)
(9.61236 0 1.5812)
(9.53819 0 1.78657)
(9.45914 0 2.00654)
(9.37567 0 2.24273)
(9.28823 0 2.49686)
(9.19736 0 2.77081)
(9.10363 0 3.0667)
(9.0077 0 3.38695)
(8.91032 0 3.73439)
(8.8124 0 4.11248)
(8.71513 0 4.52545)
(8.62011 0 4.97872)
(8.52974 0 5.4793)
(8.44773 0 6.03648)
(8.38038 0 6.66281)
(8.33891 0 7.37547)
(8.3455 0 8.19777)
(8.43915 0 9.15972)
(8.67598 0 10.2943)
(9.3251 0 11.5453)
(9.81922 0 12.6246)
(9.99688 0 0.14798)
(9.98648 0 0.294178)
(9.96812 0 0.440806)
(9.9427 0 0.58988)
(9.91102 0 0.743093)
(9.8735 0 0.901996)
(9.83048 0 1.06809)
(9.78235 0 1.24282)
(9.72953 0 1.42763)
(9.67249 0 1.62393)
(9.61173 0 1.83319)
(9.54782 0 2.05686)
(9.48136 0 2.29651)
(9.41307 0 2.5538)
(9.34372 0 2.83052)
(9.27426 0 3.12866)
(9.20576 0 3.45049)
(9.13957 0 3.79864)
(9.07738 0 4.17623)
(9.02141 0 4.58699)
(8.97466 0 5.03551)
(8.94142 0 5.52745)
(8.92799 0 6.06975)
(8.9439 0 6.67077)
(9.00364 0 7.33986)
(9.12937 0 8.08554)
(9.35205 0 8.90947)
(9.68102 0 9.80014)
(10.2454 0 10.7055)
(10.9307 0 11.4142)
(9.99739 0 0.151851)
(9.98871 0 0.301857)
(9.9734 0 0.452239)
(9.95226 0 0.605014)
(9.92604 0 0.761868)
(9.89517 0 0.924335)
(9.86004 0 1.09389)
(9.82109 0 1.27195)
(9.77881 0 1.45991)
(9.73376 0 1.65916)
(9.68656 0 1.87106)
(9.63789 0 2.09704)
(9.58855 0 2.33854)
(9.53941 0 2.5971)
(9.49154 0 2.87437)
(9.44617 0 3.17216)
(9.40477 0 3.49246)
(9.36918 0 3.83753)
(9.34168 0 4.20993)
(9.32525 0 4.61262)
(9.32381 0 5.04901)
(9.34265 0 5.52289)
(9.38902 0 6.03837)
(9.4728 0 6.59936)
(9.60716 0 7.20857)
(9.80888 0 7.86558)
(10.1006 0 8.56314)
(10.4908 0 9.28642)
(11.0459 0 10.0252)
(11.8353 0 10.6663)
(9.99792 0 0.155099)
(9.99098 0 0.308293)
(9.97878 0 0.461793)
(9.962 0 0.617601)
(9.94131 0 0.777383)
(9.91718 0 0.942645)
(9.89003 0 1.11482)
(9.86033 0 1.29529)
(9.82866 0 1.4854)
(9.79565 0 1.68644)
(9.762 0 1.89972)
(9.72853 0 2.12653)
(9.69615 0 2.36822)
(9.66594 0 2.62615)
(9.63916 0 2.90178)
(9.61727 0 3.19664)
(9.60206 0 3.51236)
(9.59571 0 3.85073)
(9.60089 0 4.21365)
(9.62098 0 4.60316)
(9.66031 0 5.02135)
(9.72437 0 5.47021)
(9.82023 0 5.95134)
(9.95682 0 6.46539)
(10.1451 0 7.01124)
(10.3982 0 7.58497)
(10.7332 0 8.17843)
(11.1615 0 8.7769)
(11.7061 0 9.36885)
(12.4552 0 9.87951)
(9.99845 0 0.157682)
(9.99328 0 0.313402)
(9.98421 0 0.469341)
(9.97182 0 0.627474)
(9.95671 0 0.789434)
(9.93935 0 0.956686)
(9.92018 0 1.13062)
(9.89974 0 1.31254)
(9.87864 0 1.50373)
(9.85757 0 1.70541)
(9.83733 0 1.91876)
(9.81881 0 2.14496)
(9.80306 0 2.3852)
(9.79126 0 2.64064)
(9.78484 0 2.91248)
(9.78543 0 3.20196)
(9.79499 0 3.5103)
(9.81589 0 3.83876)
(9.85099 0 4.18854)
(9.90376 0 4.56076)
(9.97847 0 4.95631)
(10.0803 0 5.37566)
(10.2157 0 5.81851)
(10.392 0 6.28341)
(10.618 0 6.76708)
(10.9034 0 7.26374)
(11.2593 0 7.76417)
(11.6935 0 8.25285)
(12.2069 0 8.71312)
(12.8786 0 9.1036)
(9.99898 0 0.15956)
(9.99558 0 0.317105)
(9.98964 0 0.47477)
(9.98165 0 0.634486)
(9.9721 0 0.79784)
(9.96147 0 0.966247)
(9.95024 0 1.14103)
(9.93895 0 1.32344)
(9.92827 0 1.51465)
(9.91894 0 1.71579)
(9.9118 0 1.92792)
(9.90782 0 2.15208)
(9.90812 0 2.38925)
(9.91398 0 2.64042)
(9.92689 0 2.9065)
(9.94858 0 3.18838)
(9.98109 0 3.48687)
(10.0268 0 3.80271)
(10.0886 0 4.13643)
(10.1697 0 4.48834)
(10.2741 0 4.85833)
(10.4065 0 5.2457)
(10.572 0 5.64886)
(10.7766 0 6.06499)
(11.0266 0 6.48963)
(11.3284 0 6.91609)
(11.6881 0 7.33503)
(12.1097 0 7.7331)
(12.587 0 8.09581)
(13.1889 0 8.40274)
(9.99951 0 0.1607)
(9.99786 0 0.319337)
(9.99504 0 0.477982)
(9.9914 0 0.63851)
(9.98736 0 0.802451)
(9.98337 0 0.971156)
(9.97993 0 1.14588)
(9.97761 0 1.32778)
(9.9771 0 1.51795)
(9.97916 0 1.71739)
(9.98467 0 1.92704)
(9.99465 0 2.14776)
(10.0102 0 2.38037)
(10.0328 0 2.62561)
(10.0637 0 2.88412)
(10.1048 0 3.15646)
(10.1582 0 3.44305)
(10.2259 0 3.74412)
(10.3109 0 4.05964)
(10.4159 0 4.38925)
(10.5445 0 4.73208)
(10.7005 0 5.0866)
(10.8879 0 5.45044)
(11.1111 0 5.82008)
(11.3744 0 6.19062)
(11.6814 0 6.55555)
(12.0349 0 6.9066)
(12.4365 0 7.23352)
(12.8785 0 7.52526)
(13.4186 0 7.77057)
(10 0 0.161073)
(10.0001 0 0.320041)
(10.0004 0 0.478898)
(10.001 0 0.639445)
(10.0023 0 0.803146)
(10.0048 0 0.971282)
(10.009 0 1.14502)
(10.0154 0 1.32544)
(10.0247 0 1.51351)
(10.0377 0 1.71013)
(10.0553 0 1.91608)
(10.0784 0 2.13207)
(10.1084 0 2.35872)
(10.1464 0 2.59654)
(10.1939 0 2.84592)
(10.2526 0 3.1071)
(10.3244 0 3.38014)
(10.4113 0 3.66486)
(10.5158 0 3.96077)
(10.6405 0 4.26699)
(10.788 0 4.58214)
(10.9615 0 4.90421)
(11.1639 0 5.23041)
(11.3981 0 5.55704)
(11.6667 0 5.87938)
(11.9715 0 6.19159)
(12.3134 0 6.48685)
(12.6921 0 6.75737)
(13.0999 0 6.99488)
(13.5853 0 7.19258)
(10.0005 0 0.160658)
(10.0023 0 0.319176)
(10.0055 0 0.477456)
(10.0103 0 0.637216)
(10.0169 0 0.799844)
(10.0257 0 0.966538)
(10.0371 0 1.13838)
(10.0519 0 1.31635)
(10.0705 0 1.50131)
(10.0939 0 1.69402)
(10.1229 0 1.89513)
(10.1584 0 2.10519)
(10.2016 0 2.32463)
(10.2537 0 2.55374)
(10.3161 0 2.79268)
(10.3904 0 3.04141)
(10.4783 0 3.29969)
(10.5815 0 3.56701)
(10.7021 0 3.84254)
(10.8423 0 4.12505)
(11.0041 0 4.41286)
(11.1899 0 4.70372)
(11.4015 0 4.99477)
(11.6409 0 5.28243)
(11.9092 0 5.56245)
(12.2071 0 5.82985)
(12.5342 0 6.07915)
(12.8891 0 6.3045)
(13.2648 0 6.49989)
(13.7028 0 6.6612)
(10.001 0 0.15944)
(10.0044 0 0.316712)
(10.0105 0 0.473617)
(10.0193 0 0.631777)
(10.0309 0 0.792496)
(10.0457 0 0.956887)
(10.0642 0 1.12594)
(10.0868 0 1.30052)
(10.1143 0 1.48139)
(10.1474 0 1.66918)
(10.1869 0 1.86441)
(10.2338 0 2.06746)
(10.2891 0 2.27859)
(10.3539 0 2.49791)
(10.4295 0 2.72536)
(10.5174 0 2.96068)
(10.6188 0 3.20339)
(10.7355 0 3.45273)
(10.869 0 3.70766)
(11.021 0 3.96674)
(11.1931 0 4.22815)
(11.3867 0 4.48962)
(11.6031 0 4.74839)
(11.8432 0 5.00121)
(12.1075 0 5.24439)
(12.3956 0 5.47386)
(12.7063 0 5.6853)
(13.038 0 5.8744)
(13.3843 0 6.03696)
(13.7817 0 6.17047)
(10.0015 0 0.15741)
(10.0065 0 0.312636)
(10.0153 0 0.467362)
(10.0279 0 0.623111)
(10.0443 0 0.781095)
(10.0648 0 0.942335)
(10.0899 0 1.10772)
(10.1199 0 1.27803)
(10.1557 0 1.45389)
(10.1978 0 1.63583)
(10.247 0 1.82423)
(10.3041 0 2.01932)
(10.3702 0 2.22123)
(10.4462 0 2.42988)
(10.5333 0 2.64505)
(10.6327 0 2.8663)
(10.7454 0 3.09298)
(10.8729 0 3.32418)
(11.0164 0 3.55872)
(11.1769 0 3.79508)
(11.3558 0 4.03145)
(11.5537 0 4.26564)
(11.7714 0 4.49512)
(12.0092 0 4.71707)
(12.2667 0 4.92839)
(12.5433 0 5.12581)
(12.8374 0 5.30604)
(13.1471 0 5.46594)
(13.4671 0 5.6026)
(13.8296 0 5.71455)
(10.0019 0 0.154568)
(10.0084 0 0.306944)
(10.0199 0 0.458693)
(10.0361 0 0.611229)
(10.057 0 0.765667)
(10.0828 0 0.922936)
(10.114 0 1.08383)
(10.151 0 1.24902)
(10.1943 0 1.41903)
(10.2446 0 1.59427)
(10.3025 0 1.775)
(10.3689 0 1.96133)
(10.4445 0 2.15325)
(10.5303 0 2.35057)
(10.6271 0 2.5529)
(10.736 0 2.75971)
(10.8579 0 2.97022)
(10.9937 0 3.18344)
(11.1444 0 3.39813)
(11.3108 0 3.6128)
(11.4935 0 3.8257)
(11.693 0 4.03484)
(11.9094 0 4.23799)
(12.1425 0 4.43275)
(12.3918 0 4.61658)
(12.6561 0 4.78692)
(12.9339 0 4.9413)
(13.2233 0 5.07746)
(13.5196 0 5.19342)
(13.852 0 5.28835)
(10.0024 0 0.150919)
(10.0102 0 0.299651)
(10.0241 0 0.447635)
(10.0437 0 0.596171)
(10.0688 0 0.746277)
(10.0996 0 0.898787)
(10.1365 0 1.0544)
(10.1797 0 1.21368)
(10.2299 0 1.37707)
(10.2876 0 1.54486)
(10.3533 0 1.7172)
(10.4278 0 1.89412)
(10.5116 0 2.07547)
(10.6057 0 2.26096)
(10.7106 0 2.45014)
(10.8272 0 2.64236)
(10.9562 0 2.8368)
(11.0982 0 3.03244)
(11.254 0 3.22806)
(11.4238 0 3.42224)
(11.6081 0 3.61339)
(11.8069 0 3.79971)
(12.0201 0 3.97931)
(12.2471 0 4.15018)
(12.4872 0 4.3103)
(12.7391 0 4.45769)
(13.0012 0 4.59052)
(13.2719 0 4.70719)
(13.5472 0 4.80638)
(13.8534 0 4.88767)
(10.0027 0 0.146476)
(10.0119 0 0.290783)
(10.0281 0 0.43423)
(10.0508 0 0.578002)
(10.0798 0 0.72302)
(10.1151 0 0.870025)
(10.1571 0 1.01962)
(10.2061 0 1.17228)
(10.2625 0 1.32835)
(10.3267 0 1.48803)
(10.3992 0 1.65139)
(10.4807 0 1.81835)
(10.5715 0 1.9887)
(10.6724 0 2.16207)
(10.7839 0 2.33794)
(10.9065 0 2.51563)
(11.0408 0 2.69431)
(11.1872 0 2.87297)
(11.3459 0 3.05045)
(11.5173 0 3.22546)
(11.7014 0 3.39655)
(11.8979 0 3.5622)
(12.1064 0 3.72079)
(12.3264 0 3.8707)
(12.5568 0 4.01034)
(12.7965 0 4.1382)
(13.044 0 4.25293)
(13.2975 0 4.35344)
(13.554 0 4.43885)
(13.8376 0 4.50899)
(10.0031 0 0.141256)
(10.0134 0 0.280376)
(10.0317 0 0.418538)
(10.0573 0 0.556812)
(10.0898 0 0.696023)
(10.1293 0 0.836819)
(10.1759 0 0.979719)
(10.23 0 1.12511)
(10.2918 0 1.27325)
(10.3617 0 1.42427)
(10.4402 0 1.57815)
(10.5275 0 1.73475)
(10.6242 0 1.8938)
(10.7306 0 2.0549)
(10.8472 0 2.21747)
(10.9744 0 2.38085)
(11.1124 0 2.54422)
(11.2614 0 2.70661)
(11.4216 0 2.86698)
(11.593 0 3.02414)
(11.7754 0 3.17686)
(11.9684 0 3.32382)
(12.1714 0 3.4637)
(12.3838 0 3.59521)
(12.6045 0 3.71709)
(12.8324 0 3.82823)
(13.0661 0 3.92765)
(13.3042 0 4.0146)
(13.5439 0 4.08852)
(13.8076 0 4.14942)
(10.0034 0 0.135284)
(10.0148 0 0.268478)
(10.035 0 0.400635)
(10.0632 0 0.532711)
(10.0988 0 0.665434)
(10.142 0 0.799368)
(10.1927 0 0.93495)
(10.2513 0 1.07249)
(10.3179 0 1.21217)
(10.3927 0 1.35405)
(10.4761 0 1.49807)
(10.5684 0 1.64403)
(10.6697 0 1.79162)
(10.7805 0 1.9404)
(10.901 0 2.08983)
(11.0314 0 2.23923)
(11.1717 0 2.38784)
(11.3221 0 2.53476)