/*--------------------------------*- C++ -*----------------------------------*\
  =========                 |
  \\      /  F ield         | OpenFOAM: The Open Source CFD Toolbox
   \\    /   O peration     | Website:  https://openfoam.org
    \\  /    A nd           | Version:  dev
     \\/     M anipulation  |
\*---------------------------------------------------------------------------*/
FoamFile
{
    version     2.0;
    format      ascii;
    class       volVectorField;
    location    "9.2";
    object      U;
}
// * * * * * * * * * * * * * * * * * * * * * * * * * * * * * * * * * * * * * //

dimensions      [0 1 -1 0 0 0 0];

internalField   nonuniform List<vector> 
2790
(
(9.94399 0 0.0205235)
(9.87572 0 0.0295883)
(9.7752 0 0.0359905)
(9.64943 0 0.0425576)
(9.50407 0 0.0493872)
(9.34005 0 0.0564306)
(9.15651 0 0.0638187)
(8.95258 0 0.0717151)
(8.72741 0 0.0802594)
(8.48002 0 0.0895785)
(8.20919 0 0.0997994)
(7.91355 0 0.111052)
(7.59157 0 0.123468)
(7.24165 0 0.137174)
(6.86217 0 0.152283)
(6.45162 0 0.168882)
(6.00868 0 0.18701)
(5.53246 0 0.206632)
(5.02273 0 0.227603)
(4.48019 0 0.249623)
(3.90688 0 0.272187)
(3.30655 0 0.294534)
(2.68501 0 0.315625)
(2.05035 0 0.334289)
(1.41154 0 0.350604)
(0.797822 0 0.372884)
(0.110414 0 0.324945)
(-0.469577 0 -0.114913)
(-0.45381 0 -0.29711)
(-0.231165 0 -0.423841)
(9.9985 0 0.040704)
(9.98145 0 0.0623847)
(9.93574 0 0.0791431)
(9.86415 0 0.0966288)
(9.77096 0 0.115129)
(9.65713 0 0.134495)
(9.52203 0 0.154983)
(9.36481 0 0.176953)
(9.18467 0 0.200719)
(8.98061 0 0.226563)
(8.75145 0 0.25476)
(8.49579 0 0.285579)
(8.21209 0 0.31927)
(7.89869 0 0.356046)
(7.55389 0 0.396046)
(7.17602 0 0.43929)
(6.76359 0 0.485621)
(6.31544 0 0.534615)
(5.83101 0 0.585488)
(5.31063 0 0.636977)
(4.75589 0 0.687222)
(4.17014 0 0.733657)
(3.55902 0 0.772954)
(2.93129 0 0.801084)
(2.2997 0 0.813729)
(1.69274 0 0.807224)
(1.10695 0 0.747186)
(0.658768 0 0.547851)
(0.186242 0 0.224493)
(-0.00819748 0 -0.453782)
(9.99559 0 0.0432086)
(9.97556 0 0.0752749)
(9.9318 0 0.103351)
(9.86489 0 0.132378)
(9.77777 0 0.163068)
(9.67153 0 0.195409)
(9.54585 0 0.229756)
(9.4001 0 0.266618)
(9.2336 0 0.306489)
(9.04558 0 0.349829)
(8.83501 0 0.397097)
(8.60072 0 0.448751)
(8.34134 0 0.505225)
(8.05538 0 0.5669)
(7.74123 0 0.63405)
(7.39728 0 0.706773)
(7.02192 0 0.78488)
(6.61375 0 0.867766)
(6.17171 0 0.954233)
(5.69539 0 1.04229)
(5.18537 0 1.12891)
(4.64369 0 1.2098)
(4.07453 0 1.27915)
(3.48512 0 1.32931)
(2.8866 0 1.35005)
(2.29925 0 1.32637)
(1.73166 0 1.22068)
(1.21611 0 0.972897)
(0.701047 0 0.570026)
(0.35798 0 -0.156727)
(9.99403 0 0.0495015)
(9.97181 0 0.0932107)
(9.92788 0 0.133579)
(9.86224 0 0.174218)
(9.77692 0 0.216445)
(9.67296 0 0.260676)
(9.55029 0 0.307448)
(9.40845 0 0.357437)
(9.24698 0 0.411316)
(9.06527 0 0.469735)
(8.86261 0 0.533336)
(8.63811 0 0.602762)
(8.39074 0 0.678636)
(8.1194 0 0.761522)
(7.82286 0 0.851872)
(7.49985 0 0.949929)
(7.14906 0 1.0556)
(6.76924 0 1.16829)
(6.35927 0 1.28665)
(5.91836 0 1.40831)
(5.44628 0 1.5295)
(4.94374 0 1.6447)
(4.4129 0 1.74614)
(3.85801 0 1.82319)
(3.28557 0 1.86131)
(2.70618 0 1.84024)
(2.12546 0 1.72588)
(1.55412 0 1.47771)
(0.957861 0 1.08352)
(0.509395 0 0.502147)
(9.99331 0 0.0572164)
(9.96994 0 0.110965)
(9.92593 0 0.162113)
(9.86145 0 0.213359)
(9.77797 0 0.266372)
(9.67633 0 0.321933)
(9.55651 0 0.380724)
(9.41818 0 0.443515)
(9.26093 0 0.511088)
(9.08427 0 0.584207)
(8.88763 0 0.66363)
(8.6703 0 0.750111)
(8.43149 0 0.844389)
(8.17034 0 0.947143)
(7.88594 0 1.05894)
(7.57732 0 1.18014)
(7.24348 0 1.31075)
(6.88341 0 1.45025)
(6.49606 0 1.59728)
(6.08049 0 1.74938)
(5.6359 0 1.90245)
(5.16185 0 2.05034)
(4.6585 0 2.18417)
(4.12694 0 2.2917)
(3.56915 0 2.35649)
(2.98866 0 2.35721)
(2.38664 0 2.2648)
(1.76624 0 2.04745)
(1.0899 0 1.69117)
(0.536611 0 1.15391)
(9.99302 0 0.065542)
(9.96923 0 0.128708)
(9.92556 0 0.190124)
(9.86252 0 0.251857)
(9.78127 0 0.315596)
(9.68242 0 0.382341)
(9.56598 0 0.452902)
(9.43168 0 0.528134)
(9.27916 0 0.608918)
(9.10801 0 0.696129)
(8.91771 0 0.79063)
(8.70766 0 0.893282)
(8.47718 0 1.00492)
(8.22556 0 1.12633)
(7.95201 0 1.25816)
(7.65573 0 1.40089)
(7.33585 0 1.55462)
(6.99144 0 1.71894)
(6.62146 0 1.89263)
(6.22476 0 2.07329)
(5.80002 0 2.2569)
(5.34576 0 2.43723)
(4.86042 0 2.60519)
(4.34241 0 2.74818)
(3.79012 0 2.84946)
(3.20232 0 2.88806)
(2.57635 0 2.83803)
(1.91329 0 2.67136)
(1.17264 0 2.37371)
(0.549918 0 1.89409)
(9.99297 0 0.0740788)
(9.96926 0 0.146322)
(9.92637 0 0.217495)
(9.86508 0 0.289308)
(9.78641 0 0.363376)
(9.69083 0 0.440853)
(9.57832 0 0.522692)
(9.44868 0 0.609849)
(9.30161 0 0.7033)
(9.13673 0 0.804016)
(8.95358 0 0.912959)
(8.75162 0 1.03108)
(8.53024 0 1.1593)
(8.28876 0 1.29848)
(8.02645 0 1.44939)
(7.74253 0 1.61257)
(7.43611 0 1.78828)
(7.1062 0 1.97626)
(6.75158 0 2.1755)
(6.37075 0 2.3839)
(5.96183 0 2.5978)
(5.52234 0 2.81142)
(5.04922 0 3.01615)
(4.53869 0 3.19992)
(3.98635 0 3.34658)
(3.38761 0 3.4358)
(2.73699 0 3.44307)
(2.03603 0 3.34119)
(1.24161 0 3.11321)
(0.563453 0 2.69276)
(9.99306 0 0.0825925)
(9.96981 0 0.163615)
(9.92807 0 0.244063)
(9.86884 0 0.325498)
(9.79311 0 0.40947)
(9.70124 0 0.497236)
(9.59321 0 0.589874)
(9.46885 0 0.688438)
(9.32792 0 0.79399)
(9.17009 0 0.907588)
(8.99496 0 1.03028)
(8.80203 0 1.16311)
(8.59072 0 1.30709)
(8.36039 0 1.46319)
(8.11031 0 1.63225)
(7.83965 0 1.81498)
(7.54743 0 2.01178)
(7.23246 0 2.22263)
(6.89327 0 2.44685)
(6.5279 0 2.68279)
(6.1338 0 2.92744)
(5.70753 0 3.17582)
(5.24463 0 3.42038)
(4.73942 0 3.65015)
(4.18512 0 3.85012)
(3.5744 0 4.0007)
(2.8992 0 4.07762)
(2.16185 0 4.05201)
(1.31595 0 3.90125)
(0.583141 0 3.53966)
(9.99326 0 0.0909332)
(9.97072 0 0.180418)
(9.93046 0 0.269682)
(9.87361 0 0.360261)
(9.80117 0 0.453673)
(9.71342 0 0.551242)
(9.61036 0 0.654151)
(9.49185 0 0.763543)
(9.35772 0 0.88056)
(9.20769 0 1.00634)
(9.0414 0 1.14203)
(8.8584 0 1.28875)
(8.65818 0 1.44762)
(8.44011 0 1.61969)
(8.20345 0 1.80598)
(7.94731 0 2.00733)
(7.6706 0 2.22438)
(7.37195 0 2.45741)
(7.04955 0 2.70619)
(6.701 0 2.96969)
(6.32304 0 3.24577)
(5.9113 0 3.53061)
(5.45998 0 3.8181)
(4.9616 0 4.09896)
(4.40698 0 4.35975)
(3.78597 0 4.58189)
(3.08716 0 4.74075)
(2.31236 0 4.80401)
(1.41041 0 4.74052)
(0.614203 0 4.4413)
(9.99352 0 0.0989974)
(9.9719 0 0.196589)
(9.9334 0 0.294211)
(9.87924 0 0.393438)
(9.81039 0 0.495783)
(9.72715 0 0.602623)
(9.62951 0 0.715225)
(9.51739 0 0.834813)
(9.39065 0 0.962605)
(9.24909 0 1.09982)
(9.0924 0 1.24767)
(8.92021 0 1.40739)
(8.73205 0 1.58017)
(8.52732 0 1.76722)
(8.30531 0 1.96969)
(8.06511 0 2.18863)
(7.80555 0 2.42495)
(7.52509 0 2.67933)
(7.22167 0 2.95208)
(6.89248 0 3.24298)
(6.5337 0 3.55093)
(6.14009 0 3.8736)
(5.70462 0 4.20677)
(5.218 0 4.54338)
(4.66847 0 4.87233)
(4.04233 0 5.17674)
(3.32316 0 5.43193)
(2.5093 0 5.60142)
(1.54154 0 5.64279)
(0.663906 0 5.41723)
(9.99384 0 0.10671)
(9.9733 0 0.212011)
(9.93679 0 0.317519)
(9.88557 0 0.424879)
(9.82063 0 0.535618)
(9.74224 0 0.651158)
(9.65043 0 0.772833)
(9.54516 0 0.90194)
(9.42635 0 1.03976)
(9.29387 0 1.18759)
(9.14748 0 1.34672)
(8.98688 0 1.51845)
(8.81167 0 1.70411)
(8.62134 0 1.905)
(8.4152 0 2.12246)
(8.19239 0 2.35776)
(7.95171 0 2.61214)
(7.69158 0 2.88673)
(7.4098 0 3.18248)
(7.10334 0 3.50006)
(6.76799 0 3.83966)
(6.39791 0 4.2007)
(5.98507 0 4.5813)
(5.51852 0 4.97737)
(4.98375 0 5.38125)
(4.36258 0 5.77934)
(3.6312 0 6.14872)
(2.77948 0 6.45002)
(1.73298 0 6.62762)
(0.744606 0 6.50202)
(9.9942 0 0.114012)
(9.97487 0 0.226586)
(9.94055 0 0.339491)
(9.89251 0 0.454447)
(9.83173 0 0.573014)
(9.7585 0 0.696648)
(9.67287 0 0.826741)
(9.57486 0 0.96465)
(9.46446 0 1.11172)
(9.34159 0 1.2693)
(9.20612 0 1.43874)
(9.05781 0 1.62145)
(8.89638 0 1.81882)
(8.72139 0 2.0323)
(8.53227 0 2.2634)
(8.32823 0 2.51362)
(8.10819 0 2.78455)
(7.87061 0 3.07778)
(7.61336 0 3.39496)
(7.33342 0 3.73773)
(7.02654 0 4.10769)
(6.68669 0 4.50625)
(6.30533 0 4.9343)
(5.87042 0 5.39156)
(5.365 0 5.87536)
(4.76602 0 6.37807)
(4.03977 0 6.8828)
(3.16054 0 7.35275)
(2.02402 0 7.72206)
(0.880367 0 7.75562)
(9.99459 0 0.120859)
(9.97657 0 0.240236)
(9.94461 0 0.360026)
(9.89995 0 0.482025)
(9.84356 0 0.607828)
(9.77575 0 0.738923)
(9.69661 0 0.876747)
(9.60622 0 1.0227)
(9.50462 0 1.17819)
(9.39182 0 1.3446)
(9.26778 0 1.52335)
(9.13238 0 1.7159)
(8.98542 0 1.92374)
(8.82662 0 2.14845)
(8.65554 0 2.39166)
(8.47156 0 2.65513)
(8.27377 0 2.94075)
(8.06088 0 3.25059)
(7.83102 0 3.58696)
(7.58148 0 3.95247)
(7.30839 0 4.35014)
(7.00615 0 4.78346)
(6.66659 0 5.25638)
(6.2777 0 5.77317)
(5.82151 0 6.33781)
(5.27136 0 6.95234)
(4.58325 0 7.61326)
(3.70861 0 8.30009)
(2.48702 0 8.95675)
(1.12383 0 9.29108)
(9.99501 0 0.127217)
(9.97838 0 0.252897)
(9.94891 0 0.379039)
(9.90779 0 0.507512)
(9.85598 0 0.639941)
(9.79381 0 0.777843)
(9.72142 0 0.922689)
(9.63893 0 1.07592)
(9.54646 0 1.23897)
(9.44411 0 1.41326)
(9.33193 0 1.60026)
(9.20991 0 1.80148)
(9.07801 0 2.01848)
(8.93609 0 2.25292)
(8.7839 0 2.50658)
(8.62106 0 2.7814)
(8.44695 0 3.07954)
(8.26063 0 3.40348)
(8.06071 0 3.75609)
(7.84514 0 4.14085)
(7.6109 0 4.56206)
(7.35355 0 5.02511)
(7.06646 0 5.53694)
(6.73953 0 6.10653)
(6.3568 0 6.74556)
(5.89266 0 7.46906)
(5.29905 0 8.29613)
(4.50686 0 9.24718)
(3.26685 0 10.34)
(1.60376 0 11.3557)
(9.99545 0 0.133057)
(9.98026 0 0.264516)
(9.95339 0 0.396461)
(9.91596 0 0.530814)
(9.86888 0 0.669232)
(9.81253 0 0.813254)
(9.74707 0 0.964373)
(9.67271 0 1.12406)
(9.58963 0 1.29376)
(9.49801 0 1.47493)
(9.39801 0 1.66906)
(9.28975 0 1.8777)
(9.17334 0 2.10244)
(9.04882 0 2.34502)
(8.91618 0 2.6073)
(8.7753 0 2.89136)
(8.62595 0 3.19955)
(8.46767 0 3.53463)
(8.29973 0 3.89991)
(8.121 0 4.29948)
(7.92975 0 4.73856)
(7.72343 0 5.22398)
(7.49818 0 5.76497)
(7.2481 0 6.37434)
(6.96368 0 7.07049)
(6.62935 0 7.88123)
(6.21229 0 8.8519)
(5.66305 0 10.0653)
(4.68675 0 11.7291)
(2.68482 0 14.586)
(0.121261 0 -0.120065)
(0.284444 0 -0.109196)
(0.450883 0 -0.085698)
(0.589393 0 -0.0629636)
(0.694411 0 -0.0436397)
(0.769619 0 -0.0276475)
(0.819749 0 -0.0144067)
(0.848461 0 -0.00340091)
(0.858556 0 0.00556344)
(0.85266 0 0.0117705)
(0.833161 0 0.0161565)
(0.802938 0 0.0190757)
(0.764859 0 0.02067)
(0.72169 0 0.0210161)
(0.676181 0 0.020223)
(0.631 0 0.0184775)
(0.588498 0 0.0160518)
(0.550469 0 0.0132904)
(0.517982 0 0.0105562)
(0.491294 0 0.00816319)
(0.469891 0 0.00630429)
(0.452723 0 0.00500291)
(0.438612 0 0.00413253)
(0.426634 0 0.00351835)
(0.416259 0 0.00302094)
(0.407274 0 0.00257534)
(0.399598 0 0.00218675)
(0.393094 0 0.0018923)
(0.387488 0 0.00169061)
(0.381767 0 0.0013329)
(0.105369 0 -0.283241)
(0.265954 0 -0.265146)
(0.422845 0 -0.214938)
(0.556523 0 -0.165167)
(0.663134 0 -0.12251)
(0.746231 0 -0.0869185)
(0.809924 0 -0.0571374)
(0.85727 0 -0.0319773)
(0.89022 0 -0.010576)
(0.910444 0 0.00744653)
(0.916538 0 0.021562)
(0.910835 0 0.0320461)
(0.896103 0 0.0390672)
(0.875137 0 0.0427428)
(0.850769 0 0.0433273)
(0.825724 0 0.0412803)
(0.802366 0 0.0372331)
(0.782459 0 0.0319295)
(0.767005 0 0.0261811)
(0.756167 0 0.0207649)
(0.74934 0 0.016261)
(0.745444 0 0.0128932)
(0.743382 0 0.0105024)
(0.742388 0 0.00875479)
(0.742101 0 0.00733834)
(0.742432 0 0.00607997)
(0.743354 0 0.00496226)
(0.744729 0 0.00406025)
(0.746203 0 0.00343008)
(0.747511 0 0.00294366)
(0.0850241 0 -0.450086)
(0.225574 0 -0.420569)
(0.352991 0 -0.343544)
(0.461445 0 -0.268064)
(0.548125 0 -0.203819)
(0.616729 0 -0.150382)
(0.670505 0 -0.105847)
(0.711771 0 -0.0684484)
(0.742315 0 -0.0366968)
(0.763353 0 -0.00899207)
(0.777529 0 0.0142341)
(0.782675 0 0.0321788)
(0.780934 0 0.0446378)
(0.774387 0 0.0516192)
(0.765222 0 0.0535324)
(0.755537 0 0.0511476)
(0.74708 0 0.0454825)
(0.741097 0 0.0377373)
(0.738232 0 0.0292414)
(0.738441 0 0.021296)
(0.741028 0 0.0148863)
(0.744895 0 0.0103723)
(0.749025 0 0.00742375)
(0.752818 0 0.00545481)
(0.756087 0 0.00395935)
(0.758889 0 0.00268209)
(0.76132 0 0.00162803)
(0.763382 0 0.000943455)
(0.764931 0 0.000763181)
(0.765629 0 0.00123172)
(0.0652164 0 -0.584885)
(0.179974 0 -0.53884)
(0.271156 0 -0.437473)
(0.349627 0 -0.341723)
(0.411355 0 -0.261576)
(0.460848 0 -0.195231)
(0.500263 0 -0.139993)
(0.531023 0 -0.09355)
(0.554245 0 -0.0541966)
(0.570375 0 -0.0208955)
(0.583217 0 0.00713987)
(0.588963 0 0.0296607)
(0.589917 0 0.0455403)
(0.588045 0 0.054395)
(0.585176 0 0.0568038)
(0.582764 0 0.0538454)
(0.581786 0 0.0468767)
(0.582769 0 0.037504)
(0.585775 0 0.0274802)
(0.590351 0 0.0184984)
(0.595494 0 0.011776)
(0.599868 0 0.00763322)
(0.602447 0 0.00539664)
(0.602916 0 0.00420224)
(0.601456 0 0.00339112)
(0.598483 0 0.00264468)
(0.594436 0 0.00199214)
(0.589651 0 0.00162292)
(0.584342 0 0.00168025)
(0.577744 0 0.00243411)
(0.0446931 0 -0.68938)
(0.128446 0 -0.622063)
(0.177935 0 -0.49959)
(0.224151 0 -0.389972)
(0.257664 0 -0.299917)
(0.285034 0 -0.225729)
(0.306985 0 -0.164065)
(0.324306 0 -0.112195)
(0.337629 0 -0.0681885)
(0.346839 0 -0.0307178)
(0.354275 0 0.00173961)
(0.357586 0 0.0274095)
(0.357657 0 0.0451945)
(0.356421 0 0.0547005)
(0.355523 0 0.0568587)
(0.355637 0 0.0530793)
(0.356767 0 0.0450265)
(0.358513 0 0.0345775)
(0.360217 0 0.0237023)
(0.361052 0 0.0144255)
(0.359957 0 0.00844039)
(0.35566 0 0.00590753)
(0.347675 0 0.00547852)
(0.336632 0 0.00599964)
(0.323387 0 0.00658946)
(0.308782 0 0.00680162)
(0.293481 0 0.00670132)
(0.277875 0 0.00664566)
(0.262407 0 0.00700027)
(0.245436 0 0.00712479)
(0.0229529 0 -0.758476)
(0.0705353 0 -0.66614)
(0.0742848 0 -0.525988)
(0.0865532 0 -0.408581)
(0.0887594 0 -0.313456)
(0.0907029 0 -0.235656)
(0.0913673 0 -0.171337)
(0.0915857 0 -0.11747)
(0.0919911 0 -0.0720528)
(0.0919238 0 -0.0342031)
(0.0929303 0 -0.0013122)
(0.0890609 0 0.0276503)
(0.0858392 0 0.047055)
(0.0823673 0 0.0563681)
(0.0794689 0 0.0576499)
(0.0759822 0 0.0531848)
(0.070253 0 0.0451058)
(0.0606356 0 0.0354712)
(0.0460989 0 0.0263124)
(0.0275554 0 0.0194361)
(0.00649725 0 0.0160672)
(-0.0149091 0 0.0158753)
(-0.034765 0 0.0170798)
(-0.0530636 0 0.0181431)
(-0.0703559 0 0.0184212)
(-0.0867158 0 0.0179617)
(-0.102204 0 0.0172775)
(-0.116999 0 0.0168476)
(-0.131572 0 0.0161289)
(-0.145007 0 0.013484)
(-0.00142255 0 -0.7858)
(0.00479341 0 -0.666201)
(-0.038482 0 -0.512863)
(-0.0635454 0 -0.393634)
(-0.0952768 0 -0.298241)
(-0.122928 0 -0.2216)
(-0.147997 0 -0.159221)
(-0.169677 0 -0.107752)
(-0.188029 0 -0.064198)
(-0.205289 0 -0.0260414)
(-0.22807 0 0.00803554)
(-0.236352 0 0.034754)
(-0.243259 0 0.0511013)
(-0.25103 0 0.0593405)
(-0.260274 0 0.0612509)
(-0.272239 0 0.0588275)
(-0.287428 0 0.053764)
(-0.305673 0 0.0475305)
(-0.326277 0 0.0413647)
(-0.34822 0 0.0360694)
(-0.370384 0 0.0321656)
(-0.391563 0 0.0298498)
(-0.411079 0 0.0287403)
(-0.428493 0 0.0278041)
(-0.443787 0 0.0265101)
(-0.456981 0 0.024908)
(-0.468356 0 0.0233457)
(-0.478436 0 0.0220089)
(-0.487682 0 0.0204041)
(-0.494527 0 0.0181812)
(-0.0314442 0 -0.763795)
(-0.0713867 0 -0.618066)
(-0.159138 0 -0.46253)
(-0.227164 0 -0.345598)
(-0.295037 0 -0.254837)
(-0.355596 0 -0.183538)
(-0.409293 0 -0.126171)
(-0.456024 0 -0.0787932)
(-0.496089 0 -0.0382497)
(-0.531222 0 -0.00362172)
(-0.557758 0 0.0233516)
(-0.572369 0 0.0434343)
(-0.584792 0 0.0581315)
(-0.595873 0 0.0667826)
(-0.607553 0 0.0700993)
(-0.62085 0 0.0693158)
(-0.636018 0 0.0655917)
(-0.652826 0 0.060093)
(-0.670864 0 0.0540285)
(-0.689707 0 0.0484936)
(-0.708802 0 0.0441902)
(-0.72744 0 0.0411482)
(-0.74484 0 0.0388325)
(-0.760271 0 0.0364479)
(-0.773278 0 0.0336241)
(-0.78378 0 0.0306101)
(-0.792179 0 0.0279179)
(-0.799248 0 0.0257476)
(-0.805464 0 0.0237367)
(-0.80938 0 0.0219154)
(-0.0680672 0 -0.689681)
(-0.155409 0 -0.52277)
(-0.291782 0 -0.370027)
(-0.404835 0 -0.260672)
(-0.509722 0 -0.180591)
(-0.600707 0 -0.120337)
(-0.678071 0 -0.0728427)
(-0.742911 0 -0.0343919)
(-0.796935 0 -0.00315972)
(-0.835855 0 0.0212313)
(-0.861497 0 0.0403594)
(-0.881705 0 0.0559163)
(-0.897094 0 0.0678225)
(-0.909684 0 0.0753891)
(-0.921381 0 0.0787825)
(-0.933473 0 0.0785722)
(-0.946531 0 0.0754783)
(-0.960587 0 0.0704419)
(-0.975474 0 0.0646226)
(-0.991041 0 0.0591329)
(-1.0071 0 0.0546322)
(-1.02322 0 0.0510427)
(-1.03869 0 0.0477179)
(-1.05257 0 0.043942)
(-1.06407 0 0.0395539)
(-1.07291 0 0.0350844)
(-1.07952 0 0.031272)
(-1.08483 0 0.0284051)
(-1.08934 0 0.0262396)
(-1.09189 0 0.0248402)
(-0.114661 0 -0.557351)
(-0.2555 0 -0.377097)
(-0.445842 0 -0.236482)
(-0.6019 0 -0.143851)
(-0.739555 0 -0.0799589)
(-0.854887 0 -0.0358723)
(-0.946801 0 -0.00534186)
(-1.01558 0 0.0164893)
(-1.06521 0 0.0331712)
(-1.10285 0 0.0471294)
(-1.13229 0 0.0595287)
(-1.15486 0 0.070231)
(-1.17188 0 0.0785239)
(-1.18515 0 0.0840216)
(-1.19657 0 0.0866822)
(-1.20767 0 0.0865501)
(-1.2192 0 0.0838045)
(-1.23125 0 0.0790571)
(-1.24372 0 0.0734119)
(-1.25666 0 0.0680496)
(-1.27024 0 0.0636049)
(-1.2844 0 0.0598288)
(-1.29851 0 0.0558464)
(-1.31144 0 0.0508644)
(-1.32203 0 0.0448958)
(-1.32972 0 0.0388588)
(-1.335 0 0.0338695)
(-1.33899 0 0.0303825)
(-1.34229 0 0.0281711)
(-1.34404 0 0.0270989)
(-0.181359 0 -0.363522)
(-0.394861 0 -0.185341)
(-0.659867 0 -0.0490319)
(-0.850345 0 0.0138581)
(-0.995738 0 0.0415031)
(-1.10446 0 0.0533626)
(-1.18679 0 0.0592664)
(-1.25134 0 0.0639071)
(-1.30183 0 0.0687534)
(-1.34133 0 0.0742984)
(-1.37207 0 0.0801791)
(-1.39559 0 0.0855839)
(-1.41319 0 0.0898076)
(-1.4265 0 0.0926875)
(-1.43753 0 0.0941732)
(-1.44799 0 0.093849)
(-1.45867 0 0.0912333)
(-1.46946 0 0.0865151)
(-1.48014 0 0.0808052)
(-1.49092 0 0.075508)
(-1.50245 0 0.0713209)
(-1.51511 0 0.0677407)
(-1.52842 0 0.0634758)
(-1.54095 0 0.0574651)
(-1.55103 0 0.0498436)
(-1.55779 0 0.0420534)
(-1.56179 0 0.0358032)
(-1.5645 0 0.0317882)
(-1.56674 0 0.0296244)
(-1.5679 0 0.028798)
(-0.298369 0 -0.0426743)
(-0.587179 0 0.144061)
(-0.861455 0 0.173329)
(-1.05717 0 0.168774)
(-1.20514 0 0.153076)
(-1.31671 0 0.135968)
(-1.40156 0 0.122101)
(-1.4667 0 0.111968)
(-1.51678 0 0.105167)
(-1.5554 0 0.101791)
(-1.58542 0 0.101037)
(-1.60856 0 0.101201)
(-1.62573 0 0.101172)
(-1.63829 0 0.101116)
(-1.64847 0 0.101275)
(-1.65833 0 0.100778)
(-1.66859 0 0.0982382)
(-1.67868 0 0.0932675)
(-1.68793 0 0.0871184)
(-1.69673 0 0.0817127)
(-1.70634 0 0.0779738)
(-1.7178 0 0.0750327)
(-1.7308 0 0.0709068)
(-1.74349 0 0.0640139)
(-1.75345 0 0.0545436)
(-1.75931 0 0.0446613)
(-1.76183 0 0.0369943)
(-1.76306 0 0.0325806)
(-1.76425 0 0.0306161)
(-1.76494 0 0.0299961)
(-0.38963 0 0.436756)
(-0.727188 0 0.474575)
(-1.05228 0 0.406237)
(-1.26752 0 0.333417)
(-1.41951 0 0.271465)
(-1.52795 0 0.220466)
(-1.60735 0 0.183482)
(-1.6675 0 0.157839)
(-1.7132 0 0.139419)
(-1.74787 0 0.127438)
(-1.77508 0 0.12076)
(-1.79665 0 0.116242)
(-1.81254 0 0.11184)
(-1.82337 0 0.108485)
(-1.83184 0 0.107376)
(-1.84083 0 0.107157)
(-1.85103 0 0.104971)
(-1.86089 0 0.0995109)
(-1.8689 0 0.0923944)
(-1.87552 0 0.0865958)
(-1.883 0 0.0835648)
(-1.89339 0 0.0818834)
(-1.90661 0 0.0784547)
(-1.92013 0 0.0708245)
(-1.93039 0 0.0591463)
(-1.93527 0 0.0465985)
(-1.93586 0 0.0372366)
(-1.93522 0 0.0326326)
(-1.9353 0 0.0311592)
(-1.93562 0 0.0307522)
(-0.516472 0 0.963125)
(-0.949536 0 0.885462)
(-1.31553 0 0.671727)
(-1.51827 0 0.498735)
(-1.65169 0 0.382716)
(-1.74259 0 0.29344)
(-1.80552 0 0.235657)
(-1.85404 0 0.199588)
(-1.8916 0 0.171232)
(-1.91929 0 0.150279)
(-1.94159 0 0.138283)
(-1.96083 0 0.130035)
(-1.97493 0 0.121271)
(-1.98282 0 0.114248)
(-1.98814 0 0.112297)
(-1.9957 0 0.113518)
(-2.00628 0 0.112398)
(-2.01659 0 0.106072)
(-2.02342 0 0.096959)
(-2.02726 0 0.0901018)
(-2.03197 0 0.0880388)
(-2.04121 0 0.0884719)
(-2.05524 0 0.0864977)
(-2.07047 0 0.0782922)
(-2.08159 0 0.0638297)
(-2.08531 0 0.0476916)
(-2.08315 0 0.0361576)
(-2.07998 0 0.0317209)
(-2.07887 0 0.0313049)
(-2.07896 0 0.0311899)
(-0.758367 0 2.02049)
(-1.29885 0 1.57732)
(-1.69265 0 0.972317)
(-1.82878 0 0.583714)
(-1.90554 0 0.450777)
(-1.95994 0 0.345537)
(-1.99014 0 0.278775)
(-2.02146 0 0.237466)
(-2.05116 0 0.194341)
(-2.0697 0 0.160157)
(-2.08392 0 0.147015)
(-2.09995 0 0.141062)
(-2.1122 0 0.130072)
(-2.11563 0 0.118327)
(-2.11556 0 0.11481)
(-2.12083 0 0.118728)
(-2.13277 0 0.11959)
(-2.14479 0 0.111791)
(-2.15046 0 0.0991765)
(-2.15024 0 0.0904502)
(-2.1508 0 0.0901401)
(-2.15848 0 0.0944023)
(-2.17399 0 0.0952725)
(-2.1921 0 0.0868738)
(-2.20487 0 0.0688366)
(-2.20705 0 0.0476714)
(-2.20083 0 0.0331397)
(-2.19402 0 0.0294714)
(-2.19165 0 0.0311854)
(-2.19178 0 0.0316187)
(9.9959 0 0.138452)
(9.98225 0 0.27525)
(9.9581 0 0.412543)
(9.92453 0 0.552298)
(9.88242 0 0.696193)
(9.83216 0 0.845781)
(9.77399 0 1.00257)
(9.70815 0 1.16803)
(9.63492 0 1.34363)
(9.55457 0 1.53084)
(9.46739 0 1.73114)
(9.37362 0 1.94608)
(9.27354 0 2.1773)
(9.1674 0 2.42654)
(9.05544 0 2.6957)
(8.9379 0 2.98693)
(8.81495 0 3.30268)
(8.68674 0 3.64584)
(8.55332 0 4.01993)
(8.4147 0 4.42932)
(8.2708 0 4.87965)
(8.12149 0 5.37839)
(7.96671 0 5.9357)
(7.8067 0 6.56595)
(7.64263 0 7.29018)
(7.47942 0 8.14097)
(7.33021 0 9.17224)
(7.28476 0 10.4774)
(7.73972 0 12.2012)
(7.91538 0 14.9178)
(9.99638 0 0.143411)
(9.98434 0 0.285105)
(9.96305 0 0.427271)
(9.93352 0 0.571908)
(9.89656 0 0.720708)
(9.85262 0 0.875229)
(9.80197 0 1.03698)
(9.74492 0 1.20744)
(9.68184 0 1.38805)
(9.61309 0 1.58029)
(9.53907 0 1.78562)
(9.46018 0 2.00559)
(9.37687 0 2.24179)
(9.28962 0 2.49596)
(9.19894 0 2.76999)
(9.10541 0 3.06598)
(9.00969 0 3.38637)
(8.91252 0 3.73401)
(8.81481 0 4.11235)
(8.71773 0 4.52565)
(8.6229 0 4.97934)
(8.53266 0 5.48044)
(8.45071 0 6.03829)
(8.3833 0 6.66547)
(8.34156 0 7.37923)
(8.34749 0 8.20298)
(8.43983 0 9.16692)
(8.67433 0 10.3044)
(9.31945 0 11.5605)
(9.80664 0 12.6526)
(9.99688 0 0.147848)
(9.98651 0 0.293917)
(9.96819 0 0.440421)
(9.94283 0 0.589378)
(9.91121 0 0.742481)
(9.87378 0 0.901283)
(9.83086 0 1.06728)
(9.78284 0 1.24193)
(9.73014 0 1.42667)
(9.67323 0 1.62293)
(9.61263 0 1.83214)
(9.54889 0 2.0558)
(9.48262 0 2.29545)
(9.41452 0 2.55276)
(9.34539 0 2.82954)
(9.27615 0 3.12777)
(9.2079 0 3.44974)
(9.14198 0 3.79808)
(9.08006 0 4.17591)
(9.02436 0 4.587)
(8.97789 0 5.03595)
(8.94492 0 5.52845)
(8.93174 0 6.07148)
(8.94785 0 6.67346)
(9.00773 0 7.34386)
(9.13347 0 8.09136)
(9.35608 0 8.91794)
(9.68509 0 9.81267)
(10.2505 0 10.7244)
(10.9379 0 11.444)
(9.9974 0 0.15171)
(9.98874 0 0.301578)
(9.97347 0 0.451827)
(9.95239 0 0.604476)
(9.92623 0 0.76121)
(9.89545 0 0.923566)
(9.86042 0 1.09302)
(9.82158 0 1.27099)
(9.77943 0 1.45887)
(9.73453 0 1.65805)
(9.68748 0 1.8699)
(9.63899 0 2.09584)
(9.58984 0 2.33733)
(9.54093 0 2.5959)
(9.49329 0 2.87322)
(9.44818 0 3.17108)
(9.40707 0 3.49149)
(9.37178 0 3.83672)
(9.34462 0 4.20935)
(9.32855 0 4.61236)
(9.3275 0 5.04915)
(9.34677 0 5.52358)
(9.39361 0 6.03978)
(9.47791 0 6.60174)
(9.61287 0 7.21226)
(9.81535 0 7.87106)
(10.1081 0 8.57111)
(10.5 0 9.29783)
(11.0578 0 10.0411)
(11.8515 0 10.688)
(9.99792 0 0.154949)
(9.99101 0 0.307996)
(9.97884 0 0.461354)
(9.96212 0 0.617026)
(9.9415 0 0.776679)
(9.91746 0 0.941819)
(9.8904 0 1.11388)
(9.86082 0 1.29425)
(9.82928 0 1.48426)
(9.79642 0 1.68522)
(9.76294 0 1.89843)
(9.72965 0 2.1252)
(9.69748 0 2.36686)
(9.66751 0 2.62478)
(9.64098 0 2.90042)
(9.61938 0 3.19532)
(9.60449 0 3.51113)
(9.59849 0 3.84963)
(9.60407 0 4.21275)
(9.62462 0 4.60252)
(9.66445 0 5.02107)
(9.72909 0 5.47041)
(9.82563 0 5.95218)
(9.96302 0 6.46707)
(10.1523 0 7.01404)
(10.4067 0 7.58923)
(10.7434 0 8.18455)
(11.1741 0 8.78534)
(11.7219 0 9.38002)
(12.4761 0 9.89367)
(9.99845 0 0.157522)
(9.9933 0 0.313086)
(9.98427 0 0.468874)
(9.97194 0 0.626862)
(9.9569 0 0.788682)
(9.93962 0 0.955802)
(9.92055 0 1.12961)
(9.90023 0 1.31142)
(9.87926 0 1.5025)
(9.85834 0 1.70408)
(9.83827 0 1.91735)
(9.81994 0 2.14348)
(9.80441 0 2.38366)
(9.79286 0 2.63907)
(9.78671 0 2.9109)
(9.78761 0 3.20039)
(9.79753 0 3.50878)
(9.81883 0 3.83732)
(9.85438 0 4.18724)
(9.90767 0 4.55966)
(9.98299 0 4.95548)
(10.0856 0 5.3752)
(10.2217 0 5.81855)
(10.3991 0 6.28408)
(10.6264 0 6.76856)
(10.9133 0 7.26622)
(11.2713 0 7.76785)
(11.7082 0 8.25789)
(12.225 0 8.71964)
(12.9019 0 9.11155)
(9.99898 0 0.159391)
(9.9956 0 0.316771)
(9.98971 0 0.474275)
(9.98176 0 0.633836)
(9.97229 0 0.79704)
(9.96174 0 0.965304)
(9.9506 0 1.13995)
(9.93943 0 1.32223)
(9.92888 0 1.51332)
(9.9197 0 1.71435)
(9.91273 0 1.92637)
(9.90895 0 2.15044)
(9.90948 0 2.38754)
(9.9156 0 2.63864)
(9.92879 0 2.90467)
(9.95082 0 3.18652)
(9.9837 0 3.48502)
(10.0299 0 3.80088)
(10.0921 0 4.13467)
(10.1738 0 4.48669)
(10.2789 0 4.85685)
(10.4121 0 5.24444)
(10.5785 0 5.6479)
(10.7843 0 6.06442)
(11.0357 0 6.48953)
(11.3393 0 6.91653)
(11.7011 0 7.33606)
(12.1254 0 7.73471)
(12.606 0 8.09787)
(13.2126 0 8.40498)
(9.99951 0 0.160522)
(9.99789 0 0.318984)
(9.9951 0 0.47746)
(9.99151 0 0.637822)
(9.98753 0 0.801602)
(9.98362 0 0.970153)
(9.98028 0 1.14473)
(9.97808 0 1.32649)
(9.97769 0 1.51652)
(9.9799 0 1.71583)
(9.98559 0 1.92535)
(9.99577 0 2.14596)
(10.0116 0 2.37846)
(10.0344 0 2.6236)
(10.0656 0 2.88203)
(10.1071 0 3.1543)
(10.1608 0 3.44083)
(10.2291 0 3.74186)
(10.3145 0 4.05737)
(10.4202 0 4.38699)
(10.5495 0 4.72985)
(10.7063 0 5.08445)
(10.8947 0 5.44838)
(11.1192 0 5.81815)
(11.3838 0 6.18883)
(11.6926 0 6.55386)
(12.0482 0 6.90497)
(12.4524 0 7.23181)
(12.8973 0 7.52321)
(13.4413 0 7.76781)
(10 0 0.160886)
(10.0001 0 0.319671)
(10.0004 0 0.478348)
(10.0011 0 0.63872)
(10.0025 0 0.802251)
(10.0051 0 0.97022)
(10.0093 0 1.1438)
(10.0158 0 1.32406)
(10.0252 0 1.51198)
(10.0384 0 1.70844)
(10.0561 0 1.91424)
(10.0795 0 2.1301)
(10.1097 0 2.35661)
(10.1479 0 2.5943)
(10.1957 0 2.84355)
(10.2548 0 3.10461)
(10.327 0 3.37754)
(10.4144 0 3.66214)
(10.5195 0 3.95795)
(10.6447 0 4.26408)
(10.793 0 4.57913)
(10.9674 0 4.90111)
(11.1707 0 5.2272)
(11.4061 0 5.55371)
(11.6761 0 5.87587)
(11.9826 0 6.18783)
(12.3264 0 6.4827)
(12.7073 0 6.75263)
(13.1177 0 6.98926)
(13.6062 0 7.18569)
(10.0005 0 0.160463)
(10.0023 0 0.318789)
(10.0056 0 0.476881)
(10.0104 0 0.636456)
(10.0171 0 0.798902)
(10.0259 0 0.965419)
(10.0375 0 1.13709)
(10.0523 0 1.31488)
(10.0711 0 1.49967)
(10.0946 0 1.69221)
(10.1237 0 1.89315)
(10.1594 0 2.10305)
(10.2028 0 2.32232)
(10.2552 0 2.55126)
(10.3179 0 2.79003)
(10.3926 0 3.03859)
(10.4808 0 3.29669)
(10.5845 0 3.56383)
(10.7057 0 3.83916)
(10.8464 0 4.12147)
(11.009 0 4.40906)
(11.1956 0 4.69967)
(11.4082 0 4.99042)
(11.6486 0 5.27774)
(11.9183 0 5.55731)
(12.2177 0 5.82416)
(12.5465 0 6.07274)
(12.9032 0 6.29713)
(13.281 0 6.49129)
(13.7215 0 6.65101)
(10.001 0 0.159237)
(10.0044 0 0.31631)
(10.0106 0 0.473017)
(10.0194 0 0.630984)
(10.0311 0 0.791511)
(10.0459 0 0.955713)
(10.0645 0 1.12458)
(10.0872 0 1.29897)
(10.1148 0 1.47965)
(10.148 0 1.66726)
(10.1877 0 1.86229)
(10.2348 0 2.06515)
(10.2902 0 2.27608)
(10.3553 0 2.4952)
(10.4312 0 2.72243)
(10.5194 0 2.95753)
(10.6212 0 3.19999)
(10.7384 0 3.44908)
(10.8724 0 3.70373)
(11.0249 0 3.9625)
(11.1977 0 4.22357)
(11.3921 0 4.48465)
(11.6094 0 4.74296)
(11.8505 0 4.99524)
(12.1159 0 5.23777)
(12.4052 0 5.46645)
(12.7174 0 5.67693)
(13.0506 0 5.86484)
(13.3986 0 6.02594)
(13.798 0 6.1577)
(10.0015 0 0.1572)
(10.0065 0 0.312218)
(10.0154 0 0.46674)
(10.028 0 0.622287)
(10.0445 0 0.78007)
(10.065 0 0.941111)
(10.0901 0 1.1063)
(10.1203 0 1.2764)
(10.1561 0 1.45207)
(10.1983 0 1.6338)
(10.2477 0 1.82198)
(10.305 0 2.01685)
(10.3713 0 2.21853)
(10.4475 0 2.42694)
(10.5349 0 2.64185)
(10.6345 0 2.86283)
(10.7476 0 3.08921)
(10.8755 0 3.32009)
(11.0194 0 3.55426)
(11.1805 0 3.79023)
(11.36 0 4.02614)
(11.5586 0 4.25981)
(11.7771 0 4.48871)
(12.0157 0 4.70997)
(12.2742 0 4.92047)
(12.5519 0 5.11694)
(12.8471 0 5.29604)
(13.1581 0 5.45461)
(13.4793 0 5.5897)
(13.8432 0 5.69982)
(10.0019 0 0.154351)
(10.0084 0 0.306514)
(10.0199 0 0.458052)
(10.0362 0 0.610378)
(10.0571 0 0.764607)
(10.083 0 0.921666)
(10.1142 0 1.08235)
(10.1513 0 1.24732)
(10.1947 0 1.41712)
(10.2451 0 1.59213)
(10.3031 0 1.77262)
(10.3696 0 1.95872)
(10.4454 0 2.15038)
(10.5314 0 2.34741)
(10.6285 0 2.54946)
(10.7376 0 2.75594)
(10.8598 0 2.9661)
(10.996 0 3.17893)
(11.1471 0 3.39319)
(11.314 0 3.60738)
(11.4972 0 3.81974)
(11.6973 0 4.02827)
(11.9143 0 4.23072)
(12.1482 0 4.42467)
(12.3982 0 4.60757)
(12.6634 0 4.77685)
(12.9421 0 4.93)
(13.2323 0 5.06475)
(13.5296 0 5.17911)
(13.8629 0 5.27222)
(10.0024 0 0.150697)
(10.0102 0 0.299211)
(10.0241 0 0.446978)
(10.0438 0 0.595297)
(10.0689 0 0.745187)
(10.0998 0 0.897479)
(10.1366 0 1.05287)
(10.18 0 1.21193)
(10.2303 0 1.37508)
(10.288 0 1.54263)
(10.3538 0 1.71472)
(10.4284 0 1.89137)
(10.5124 0 2.07243)
(10.6066 0 2.25762)
(10.7117 0 2.44646)
(10.8286 0 2.63832)
(10.9578 0 2.83237)
(11.1002 0 3.02757)
(11.2562 0 3.2227)
(11.4264 0 3.41634)
(11.6112 0 3.60687)
(11.8104 0 3.79251)
(12.0241 0 3.97132)
(12.2517 0 4.14131)
(12.4924 0 4.30043)
(12.7449 0 4.44669)
(13.0077 0 4.57825)
(13.279 0 4.69349)
(13.5549 0 4.79108)
(13.8618 0 4.87059)
(10.0027 0 0.14625)
(10.0119 0 0.290334)
(10.0281 0 0.43356)
(10.0508 0 0.577111)
(10.0798 0 0.721907)
(10.1152 0 0.868686)
(10.1572 0 1.01805)
(10.2063 0 1.17048)
(10.2627 0 1.32631)
(10.327 0 1.48573)
(10.3996 0 1.64882)
(10.4811 0 1.81549)
(10.5721 0 1.98553)
(10.6731 0 2.15857)
(10.7848 0 2.33408)
(10.9076 0 2.51138)
(11.0421 0 2.68962)
(11.1887 0 2.8678)
(11.3477 0 3.04475)
(11.5194 0 3.21916)
(11.7037 0 3.38959)
(11.9006 0 3.55449)
(12.1095 0 3.71226)
(12.3299 0 3.86124)
(12.5607 0 3.99984)
(12.8008 0 4.12654)
(13.0487 0 4.24)
(13.3027 0 4.33909)
(13.5595 0 4.42294)
(13.8434 0 4.49139)
(10.0031 0 0.141028)
(10.0134 0 0.279922)
(10.0317 0 0.41786)
(10.0573 0 0.55591)
(10.0898 0 0.694894)
(10.1293 0 0.83546)
(10.176 0 0.978124)
(10.2301 0 1.12327)
(10.2919 0 1.27116)
(10.3619 0 1.42191)
(10.4404 0 1.5755)
(10.5278 0 1.73181)
(10.6245 0 1.89053)
(10.7311 0 2.05127)
(10.8478 0 2.21347)
(10.9751 0 2.37643)
(11.1132 0 2.53932)
(11.2624 0 2.70121)
(11.4228 0 2.86101)
(11.5944 0 3.01755)
(11.777 0 3.16957)
(11.9702 0 3.31576)
(12.1735 0 3.45479)
(12.3862 0 3.58534)
(12.6071 0 3.70618)
(12.8352 0 3.81617)
(13.0692 0 3.91433)
(13.3074 0 3.99991)
(13.5473 0 4.07235)
(13.811 0 4.13165)
(10.0034 0 0.135056)
(10.0148 0 0.268024)
(10.035 0 0.399956)
(10.0632 0 0.531805)
(10.0988 0 0.664299)
(10.142 0 0.798)
(10.1927 0 0.933341)