/*--------------------------------*- C++ -*----------------------------------*\
  =========                 |
  \\      /  F ield         | OpenFOAM: The Open Source CFD Toolbox
   \\    /   O peration     | Website:  https://openfoam.org
    \\  /    A nd           | Version:  dev
     \\/     M anipulation  |
\*---------------------------------------------------------------------------*/
FoamFile
{
    version     2.0;
    format      ascii;
    class       surfaceVectorField;
    location    "9.2";
    object      Uf;
}
// * * * * * * * * * * * * * * * * * * * * * * * * * * * * * * * * * * * * * //

dimensions      [0 1 -1 0 0 0 0];

internalField   nonuniform List<vector> 
5457
(
(9.92088 0 0.0251101)
(9.97124 0 0.0387464)
(9.82401 0 0.0328277)
(9.92859 0 0.0485865)
(9.7096 0 0.0393133)
(9.85547 0 0.0587702)
(9.57542 0 0.0460132)
(9.75679 0 0.0705962)
(9.42136 0 0.052951)
(9.63752 0 0.083017)
(9.24752 0 0.0601688)
(9.49859 0 0.0959411)
(9.05358 0 0.0678141)
(9.33927 0 0.109618)
(8.83888 0 0.0760383)
(9.1587 0 0.124295)
(8.60246 0 0.0849746)
(8.95604 0 0.140175)
(8.34319 0 0.09475)
(8.73031 0 0.157442)
(8.05975 0 0.105493)
(8.48032 0 0.17628)
(7.75069 0 0.117334)
(8.20467 0 0.196869)
(7.41443 0 0.130403)
(7.90183 0 0.219375)
(7.04935 0 0.144819)
(7.57017 0 0.243938)
(6.65386 0 0.160682)
(7.20803 0 0.270648)
(6.22653 0 0.178054)
(6.81382 0 0.299517)
(5.76622 0 0.196938)
(6.38613 0 0.330431)
(5.27235 0 0.217243)
(5.92395 0 0.3631)
(4.74514 0 0.238745)
(5.42687 0 0.396991)
(4.18595 0 0.26104)
(4.89541 0 0.431249)
(3.59772 0 0.283494)
(4.33139 0 0.464628)
(2.9853 0 0.305205)
(3.73835 0 0.495429)
(2.35587 0 0.325069)
(3.12202 0 0.521511)
(1.71887 0 0.342544)
(2.49082 0 0.540549)
(1.08413 0 0.361877)
(1.85562 0 0.551659)
(0.451632 0 0.348628)
(1.24528 0 0.563007)
(-0.145964 0 0.102388)
(0.608684 0 0.544808)
(-0.423664 0 -0.2071)
(0.0945953 0 0.259294)
(-0.40217 0 -0.361233)
(-0.133784 0 -0.0205552)
(-0.119681 0 -0.393901)
(9.99641 0 0.0516739)
(9.99705 0 0.0405059)
(9.95878 0 0.070864)
(9.9785 0 0.0674571)
(9.89823 0 0.0879904)
(9.93377 0 0.089874)
(9.81657 0 0.105989)
(9.86452 0 0.11356)
(9.71357 0 0.124928)
(9.77436 0 0.138522)
(9.58906 0 0.144861)
(9.66433 0 0.164655)
(9.4427 0 0.166099)
(9.53394 0 0.192343)
(9.27385 0 0.188978)
(9.38246 0 0.222044)
(9.0816 0 0.213795)
(9.20914 0 0.254164)
(8.86482 0 0.24083)
(9.01309 0 0.289082)
(8.62221 0 0.270353)
(8.79323 0 0.327174)
(8.35228 0 0.302626)
(8.54826 0 0.36881)
(8.05343 0 0.337878)
(8.27672 0 0.414343)
(7.72397 0 0.376285)
(7.97703 0 0.464076)
(7.3622 0 0.417926)
(7.64756 0 0.518221)
(6.96653 0 0.462732)
(7.28665 0 0.57684)
(6.53562 0 0.510411)
(6.89275 0 0.639759)
(6.0686 0 0.560356)
(6.4646 0 0.70646)
(5.56534 0 0.611541)
(6.00136 0 0.775939)
(5.02684 0 0.6624)
(5.50301 0 0.846549)
(4.45561 0 0.710717)
(4.97063 0 0.915824)
(3.85623 0 0.753541)
(4.40692 0 0.980315)
(3.23593 0 0.787187)
(3.81678 0 1.03545)
(2.60557 0 0.807482)
(3.2082 0 1.07547)
(1.98257 0 0.810438)
(2.59315 0 1.09311)
(1.4051 0 0.776847)
(1.99599 0 1.07703)
(0.92958 0 0.646327)
(1.41931 0 0.978323)
(0.439695 0 0.384239)
(0.937441 0 0.716709)
(0.059094 0 -0.118698)
(0.443645 0 0.343416)
(0.174891 0 -0.336022)
(9.98903 0 0.0594333)
(9.99481 0 0.0458794)
(9.95433 0 0.0894807)
(9.97368 0 0.0848581)
(9.89729 0 0.118038)
(9.92984 0 0.11918)
(9.82045 0 0.147906)
(9.86356 0 0.153984)
(9.72414 0 0.179432)
(9.77734 0 0.190419)
(9.60819 0 0.212788)
(9.67224 0 0.22865)
(9.47231 0 0.248407)
(9.54807 0 0.269145)
(9.31603 0 0.286792)
(9.40428 0 0.312516)
(9.13863 0 0.328418)
(9.24029 0 0.359348)
(8.93917 0 0.373746)
(9.05543 0 0.4102)
(8.71656 0 0.423233)
(8.84881 0 0.465628)
(8.46949 0 0.477325)
(8.61942 0 0.526186)
(8.19655 0 0.536431)
(8.36604 0 0.592409)
(7.89618 0 0.600876)
(8.08739 0 0.664778)
(7.56675 0 0.670846)
(7.78205 0 0.74366)
(7.20665 0 0.746293)
(7.44856 0 0.829233)
(6.81436 0 0.826818)
(7.08549 0 0.921363)
(6.38865 0 0.911516)
(6.6915 0 1.01945)
(5.9288 0 0.998787)
(6.26549 0 1.12221)
(5.43489 0 1.08612)
(5.80688 0 1.22746)
(4.90829 0 1.16984)
(5.31582 0 1.33177)
(4.35217 0 1.24489)
(4.79372 0 1.4302)
(3.77234 0 1.30453)
(4.24371 0 1.51587)
(3.17849 0 1.33981)
(3.67156 0 1.5794)
(2.58641 0 1.33807)
(3.08609 0 1.60769)
(2.01968 0 1.27289)
(2.50272 0 1.5815)
(1.48679 0 1.09531)
(1.92856 0 1.46414)
(0.958185 0 0.769054)
(1.38512 0 1.21027)
(0.479811 0 0.202307)
(0.829454 0 0.800888)
(0.433688 0 0.133923)
(9.98515 0 0.0716173)
(9.99367 0 0.0531504)
(9.95039 0 0.113636)
(9.97087 0 0.102296)
(9.89436 0 0.154141)
(9.9269 0 0.147961)
(9.81881 0 0.195584)
(9.86184 0 0.193732)
(9.7244 0 0.238825)
(9.77745 0 0.241291)
(9.6111 0 0.284341)
(9.67465 0 0.291181)
(9.47871 0 0.332741)
(9.5534 0 0.343977)
(9.3269 0 0.384698)
(9.41332 0 0.400397)
(9.15517 0 0.440875)
(9.25395 0 0.461169)
(8.96284 0 0.501916)
(9.07477 0 0.526995)
(8.74908 0 0.568464)
(8.87512 0 0.598575)
(8.51294 0 0.641152)
(8.6542 0 0.676606)
(8.25334 0 0.720574)
(8.41112 0 0.761769)
(7.96912 0 0.807237)
(8.14487 0 0.854688)
(7.65902 0 0.901487)
(7.8544 0 0.955874)
(7.32174 0 1.0034)
(7.53858 0 1.06563)
(6.95601 0 1.11262)
(7.19627 0 1.1839)
(6.56063 0 1.22818)
(6.82632 0 1.31014)
(6.13466 0 1.34821)
(6.42767 0 1.44297)
(5.6776 0 1.46963)
(5.99943 0 1.57994)
(5.18974 0 1.58779)
(5.54109 0 1.71711)
(4.67261 0 1.69602)
(5.0528 0 1.84855)
(4.12955 0 1.78512)
(4.5357 0 1.96582)
(3.56641 0 1.84248)
(3.99248 0 2.05726)
(2.99183 0 1.85065)
(3.42736 0 2.10707)
(2.41565 0 1.78238)
(2.84742 0 2.09438)
(1.84039 0 1.60032)
(2.25605 0 1.98859)
(1.25928 0 1.27826)
(1.66018 0 1.75287)
(0.666721 0 0.789362)
(1.02388 0 1.36756)
(0.523003 0 0.786936)
(9.98337 0 0.0844116)
(9.99316 0 0.0612945)
(9.94821 0 0.136844)
(9.96958 0 0.119933)
(9.89314 0 0.188042)
(9.92574 0 0.17625)
(9.81905 0 0.240182)
(9.86198 0 0.232711)
(9.72661 0 0.294484)
(9.77962 0 0.291104)
(9.61587 0 0.35168)
(9.67938 0 0.352295)
(9.48668 0 0.412495)
(9.56125 0 0.417002)
(9.33874 0 0.477706)
(9.42493 0 0.486038)
(9.17165 0 0.548085)
(9.27004 0 0.560239)
(8.98486 0 0.624393)
(9.09614 0 0.640427)
(8.7777 0 0.707388)
(8.90267 0 0.727413)
(8.54943 0 0.797813)
(8.68898 0 0.822008)
(8.29923 0 0.89638)
(8.45433 0 0.924999)
(8.02621 0 1.00371)
(8.19795 0 1.03712)
(7.72942 0 1.12027)
(7.91897 0 1.15898)
(7.40788 0 1.24623)
(7.61652 0 1.29099)
(7.06057 0 1.38133)
(7.28967 0 1.43322)
(6.68648 0 1.52464)
(6.93742 0 1.58517)
(6.28462 0 1.67424)
(6.55876 0 1.74557)
(5.85413 0 1.82683)
(6.15263 0 1.91194)
(5.39445 0 1.97728)
(5.71796 0 2.0802)
(4.90549 0 2.11805)
(5.25381 0 2.2441)
(4.38799 0 2.23858)
(4.75946 0 2.39459)
(3.84369 0 2.32448)
(4.23468 0 2.51915)
(3.2752 0 2.35685)
(3.67963 0 2.60115)
(2.68519 0 2.31045)
(3.09549 0 2.61957)
(2.07253 0 2.15482)
(2.48149 0 2.54714)
(1.42926 0 1.86718)
(1.83977 0 2.35349)
(0.742552 0 1.41933)
(1.13127 0 2.02426)
(0.543264 0 1.51422)
(9.98264 0 0.0975026)
(9.99299 0 0.0697964)
(9.94743 0 0.159783)
(9.96924 0 0.13759)
(9.89354 0 0.22136)
(9.92596 0 0.203937)
(9.82132 0 0.284108)
(9.8638 0 0.270703)
(9.73132 0 0.349368)
(9.78384 0 0.339602)
(9.62364 0 0.418043)
(9.68663 0 0.411721)
(9.49816 0 0.490967)
(9.57215 0 0.487932)
(9.35461 0 0.569009)
(9.44018 0 0.569139)
(9.19264 0 0.653045)
(9.29038 0 0.656274)
(9.01177 0 0.743944)
(9.12237 0 0.750261)
(8.81143 0 0.842569)
(8.93564 0 0.852011)
(8.59099 0 0.949768)
(8.72964 0 0.962428)
(8.34974 0 1.06635)
(8.50371 0 1.08239)
(8.08693 0 1.19303)
(8.25716 0 1.21272)
(7.80177 0 1.33038)
(7.98923 0 1.35413)
(7.49342 0 1.47868)
(7.69913 0 1.50711)
(7.16099 0 1.63777)
(7.38598 0 1.67185)
(6.8035 0 1.80682)
(7.04882 0 1.848)
(6.41987 0 1.98404)
(6.68652 0 2.03444)
(6.00887 0 2.16619)
(6.29776 0 2.22891)
(5.56913 0 2.34814)
(5.88092 0 2.42753)
(5.09918 0 2.52221)
(5.43405 0 2.62429)
(4.59746 0 2.67754)
(4.95482 0 2.81029)
(4.06242 0 2.79942)
(4.44055 0 2.97317)
(3.49244 0 2.86899)
(3.88823 0 3.09652)
(2.8856 0 2.86274)
(3.29496 0 3.15974)
(2.23783 0 2.7537)
(2.65667 0 3.13769)
(1.54231 0 2.52076)
(1.97466 0 3.00291)
(0.793579 0 2.13104)
(1.20713 0 2.74028)
(0.556686 0 2.29148)
(9.9825 0 0.110632)
(9.99302 0 0.0783654)
(9.9477 0 0.182334)
(9.96954 0 0.155045)
(9.89522 0 0.253831)
(9.92722 0 0.230898)
(9.82523 0 0.326785)
(9.86696 0 0.307525)
(9.73812 0 0.402578)
(9.78976 0 0.386544)
(9.63401 0 0.482262)
(9.69604 0 0.469175)
(9.51283 0 0.566791)
(9.58577 0 0.55643)
(9.37434 0 0.657133)
(9.45877 0 0.64931)
(9.21823 0 0.75426)
(9.31476 0 0.748833)
(9.04408 0 0.859139)
(9.15341 0 0.856016)
(8.85137 0 0.972724)
(8.97427 0 0.971863)
(8.63953 0 1.09595)
(8.77682 0 1.09737)
(8.40791 0 1.22972)
(8.56048 0 1.2335)
(8.15582 0 1.37484)
(8.32458 0 1.38116)
(7.88249 0 1.53196)
(8.06838 0 1.54118)
(7.5871 0 1.70148)
(7.79109 0 1.71415)
(7.2687 0 1.88339)
(7.49177 0 1.90041)
(6.9262 0 2.07707)
(7.16933 0 2.09981)
(6.55827 0 2.28094)
(6.82242 0 2.3115)
(6.1632 0 2.49213)
(6.44933 0 2.53358)
(5.73884 0 2.70589)
(6.04781 0 2.76272)
(5.28243 0 2.91501)
(5.61494 0 2.99351)
(4.79052 0 3.10913)
(5.14692 0 3.21785)
(4.25899 0 3.27412)
(4.63906 0 3.42422)
(3.6831 0 3.39172)
(4.08573 0 3.59704)
(3.05778 0 3.43948)
(3.48101 0 3.71635)
(2.37752 0 3.39152)
(2.81809 0 3.75787)
(1.63775 0 3.22584)
(2.09894 0 3.69365)
(0.839047 0 2.90047)
(1.27878 0 3.50408)
(0.573297 0 3.11328)
(9.98273 0 0.123588)
(9.99316 0 0.0868219)
(9.94873 0 0.20432)
(9.97026 0 0.172102)
(9.89794 0 0.285267)
(9.92926 0 0.256988)
(9.8305 0 0.367985)
(9.87123 0 0.343006)
(9.74669 0 0.453877)
(9.79714 0 0.431702)
(9.64666 0 0.544108)
(9.70733 0 0.524381)
(9.53035 0 0.639745)
(9.60178 0 0.622172)
(9.39759 0 0.741845)
(9.48035 0 0.726169)
(9.24808 0 0.851468)
(9.34282 0 0.837476)
(9.08147 0 0.969668)
(9.18889 0 0.957193)
(8.89729 0 1.09749)
(9.01818 0 1.08641)
(8.69501 0 1.23596)
(8.83022 0 1.22622)
(8.47402 0 1.38607)
(8.62445 0 1.37767)
(8.23364 0 1.54873)
(8.40025 0 1.54178)
(7.97308 0 1.72471)
(8.15688 0 1.71949)
(7.69144 0 1.91456)
(7.89348 0 1.91155)
(7.38766 0 2.11846)
(7.60902 0 2.11848)
(7.0604 0 2.33608)
(7.30221 0 2.34042)
(6.70796 0 2.56623)
(6.97141 0 2.57688)
(6.32809 0 2.80657)
(6.61445 0 2.82654)
(5.9178 0 3.05311)
(6.22842 0 3.08679)
(5.47313 0 3.29956)
(5.80942 0 3.35324)
(4.98897 0 3.53664)
(5.3523 0 3.619)
(4.45899 0 3.75133)
(4.85051 0 3.87395)
(3.87588 0 3.92631)
(4.29605 0 4.10382)
(3.23202 0 4.03962)
(3.68019 0 4.28948)
(2.52057 0 4.06466)
(2.99318 0 4.40647)
(1.73818 0 3.97573)
(2.23711 0 4.42418)
(0.889368 0 3.71829)
(1.36318 0 4.3158)
(0.598672 0 3.98436)
(9.98321 0 0.13621)
(9.99339 0 0.0950452)
(9.95032 0 0.225584)
(9.97131 0 0.188599)
(9.9015 0 0.315513)
(9.93193 0 0.282064)
(9.83693 0 0.407525)
(9.87643 0 0.37698)
(9.75683 0 0.50304)
(9.80578 0 0.474866)
(9.66133 0 0.603311)
(9.72029 0 0.577082)
(9.55044 0 0.709501)
(9.61994 0 0.684854)
(9.424 0 0.822751)
(9.50462 0 0.799364)
(9.2818 0 0.944204)
(9.37419 0 0.921791)
(9.12351 0 1.075)
(9.22839 0 1.05332)
(8.94873 0 1.21627)
(9.0669 0 1.19511)
(8.75697 0 1.36913)
(8.88931 0 1.34836)
(8.54766 0 1.53468)
(8.69512 0 1.51422)
(8.32013 0 1.71395)
(8.48371 0 1.69382)
(8.07356 0 1.90786)
(8.25438 0 1.88823)
(7.80697 0 2.11715)
(8.00621 0 2.0984)
(7.51913 0 2.34229)
(7.73808 0 2.32511)
(7.20846 0 2.58329)
(7.44852 0 2.56883)
(6.87285 0 2.83952)
(7.13561 0 2.82959)
(6.50949 0 3.10938)
(6.79674 0 3.10677)
(6.11456 0 3.38989)
(6.42837 0 3.39873)
(5.68297 0 3.67607)
(6.0257 0 3.70239)
(5.208 0 3.96021)
(5.5823 0 4.01253)
(4.68126 0 4.23091)
(5.0898 0 4.32094)
(4.09278 0 4.47215)
(4.53773 0 4.61527)
(3.43203 0 4.66227)
(3.91415 0 4.87764)
(2.68971 0 4.77276)
(3.20516 0 5.08322)
(1.86153 0 4.77189)
(2.41083 0 5.19747)
(0.954005 0 4.58912)
(1.47598 0 5.18367)
(0.639054 0 4.91875)
(9.98386 0 0.148377)
(9.99368 0 0.102949)
(9.95235 0 0.245983)
(9.9726 0 0.204405)
(9.90578 0 0.344417)
(9.9351 0 0.305985)
(9.84436 0 0.445222)
(9.88241 0 0.409292)
(9.76832 0 0.549842)
(9.81551 0 0.515844)
(9.67778 0 0.659597)
(9.7347 0 0.627046)
(9.57279 0 0.775733)
(9.63997 0 0.744201)
(9.45325 0 0.899472)
(9.53127 0 0.868568)
(9.31898 0 1.03203)
(9.4085 0 1.0014)
(9.16973 0 1.17463)
(9.27148 0 1.14395)
(9.00516 0 1.32848)
(9.11994 0 1.29747)
(8.82485 0 1.49481)
(8.95355 0 1.46322)
(8.62825 0 1.67482)
(8.77186 0 1.64248)
(8.41473 0 1.86967)
(8.57433 0 1.83649)
(8.18348 0 2.08047)
(8.36026 0 2.04649)
(7.93344 0 2.3082)
(8.12875 0 2.27365)
(7.66328 0 2.55366)
(7.87863 0 2.51904)
(7.37121 0 2.81734)
(7.60833 0 2.78357)
(7.05479 0 3.09927)
(7.31573 0 3.06786)
(6.71071 0 3.39879)
(6.99791 0 3.37213)
(6.33445 0 3.7142)
(6.65084 0 3.69593)
(5.91985 0 4.04218)
(6.269 0 4.03779)
(5.45871 0 4.37708)
(5.84484 0 4.3946)
(4.94045 0 4.70982)
(5.36826 0 4.76073)
(4.35208 0 5.02636)
(4.82611 0 5.12664)
(3.67894 0 5.30586)
(4.20245 0 5.47682)
(2.90692 0 5.51769)
(3.47718 0 5.78705)
(2.02719 0 5.62236)
(2.64439 0 6.01888)
(1.04484 0 5.52866)
(1.63726 0 6.1231)
(0.704256 0 5.9421)
(9.98465 0 0.159989)
(9.99402 0 0.110468)
(9.95473 0 0.265395)
(9.97409 0 0.219411)
(9.91065 0 0.37184)
(9.93867 0 0.328629)
(9.85266 0 0.48091)
(9.88904 0 0.4398)
(9.78099 0 0.594078)
(9.82618 0 0.554464)
(9.6958 0 0.712722)
(9.75037 0 0.674063)
(9.59714 0 0.838158)
(9.66165 0 0.799963)
(9.485 0 0.971675)
(9.56001 0 0.933491)
(9.35924 0 1.11456)
(9.4454 0 1.07596)
(9.21969 0 1.26811)
(9.31773 0 1.22869)
(9.06607 0 1.43361)
(9.1768 0 1.39301)
(8.89804 0 1.61239)
(9.02235 0 1.57026)
(8.71513 0 1.80575)
(8.85403 0 1.76181)
(8.51675 0 2.01503)
(8.67136 0 1.96904)
(8.30213 0 2.24151)
(8.47374 0 2.19336)
(8.07024 0 2.48647)
(8.26031 0 2.43618)
(7.8197 0 2.75108)
(8.02995 0 2.69889)
(7.54861 0 3.03637)
(7.78109 0 2.98287)
(7.25437 0 3.34316)
(7.51158 0 3.28942)
(6.93336 0 3.67189)
(7.21838 0 3.6197)
(6.58055 0 4.02234)
(6.89727 0 3.9746)
(6.18902 0 4.39327)
(6.5423 0 4.35453)
(5.74925 0 4.7817)
(6.1452 0 4.75896)
(5.24852 0 5.18172)
(5.69447 0 5.18564)
(4.67028 0 5.58267)
(5.17437 0 5.6292)
(3.9942 0 5.96624)
(4.5643 0 6.07862)
(3.19772 0 6.30117)
(3.83549 0 6.51317)
(2.26118 0 6.53988)
(2.97001 0 6.89335)
(1.18025 0 6.56407)
(1.8785 0 7.1568)
(0.812486 0 7.09808)
(9.98553 0 0.170972)
(9.9944 0 0.117552)
(9.95738 0 0.283713)
(9.97572 0 0.233531)
(9.916 0 0.397656)
(9.94258 0 0.349887)
(9.86169 0 0.514439)
(9.89623 0 0.468376)
(9.79468 0 0.63557)
(9.83764 0 0.590572)
(9.71516 0 0.762472)
(9.76712 0 0.717949)
(9.62323 0 0.89652)
(9.68474 0 0.851924)
(9.51892 0 1.03906)
(9.59054 0 0.993877)
(9.40218 0 1.19145)
(9.48454 0 1.14518)
(9.2729 0 1.35503)
(9.36671 0 1.3072)
(9.13089 0 1.53119)
(9.23695 0 1.48133)
(8.9759 0 1.72131)
(9.0951 0 1.66899)
(8.80755 0 1.92683)
(8.9409 0 1.87163)
(8.62536 0 2.14923)
(8.774 0 2.09077)
(8.42865 0 2.39)
(8.5939 0 2.32798)
(8.21647 0 2.6507)
(8.39989 0 2.58489)
(7.98751 0 2.93292)
(8.19098 0 2.86325)
(7.73995 0 3.23826)
(7.96575 0 3.16488)
(7.47121 0 3.56839)
(7.72219 0 3.49178)
(7.17766 0 3.92492)
(7.45745 0 3.84609)
(6.85415 0 4.30935)
(7.16747 0 4.23013)
(6.49341 0 4.72283)
(6.84642 0 4.64635)
(6.08518 0 5.16566)
(6.48596 0 5.0972)
(5.61501 0 5.63635)
(6.07406 0 5.58462)
(5.06283 0 6.12972)
(5.59326 0 6.10911)
(4.40136 0 6.63345)
(5.01869 0 6.66742)
(3.59523 0 7.12058)
(4.31151 0 7.2481)
(2.60349 0 7.53961)
(3.43458 0 7.81935)
(1.39376 0 7.73904)
(2.25552 0 8.31367)
(1.0021 0 8.46319)
(9.9865 0 0.181261)
(9.9948 0 0.124162)
(9.96026 0 0.300847)
(9.97747 0 0.246692)
(9.92176 0 0.421754)
(9.94676 0 0.369664)
(9.87133 0 0.545678)
(9.90387 0 0.49491)
(9.80923 0 0.674159)
(9.84977 0 0.624036)
(9.73567 0 0.808658)
(9.78478 0 0.758546)
(9.6508 0 0.950598)
(9.70902 0 0.899896)
(9.5547 0 1.10138)
(9.62257 0 1.04951)
(9.4474 0 1.26239)
(9.52554 0 1.20879)
(9.32888 0 1.43504)
(9.41797 0 1.37917)
(9.19905 0 1.62078)
(9.29986 0 1.56208)
(9.05775 0 1.82106)
(9.17115 0 1.75899)
(8.90474 0 2.03744)
(9.03172 0 1.97145)
(8.73967 0 2.27151)
(8.88135 0 2.20107)
(8.562 0 2.52497)
(8.71972 0 2.44957)
(8.37097 0 2.79965)
(8.54631 0 2.71878)
(8.16548 0 3.09752)
(8.36036 0 3.01076)
(7.94393 0 3.42079)
(8.16076 0 3.32776)
(7.70404 0 3.7719)
(7.94587 0 3.67242)
(7.44252 0 4.15368)
(7.71331 0 4.04778)
(7.15461 0 4.56939)
(7.45965 0 4.45753)
(6.83345 0 5.02275)
(7.17985 0 4.90617)
(6.46895 0 5.51787)
(6.86652 0 5.39919)
(6.04627 0 6.05886)
(6.50861 0 5.9433)
(5.54316 0 6.64875)
(6.08916 0 6.54637)
(4.926 0 7.28675)
(5.58201 0 7.21678)
(4.14379 0 7.96078)
(4.94115 0 7.96121)
(3.12055 0 8.63235)
(4.10774 0 8.77477)
(1.75537 0 9.12591)
(2.87693 0 9.6192)
(1.3638 0 10.1825)
(9.98754 0 0.190808)
(9.99523 0 0.130266)
(9.96332 0 0.316722)
(9.97932 0 0.258836)
(9.92785 0 0.444043)
(9.95115 0 0.387886)
(9.88147 0 0.574518)
(9.91188 0 0.51931)
(9.82448 0 0.709716)
(9.86243 0 0.654747)
(9.75712 0 0.851131)
(9.80317 0 0.795724)
(9.67957 0 1.00022)
(9.73425 0 0.943726)
(9.592 0 1.15842)
(9.65582 0 1.10021)
(9.4945 0 1.32715)
(9.56804 0 1.2666)
(9.38713 0 1.50788)
(9.47106 0 1.44437)
(9.26993 0 1.70207)
(9.36497 0 1.63497)
(9.14285 0 1.91128)
(9.24983 0 1.83994)
(9.00582 0 2.1371)
(9.12568 0 2.06085)
(8.85864 0 2.38126)
(8.99245 0 2.29942)
(8.70098 0 2.64563)
(8.85004 0 2.55745)
(8.53236 0 2.93225)
(8.69818 0 2.83697)
(8.35197 0 3.24344)
(8.53645 0 3.14025)
(8.15865 0 3.58189)
(8.36415 0 3.46989)
(7.95066 0 3.95077)
(8.18022 0 3.82903)
(7.72546 0 4.35397)
(7.98307 0 4.22146)
(7.47928 0 4.79635)
(7.77033 0 4.65198)
(7.20655 0 5.28408)
(7.53849 0 5.1268)
(6.8989 0 5.82514)
(7.28232 0 5.6541)
(6.54334 0 6.42986)
(6.99381 0 6.24502)
(6.11913 0 7.11163)
(6.66024 0 6.91505)
(5.59154 0 7.88753)
(6.26101 0 7.6864)
(4.8991 0 8.77734)
(5.75567 0 8.59249)
(3.92491 0 9.80013)
(5.08496 0 9.68439)
(2.43156 0 10.8539)
(3.9768 0 11.0473)
(2.14429 0 12.564)
(9.98862 0 0.199572)
(9.99567 0 0.135841)
(9.96652 0 0.331277)
(9.98124 0 0.269918)
(9.9342 0 0.46444)
(9.9557 0 0.40449)
(9.89202 0 0.60085)
(9.92016 0 0.541501)
(9.8403 0 0.742104)
(9.87552 0 0.682616)
(9.77932 0 0.889717)
(9.82216 0 0.82938)
(9.70931 0 1.04517)
(9.76028 0 0.983295)
(9.6305 0 1.20992)
(9.69009 0 1.14583)
(9.54306 0 1.38543)
(9.61185 0 1.31845)
(9.44716 0 1.57316)
(9.52576 0 1.50261)
(9.34293 0 1.77463)
(9.43205 0 1.6998)
(9.23049 0 1.99141)
(9.3309 0 1.91156)
(9.1099 0 2.22518)
(9.2225 0 2.13952)
(8.98119 0 2.47773)
(9.10699 0 2.38542)
(8.84429 0 2.75102)
(8.9845 0 2.65114)
(8.69902 0 3.04729)
(8.85507 0 2.93879)
(8.54502 0 3.36909)
(8.71868 0 3.2508)
(8.38168 0 3.71945)
(8.57515 0 3.58998)
(8.20804 0 4.10208)
(8.42415 0 3.95978)
(8.02265 0 4.52164)
(8.26509 0 4.36444)
(7.82331 0 4.98417)
(8.09707 0 4.80944)
(7.60671 0 5.49771)
(7.91872 0 5.30201)
(7.36783 0 6.0733)
(7.72804 0 5.85202)
(7.09872 0 6.72657)
(7.52215 0 6.47339)
(6.78621 0 7.48071)
(7.29677 0 7.18667)
(6.4067 0 8.37236)
(7.0464 0 8.02421)
(5.91316 0 9.46586)
(6.76075 0 9.04244)
(5.19303 0 10.9071)
(6.45867 0 10.3568)
(3.88105 0 13.1746)
(6.18455 0 12.3019)
(5.25096 0 16.3653)
(0.192468 0 -0.114695)
(0.113315 0 -0.188511)
(0.376023 0 -0.0975875)
(0.275199 0 -0.175535)
(0.527229 0 -0.0744666)
(0.436864 0 -0.141184)
(0.644915 0 -0.0534171)
(0.572958 0 -0.10729)
(0.732714 0 -0.0357392)
(0.678772 0 -0.0781528)
(0.794531 0 -0.0211063)
(0.757925 0 -0.0537256)
(0.833661 0 -0.00896959)
(0.814837 0 -0.0332057)
(0.852879 0 0.00102771)
(0.852866 0 -0.0159225)
(0.855151 0 0.00862987)
(0.874388 0 -0.0018382)
(0.842173 0 0.0139373)
(0.881552 0 0.0102512)
(0.817305 0 0.0175987)
(0.87485 0 0.0191782)
(0.783265 0 0.0198633)
(0.856886 0 0.025632)
(0.74275 0 0.020841)
(0.830481 0 0.0297873)
(0.698526 0 0.0206243)
(0.798413 0 0.0317463)
(0.653336 0 0.0193607)
(0.763475 0 0.0316733)
(0.609675 0 0.0172791)
(0.728362 0 0.0298787)
(0.56958 0 0.0146876)
(0.695432 0 0.0267906)
(0.534457 0 0.0119396)
(0.666464 0 0.022914)
(0.504966 0 0.00937399)
(0.642494 0 0.0187854)
(0.480974 0 0.00724485)
(0.62373 0 0.0149217)
(0.461682 0 0.00566138)
(0.609615 0 0.0117149)
(0.445968 0 0.00457292)
(0.599083 0 0.00931702)
(0.432812 0 0.00382911)
(0.590997 0 0.00761626)
(0.421532 0 0.00327262)
(0.584511 0 0.00637587)
(0.41179 0 0.0028008)
(0.57918 0 0.0053768)
(0.403445 0 0.00238337)
(0.574853 0 0.00449628)
(0.396375 0 0.00204128)
(0.571476 0 0.00371997)
(0.390343 0 0.00179266)
(0.568911 0 0.00309864)
(0.385044 0 0.00151389)
(0.566846 0 0.00265768)
(0.564639 0 0.00206299)
(0.178813 0 -0.274302)
(0.0951968 0 -0.363647)
(0.350526 0 -0.240342)
(0.245764 0 -0.339745)
(0.495167 0 -0.19035)
(0.387918 0 -0.276238)
(0.612197 0 -0.144093)
(0.508984 0 -0.213982)
(0.705245 0 -0.104927)
(0.605629 0 -0.160978)
(0.777929 0 -0.0722058)
(0.68148 0 -0.116896)
(0.833213 0 -0.0447076)
(0.740215 0 -0.0801192)
(0.873351 0 -0.0214045)
(0.784521 0 -0.0491784)
(0.899267 0 -0.00167243)
(0.816268 0 -0.0228035)
(0.912822 0 0.0144199)
(0.836898 0 -0.000455652)
(0.91294 0 0.0267414)
(0.847034 0 0.0190876)
(0.902812 0 0.0355147)
(0.846755 0 0.0332582)
(0.885069 0 0.0408831)
(0.838518 0 0.0428322)
(0.862526 0 0.0430316)
(0.824762 0 0.047929)
(0.837974 0 0.042316)
(0.807996 0 0.048881)
(0.813937 0 0.0392809)
(0.79063 0 0.0463284)
(0.792452 0 0.034613)
(0.774723 0 0.0411467)
(0.774879 0 0.0290896)
(0.761778 0 0.0343786)
(0.761803 0 0.0235054)
(0.752619 0 0.0271142)
(0.753003 0 0.0185399)
(0.747304 0 0.0203948)
(0.747625 0 0.0145972)
(0.745184 0 0.0149808)
(0.744575 0 0.0117121)
(0.745169 0 0.0111254)
(0.742958 0 0.00963903)
(0.746203 0 0.00855239)
(0.742247 0 0.00805502)
(0.747603 0 0.00677801)
(0.742235 0 0.00671667)
(0.749094 0 0.00538312)
(0.742864 0 0.00552779)
(0.75066 0 0.00415746)
(0.744035 0 0.00451664)
(0.752337 0 0.0031039)
(0.745517 0 0.00374893)
(0.754055 0 0.00233753)
(0.746935 0 0.00318978)
(0.755567 0 0.00194635)
(0.75657 0 0.00196409)
(0.152281 0 -0.435504)
(0.0751202 0 -0.512797)
(0.294031 0 -0.382517)
(0.202774 0 -0.475301)
(0.41162 0 -0.306255)
(0.312074 0 -0.386034)
(0.50669 0 -0.236325)
(0.405536 0 -0.300654)
(0.583016 0 -0.17742)
(0.47974 0 -0.228919)
(0.643612 0 -0.12838)
(0.538789 0 -0.169561)
(0.690835 0 -0.0873709)
(0.585384 0 -0.120191)
(0.726534 0 -0.0527623)
(0.621397 0 -0.0787565)
(0.752364 0 -0.02301)
(0.64828 0 -0.0436993)
(0.769411 0 0.00248223)
(0.666864 0 -0.013921)
(0.779117 0 0.0230992)
(0.680373 0 0.0116027)
(0.780971 0 0.0383338)
(0.685819 0 0.031862)
(0.776916 0 0.0480868)
(0.685425 0 0.0458131)
(0.769195 0 0.0525643)
(0.681216 0 0.0534716)
(0.759965 0 0.0523543)
(0.675199 0 0.0553504)
(0.751098 0 0.0483489)
(0.669151 0 0.0523968)
(0.744047 0 0.0416562)
(0.664433 0 0.0458579)
(0.739762 0 0.0335401)
(0.661933 0 0.0371737)
(0.738546 0 0.0253162)
(0.662004 0 0.0278889)
(0.740012 0 0.0181295)
(0.664396 0 0.019483)
(0.743227 0 0.0126563)
(0.668261 0 0.0130286)
(0.747118 0 0.00891564)
(0.672381 0 0.00881831)
(0.750957 0 0.00645105)
(0.675736 0 0.00632974)
(0.754401 0 0.00471602)
(0.677867 0 0.00483154)
(0.757411 0 0.00332835)
(0.678771 0 0.00372184)
(0.760052 0 0.00216136)
(0.678686 0 0.00273449)
(0.762347 0 0.00128983)
(0.677878 0 0.0018966)
(0.764204 0 0.000854395)
(0.676517 0 0.00138335)
(0.765381 0 0.00099465)
(0.674636 0 0.00135591)
(0.671687 0 0.00203376)
(0.123093 0 -0.562138)
(0.0549548 0 -0.633359)
(0.229519 0 -0.488763)
(0.15421 0 -0.577077)
(0.314142 0 -0.39017)
(0.224546 0 -0.465047)
(0.381975 0 -0.302128)
(0.286889 0 -0.362495)
(0.436766 0 -0.2288)
(0.33451 0 -0.27769)
(0.480726 0 -0.167942)
(0.372941 0 -0.207767)
(0.515476 0 -0.117049)
(0.403624 0 -0.149679)
(0.542196 0 -0.0741084)
(0.427664 0 -0.100896)
(0.561906 0 -0.037745)
(0.445937 0 -0.059644)
(0.575801 0 -0.00704532)
(0.458607 0 -0.0248966)
(0.584827 0 0.0182657)
(0.468746 0 0.00464208)
(0.588306 0 0.0375056)
(0.473274 0 0.0292423)
(0.58792 0 0.0499148)
(0.473787 0 0.0460972)
(0.585749 0 0.055585)
(0.472233 0 0.0550297)
(0.583379 0 0.0553423)
(0.47035 0 0.0570114)
(0.581944 0 0.0504027)
(0.469201 0 0.0533793)
(0.582179 0 0.0422464)
(0.469276 0 0.0457009)
(0.584387 0 0.032552)
(0.470641 0 0.0357329)
(0.588378 0 0.023043)
(0.472996 0 0.0253468)
(0.593379 0 0.0151774)
(0.475702 0 0.0163726)
(0.598125 0 0.00972939)
(0.477726 0 0.0101467)
(0.601399 0 0.00652829)
(0.477764 0 0.00687683)
(0.60272 0 0.00480658)
(0.475061 0 0.00556519)
(0.602097 0 0.00380153)
(0.469774 0 0.00518383)
(0.599862 0 0.00302236)
(0.462421 0 0.00495527)
(0.596415 0 0.00232231)
(0.453633 0 0.00459172)
(0.592084 0 0.00180974)
(0.443959 0 0.00417511)
(0.587101 0 0.00165124)
(0.433763 0 0.00394331)
(0.581638 0 0.00205267)
(0.423374 0 0.0040961)
(0.41159 0 0.00456694)
(0.0892596 0 -0.656124)
(0.033823 0 -0.720784)
(0.156387 0 -0.561558)
(0.0994905 0 -0.641271)
(0.204557 0 -0.445436)
(0.12611 0 -0.510024)
(0.242118 0 -0.345482)
(0.155352 0 -0.396739)
(0.272257 0 -0.263266)
(0.173212 0 -0.304518)
(0.296431 0 -0.195265)
(0.187869 0 -0.228777)
(0.31567 0 -0.13844)
(0.199176 0 -0.166005)
(0.330633 0 -0.0904547)
(0.207946 0 -0.113293)
(0.341698 0 -0.049677)
(0.21481 0 -0.068595)
(0.349209 0 -0.014683)
(0.219381 0 -0.0308292)
(0.354704 0 0.0144212)
(0.223603 0 0.000404328)
(0.355845 0 0.0361957)
(0.223323 0 0.028383)
(0.355323 0 0.0498907)
(0.221748 0 0.0464811)
(0.354673 0 0.0557667)
(0.219394 0 0.0554959)
(0.354703 0 0.0549916)
(0.217496 0 0.0569906)
(0.355693 0 0.049101)
(0.21581 0 0.052702)
(0.357489 0 0.0398645)
(0.21351 0 0.0445006)
(0.359583 0 0.0292049)
(0.209574 0 0.0343667)
(0.361242 0 0.0191193)
(0.203158 0 0.0242903)
(0.361404 0 0.0114687)
(0.194304 0 0.0162718)
(0.358689 0 0.0071891)
(0.183227 0 0.0117951)
(0.352156 0 0.00569559)
(0.170375 0 0.0107506)
(0.342241 0 0.00573597)
(0.156455 0 0.0113047)
(0.329847 0 0.00629103)
(0.141784 0 0.0121898)
(0.315872 0 0.00669427)
(0.126515 0 0.0126677)
(0.301059 0 0.00675207)
(0.111033 0 0.0125739)
(0.285811 0 0.00667382)
(0.0956385 0 0.0121975)
(0.27031 0 0.00682085)
(0.080438 0 0.0119058)
(0.255154 0 0.00706178)
(0.0654176 0 0.0116979)
(0.0502142 0 0.0103938)
(0.0507784 0 -0.71286)
(0.0107652 0 -0.770518)
(0.0743326 0 -0.596901)
(0.0376643 0 -0.663796)
(0.0838336 0 -0.467986)
(0.0179014 0 -0.518896)
(0.0887952 0 -0.361587)
(0.0115039 0 -0.401262)
(0.0910433 0 -0.275021)
(-0.00325873 0 -0.306519)
(0.0918136 0 -0.203881)
(-0.0161128 0 -0.229446)
(0.091731 0 -0.144725)
(-0.0283149 0 -0.165935)
(0.0912706 0 -0.0950329)
(-0.0390458 0 -0.112912)
(0.0911366 0 -0.0533541)
(-0.048019 0 -0.0684866)
(0.0918461 0 -0.0179542)
(-0.0566827 0 -0.0313896)
(0.0886437 0 0.012996)
(-0.06757 0 0.00287407)
(0.085303 0 0.0372367)
(-0.0736457 0 0.0308985)
(0.0819954 0 0.0516559)
(-0.0787097 0 0.0489129)
(0.0792897 0 0.0570013)
(-0.0843313 0 0.0574382)
(0.0765284 0 0.055444)
(-0.0904023 0 0.058926)
(0.0723531 0 0.0491936)
(-0.0981286 0 0.0555593)
(0.0651965 0 0.0403461)
(-0.108588 0 0.0492825)
(0.0537788 0 0.0309465)
(-0.122519 0 0.0418155)
(0.0376562 0 0.0229154)
(-0.140089 0 0.0345602)
(0.0177981 0 0.0177718)
(-0.160332 0 0.0286224)
(-0.00356328 0 0.0159724)
(-0.181943 0 0.0247669)
(-0.0241677 0 0.0164704)
(-0.203236 0 0.0229672)
(-0.0437099 0 0.0176051)
(-0.222922 0 0.0226179)
(-0.0620146 0 0.0182805)
(-0.240778 0 0.0225362)
(-0.0789427 0 0.0181942)
(-0.257071 0 0.02201)
(-0.094683 0 0.0176237)
(-0.271848 0 0.0210556)
(-0.109544 0 0.0170651)
(-0.28528 0 0.0200162)
(-0.123773 0 0.0164926)
(-0.297718 0 0.0192151)
(-0.136839 0 0.0148223)
(-0.309627 0 0.0182516)
(-0.319767 0 0.0158646)
(0.00372668 0 -0.726715)
(-0.0164334 0 -0.774168)
(-0.0171017 0 -0.590448)
(-0.0332966 0 -0.643878)
(-0.0474572 0 -0.453961)
(-0.09881 0 -0.490552)
(-0.0779891 0 -0.346507)
(-0.145355 0 -0.373427)
(-0.107516 0 -0.260378)
(-0.195157 0 -0.280236)
(-0.134535 0 -0.190783)
(-0.239262 0 -0.205964)
(-0.15843 0 -0.133794)
(-0.278645 0 -0.145657)
(-0.17914 0 -0.0862351)
(-0.312851 0 -0.095753)
(-0.197979 0 -0.0453477)
(-0.342059 0 -0.0532464)
(-0.217426 0 -0.00920657)
(-0.368256 0 -0.0160288)
(-0.232914 0 0.0212351)
(-0.392914 0 0.0148188)
(-0.242384 0 0.04283)
(-0.404361 0 0.0380293)
(-0.249332 0 0.0551716)
(-0.414025 0 0.0540211)
(-0.257109 0 0.0602843)
(-0.423452 0 0.0630206)
(-0.267177 0 0.0600537)
(-0.433913 0 0.0659825)
(-0.280293 0 0.056326)
(-0.446545 0 0.0645352)
(-0.296576 0 0.0506845)
(-0.461723 0 0.0601624)
(-0.315556 0 0.0444844)
(-0.479249 0 0.054198)
(-0.336445 0 0.0387487)
(-0.49857 0 0.0478662)
(-0.358295 0 0.0341408)
(-0.518963 0 0.0422118)
(-0.38008 0 0.0310215)
(-0.539593 0 0.0379962)
(-0.40084 0 0.0293017)
(-0.559501 0 0.0352756)
(-0.419693 0 0.0282778)
(-0.577959 0 0.0335324)
(-0.436254 0 0.0271649)
(-0.594382 0 0.0318973)
(-0.450534 0 0.0257186)
(-0.608532 0 0.0298909)
(-0.462751 0 0.0241362)
(-0.62038 0 0.0276383)
(-0.473319 0 0.0226853)
(-0.630267 0 0.0255763)
(-0.482508 0 0.0212161)
(-0.638842 0 0.0239357)
(-0.490419 0 0.019306)
(-0.646573 0 0.0222195)
(-0.651953 0 0.0201376)
(-0.0445497 0 -0.691802)
(-0.0497557 0 -0.730534)
(-0.115441 0 -0.541228)
(-0.113398 0 -0.576084)
(-0.188346 0 -0.404763)
(-0.22546 0 -0.422479)
(-0.259033 0 -0.300759)
(-0.316 0 -0.308984)
(-0.32382 0 -0.219614)
(-0.402379 0 -0.222568)
(-0.38168 0 -0.155197)
(-0.478151 0 -0.155677)
(-0.432448 0 -0.102765)
(-0.543682 0 -0.102576)
(-0.47639 0 -0.0587637)
(-0.599468 0 -0.0593457)
(-0.514268 0 -0.0211426)
(-0.646512 0 -0.0226037)
(-0.544605 0 0.00970378)
(-0.683539 0 0.00793375)
(-0.565638 0 0.0332729)
(-0.709627 0 0.0310391)
(-0.58009 0 0.0506951)
(-0.727037 0 0.0489117)
(-0.591606 0 0.0624054)
(-0.740943 0 0.0624882)
(-0.602585 0 0.0684211)
(-0.752779 0 0.0709017)
(-0.614708 0 0.0697122)
(-0.764467 0 0.0744796)
(-0.628654 0 0.067476)
(-0.777162 0 0.0740791)
(-0.644408 0 0.0628752)
(-0.791274 0 0.0706887)
(-0.661607 0 0.057097)
(-0.806706 0 0.0654184)
(-0.679825 0 0.0512941)
(-0.823169 0 0.0594712)
(-0.698669 0 0.0463676)
(-0.840374 0 0.0539314)
(-0.717567 0 0.0426873)
(-0.857949 0 0.0494724)
(-0.735784 0 0.0400042)
(-0.875332 0 0.0460766)
(-0.752425 0 0.0376544)
(-0.891766 0 0.0431657)
(-0.766807 0 0.0350529)
(-0.906421 0 0.0400265)
(-0.778635 0 0.0321351)
(-0.918674 0 0.0364186)
(-0.788072 0 0.0292801)
(-0.928343 0 0.0327233)
(-0.795614 0 0.0268457)
(-0.935847 0 0.0295446)
(-0.801786 0 0.0247541)
(-0.942038 0 0.0271064)
(-0.807404 0 0.0228369)
(-0.947402 0 0.0250369)
(-0.950634 0 0.0234264)
(-0.100456 0 -0.607223)
(-0.091364 0 -0.632144)
(-0.222337 0 -0.447311)
(-0.205454 0 -0.459528)
(-0.343161 0 -0.316003)
(-0.368812 0 -0.309663)
(-0.455075 0 -0.22111)
(-0.503368 0 -0.206956)
(-0.553933 0 -0.150824)