/*--------------------------------*- C++ -*----------------------------------*\
  =========                 |
  \\      /  F ield         | OpenFOAM: The Open Source CFD Toolbox
   \\    /   O peration     | Website:  https://openfoam.org
    \\  /    A nd           | Version:  dev
     \\/     M anipulation  |
\*---------------------------------------------------------------------------*/
FoamFile
{
    version     2.0;
    format      ascii;
    class       volVectorField;
    location    "5.9";
    object      U;
}
// * * * * * * * * * * * * * * * * * * * * * * * * * * * * * * * * * * * * * //

dimensions      [0 1 -1 0 0 0 0];

internalField   nonuniform List<vector> 
2790
(
(9.94399 0 0.0205231)
(9.87572 0 0.0295875)
(9.77521 0 0.0359893)
(9.64944 0 0.0425559)
(9.50409 0 0.0493852)
(9.34007 0 0.056428)
(9.15655 0 0.0638156)
(8.95263 0 0.0717114)
(8.72748 0 0.0802552)
(8.48009 0 0.0895737)
(8.20929 0 0.099794)
(7.91366 0 0.111046)
(7.5917 0 0.123462)
(7.24179 0 0.137167)
(6.86234 0 0.152275)
(6.4518 0 0.168874)
(6.00888 0 0.187002)
(5.53268 0 0.206624)
(5.02296 0 0.227596)
(4.48044 0 0.249617)
(3.90714 0 0.272183)
(3.30681 0 0.294531)
(2.68527 0 0.315625)
(2.0506 0 0.334293)
(1.41178 0 0.35061)
(0.798022 0 0.372888)
(0.110687 0 0.325051)
(-0.469563 0 -0.114865)
(-0.45378 0 -0.297149)
(-0.231163 0 -0.423856)
(9.9985 0 0.0407028)
(9.98145 0 0.0623823)
(9.93575 0 0.0791395)
(9.86417 0 0.0966239)
(9.77098 0 0.115123)
(9.65716 0 0.134487)
(9.52206 0 0.154974)
(9.36486 0 0.176942)
(9.18473 0 0.200707)
(8.98068 0 0.22655)
(8.75154 0 0.254745)
(8.4959 0 0.285562)
(8.21222 0 0.319252)
(7.89884 0 0.356027)
(7.55405 0 0.396026)
(7.1762 0 0.43927)
(6.76379 0 0.485601)
(6.31567 0 0.534597)
(5.83125 0 0.585473)
(5.31088 0 0.636965)
(4.75615 0 0.687215)
(4.17041 0 0.733657)
(3.55929 0 0.772962)
(2.93155 0 0.801101)
(2.29994 0 0.813755)
(1.69295 0 0.807258)
(1.10715 0 0.747254)
(0.658892 0 0.54793)
(0.18644 0 0.224611)
(-0.00819871 0 -0.453733)
(9.99559 0 0.0432066)
(9.97556 0 0.0752709)
(9.9318 0 0.103345)
(9.8649 0 0.13237)
(9.77778 0 0.163058)
(9.67155 0 0.195397)
(9.54589 0 0.229741)
(9.40014 0 0.266601)
(9.23366 0 0.306469)
(9.04565 0 0.349806)
(8.8351 0 0.397072)
(8.60083 0 0.448723)
(8.34146 0 0.505195)
(8.05551 0 0.566868)
(7.74139 0 0.634017)
(7.39746 0 0.706738)
(7.02212 0 0.784846)
(6.61396 0 0.867734)
(6.17194 0 0.954205)
(5.69564 0 1.04227)
(5.18563 0 1.12889)
(4.64396 0 1.2098)
(4.07479 0 1.27917)
(3.48537 0 1.32934)
(2.88684 0 1.3501)
(2.29946 0 1.32643)
(1.73184 0 1.22078)
(1.21625 0 0.973009)
(0.701143 0 0.57015)
(0.358039 0 -0.156559)
(9.99403 0 0.0494987)
(9.97181 0 0.0932052)
(9.92788 0 0.13357)
(9.86225 0 0.174207)
(9.77694 0 0.216431)
(9.67299 0 0.260659)
(9.55032 0 0.307427)
(9.4085 0 0.357413)
(9.24703 0 0.411289)
(9.06534 0 0.469704)
(8.8627 0 0.533301)
(8.63821 0 0.602724)
(8.39086 0 0.678594)
(8.11953 0 0.761478)
(7.82301 0 0.851825)
(7.50002 0 0.949881)
(7.14925 0 1.05556)
(6.76945 0 1.16825)
(6.3595 0 1.28661)
(5.9186 0 1.40828)
(5.44653 0 1.52948)
(4.944 0 1.64469)
(4.41316 0 1.74615)
(3.85826 0 1.82323)
(3.28581 0 1.86137)
(2.7064 0 1.84033)
(2.12564 0 1.72601)
(1.55426 0 1.47787)
(0.957948 0 1.0837)
(0.509425 0 0.502326)
(9.99331 0 0.0572129)
(9.96994 0 0.110957)
(9.92593 0 0.162102)
(9.86146 0 0.213345)
(9.77799 0 0.266354)
(9.67635 0 0.321911)
(9.55655 0 0.380698)
(9.41822 0 0.443485)
(9.26098 0 0.511053)
(9.08434 0 0.584168)
(8.88772 0 0.663586)
(8.6704 0 0.750063)
(8.4316 0 0.844336)
(8.17047 0 0.947086)
(7.88609 0 1.05888)
(7.57749 0 1.18008)
(7.24367 0 1.31069)
(6.88361 0 1.45019)
(6.49629 0 1.59723)
(6.08073 0 1.74933)
(5.63616 0 1.90242)
(5.16211 0 2.05033)
(4.65877 0 2.18418)
(4.12721 0 2.29175)
(3.56939 0 2.35657)
(2.98888 0 2.35733)
(2.38683 0 2.26496)
(1.76638 0 2.04765)
(1.08999 0 1.6914)
(0.53665 0 1.15415)
(9.99302 0 0.0655377)
(9.96923 0 0.1287)
(9.92556 0 0.190111)
(9.86253 0 0.25184)
(9.78129 0 0.315575)
(9.68245 0 0.382315)
(9.56602 0 0.452871)
(9.43172 0 0.528097)
(9.27921 0 0.608876)
(9.10807 0 0.696081)
(8.91779 0 0.790577)
(8.70775 0 0.893223)
(8.4773 0 1.00486)
(8.22569 0 1.12626)
(7.95216 0 1.25809)
(7.6559 0 1.40082)
(7.33604 0 1.55455)
(6.99165 0 1.71887)
(6.62169 0 1.89256)
(6.22501 0 2.07323)
(5.80028 0 2.25686)
(5.34604 0 2.43721)
(4.8607 0 2.60521)
(4.34269 0 2.74823)
(3.79038 0 2.84955)
(3.20256 0 2.8882)
(2.57656 0 2.83823)
(1.91345 0 2.67161)
(1.17274 0 2.374)
(0.549963 0 1.8944)
(9.99297 0 0.0740738)
(9.96927 0 0.146312)
(9.92637 0 0.21748)
(9.86509 0 0.289288)
(9.78643 0 0.363351)
(9.69085 0 0.440822)
(9.57835 0 0.522655)
(9.44872 0 0.609806)
(9.30166 0 0.703251)
(9.13679 0 0.803961)
(8.95366 0 0.912897)
(8.75172 0 1.03101)
(8.53035 0 1.15922)
(8.28889 0 1.2984)
(8.0266 0 1.4493)
(7.7427 0 1.61249)
(7.43631 0 1.78819)
(7.10641 0 1.97617)
(6.75181 0 2.17542)
(6.37101 0 2.38383)
(5.9621 0 2.59775)
(5.52263 0 2.8114)
(5.04952 0 3.01616)
(4.53899 0 3.19998)
(3.98664 0 3.34669)
(3.38789 0 3.43597)
(2.73723 0 3.44331)
(2.03622 0 3.34149)
(1.24173 0 3.11357)
(0.563508 0 2.69314)
(9.99306 0 0.0825868)
(9.96981 0 0.163604)
(9.92807 0 0.244046)
(9.86885 0 0.325475)
(9.79313 0 0.409441)
(9.70126 0 0.497201)
(9.59324 0 0.589833)
(9.46889 0 0.68839)
(9.32797 0 0.793934)
(9.17016 0 0.907524)
(8.99504 0 1.03021)
(8.80212 0 1.16303)
(8.59083 0 1.30701)
(8.36052 0 1.46309)
(8.11046 0 1.63215)
(7.83982 0 1.81488)
(7.54762 0 2.01168)
(7.23268 0 2.22252)
(6.89351 0 2.44675)
(6.52817 0 2.68271)
(6.13409 0 2.92737)
(5.70784 0 3.17579)
(5.24496 0 3.42038)
(4.73976 0 3.65021)
(4.18546 0 3.85024)
(3.57473 0 4.00089)
(2.89949 0 4.0779)
(2.16208 0 4.05237)
(1.3161 0 3.90168)
(0.583208 0 3.54013)
(9.99326 0 0.0909268)
(9.97072 0 0.180406)
(9.93046 0 0.269663)
(9.87362 0 0.360236)
(9.80118 0 0.453641)
(9.71344 0 0.551203)
(9.61039 0 0.654105)
(9.49189 0 0.763489)
(9.35777 0 0.880498)
(9.20775 0 1.00627)
(9.04147 0 1.14195)
(8.85849 0 1.28866)
(8.65829 0 1.44752)
(8.44023 0 1.61959)
(8.20359 0 1.80587)
(7.94748 0 2.00721)
(7.6708 0 2.22426)
(7.37218 0 2.45729)
(7.0498 0 2.70607)
(6.70128 0 2.96959)
(6.32335 0 3.24568)
(5.91164 0 3.53056)
(5.46035 0 3.81809)
(4.96198 0 4.09901)
(4.40737 0 4.35988)
(3.78636 0 4.5821)
(3.08751 0 4.74107)
(2.31266 0 4.80444)
(1.4106 0 4.74105)
(0.614289 0 4.44188)
(9.99352 0 0.0989905)
(9.97191 0 0.196576)
(9.93341 0 0.29419)
(9.87925 0 0.393411)
(9.81041 0 0.495748)
(9.72717 0 0.60258)
(9.62954 0 0.715174)
(9.51743 0 0.834753)
(9.3907 0 0.962535)
(9.24914 0 1.09974)
(9.09247 0 1.24758)
(8.9203 0 1.40729)
(8.73215 0 1.58006)
(8.52744 0 1.7671)
(8.30545 0 1.96956)
(8.06528 0 2.18849)
(7.80574 0 2.4248)
(7.52531 0 2.67918)
(7.22192 0 2.95194)
(6.89277 0 3.24284)
(6.53403 0 3.55082)
(6.14046 0 3.87352)
(5.70503 0 4.20673)
(5.21844 0 4.54341)
(4.66894 0 4.87246)
(4.0428 0 5.17698)
(3.32361 0 5.4323)
(2.50968 0 5.60193)
(1.5418 0 5.64344)
(0.664025 0 5.41796)
(9.99384 0 0.106702)
(9.9733 0 0.211996)
(9.9368 0 0.317497)
(9.88558 0 0.424849)
(9.82064 0 0.53558)
(9.74226 0 0.651111)
(9.65045 0 0.772777)
(9.54519 0 0.901875)
(9.42639 0 1.03969)
(9.29392 0 1.18751)
(9.14754 0 1.34662)
(8.98696 0 1.51834)
(8.81177 0 1.70398)
(8.62145 0 1.90487)
(8.41534 0 2.12231)
(8.19255 0 2.3576)
(7.9519 0 2.61198)
(7.6918 0 2.88656)
(7.41006 0 3.18231)
(7.10364 0 3.49989)
(6.76834 0 3.83951)
(6.39832 0 4.20058)
(5.98552 0 4.58123)
(5.51903 0 4.97737)
(4.9843 0 5.38135)
(4.36316 0 5.77957)
(3.63178 0 6.14913)
(2.77999 0 6.45062)
(1.73335 0 6.62842)
(0.744778 0 6.50297)
(9.9942 0 0.114004)
(9.97487 0 0.226571)
(9.94056 0 0.339467)
(9.89252 0 0.454415)
(9.83174 0 0.572974)
(9.75852 0 0.696598)
(9.6729 0 0.826682)
(9.57489 0 0.96458)
(9.4645 0 1.11164)
(9.34164 0 1.2692)
(9.20618 0 1.43864)
(9.05789 0 1.62133)
(8.89647 0 1.81868)
(8.7215 0 2.03215)
(8.5324 0 2.26323)
(8.32839 0 2.51345)
(8.10837 0 2.78436)
(7.87083 0 3.07758)
(7.61362 0 3.39475)
(7.33374 0 3.73753)
(7.02691 0 4.1075)
(6.68712 0 4.50608)
(6.30584 0 4.93417)
(5.871 0 5.39151)
(5.36566 0 5.87541)
(4.76674 0 6.37828)
(4.04052 0 6.88323)
(3.16125 0 7.35345)
(2.02456 0 7.72307)
(0.880636 0 7.75688)
(9.99459 0 0.120851)
(9.97657 0 0.24022)
(9.94461 0 0.36)
(9.89996 0 0.481992)
(9.84357 0 0.607785)
(9.77576 0 0.73887)
(9.69663 0 0.876684)
(9.60624 0 1.02263)
(9.50465 0 1.1781)
(9.39187 0 1.3445)
(9.26784 0 1.52324)
(9.13245 0 1.71577)
(8.9855 0 1.9236)
(8.82672 0 2.14829)
(8.65566 0 2.39148)
(8.4717 0 2.65494)
(8.27395 0 2.94054)
(8.0611 0 3.25037)
(7.83128 0 3.58672)
(7.58179 0 3.95222)
(7.30877 0 4.3499)
(7.00661 0 4.78323)
(6.66714 0 5.25619)
(6.27836 0 5.77304)
(5.82229 0 6.33778)
(5.27225 0 6.95249)
(4.58424 0 7.61367)
(3.70962 0 8.30087)
(2.48786 0 8.95803)
(1.12429 0 9.29286)
(9.99501 0 0.127208)
(9.97838 0 0.252879)
(9.94891 0 0.379013)
(9.9078 0 0.507477)
(9.85599 0 0.639896)
(9.79382 0 0.777788)
(9.72144 0 0.922623)
(9.63895 0 1.07584)
(9.54649 0 1.23887)
(9.44415 0 1.41315)
(9.33198 0 1.60014)
(9.20997 0 1.80134)
(9.07809 0 2.01832)
(8.93618 0 2.25274)
(8.78401 0 2.50638)
(8.6212 0 2.78118)
(8.44712 0 3.0793)
(8.26084 0 3.40322)
(8.06097 0 3.75581)
(7.84545 0 4.14056)
(7.61129 0 4.56176)
(7.35403 0 5.02481)
(7.06705 0 5.53665)
(6.74026 0 6.10629)
(6.3577 0 6.7454)
(5.89376 0 7.46907)
(5.30036 0 8.29642)
(4.50833 0 9.24796)
(3.26826 0 10.3416)
(1.60464 0 11.3585)
(9.99545 0 0.133048)
(9.98026 0 0.264498)
(9.95339 0 0.396433)
(9.91596 0 0.530778)
(9.86889 0 0.669186)
(9.81254 0 0.813197)
(9.74709 0 0.964305)
(9.67273 0 1.12398)
(9.58965 0 1.29366)
(9.49804 0 1.47482)
(9.39805 0 1.66894)
(9.2898 0 1.87755)
(9.1734 0 2.10228)
(9.0489 0 2.34483)
(8.91627 0 2.60709)
(8.77543 0 2.89112)
(8.6261 0 3.19929)
(8.46786 0 3.53434)
(8.29997 0 3.89959)
(8.1213 0 4.29913)
(7.93013 0 4.73818)
(7.7239 0 5.22359)
(7.49879 0 5.76457)
(7.24888 0 6.37395)
(6.96468 0 7.07015)
(6.63065 0 7.88101)
(6.21397 0 8.85193)
(5.66521 0 10.0659)
(4.68931 0 11.7308)
(2.68672 0 14.5909)
(0.115995 0 -0.114605)
(0.272054 0 -0.10297)
(0.428914 0 -0.0796319)
(0.557767 0 -0.0576884)
(0.654523 0 -0.0398528)
(0.724339 0 -0.0260786)
(0.773568 0 -0.0157363)
(0.807459 0 -0.00818574)
(0.830056 0 -0.00286417)
(0.844539 0 0.000718144)
(0.853433 0 0.00298054)
(0.8587 0 0.00426511)
(0.861823 0 0.00483734)
(0.863911 0 0.00490644)
(0.865777 0 0.00464903)
(0.86798 0 0.00421772)
(0.870817 0 0.00374225)
(0.874306 0 0.0033396)
(0.878194 0 0.00311517)
(0.881998 0 0.00314863)
(0.885092 0 0.00346914)
(0.886823 0 0.00401764)
(0.886758 0 0.00462076)
(0.884728 0 0.00516317)
(0.880571 0 0.00561179)
(0.874363 0 0.00595355)
(0.866276 0 0.00617563)
(0.856452 0 0.00629405)
(0.845235 0 0.00612492)
(0.831979 0 0.00470999)
(0.100615 0 -0.271836)
(0.254138 0 -0.251792)
(0.401974 0 -0.201497)
(0.526379 0 -0.153009)
(0.624468 0 -0.113315)
(0.700917 0 -0.0824937)
(0.761057 0 -0.0591782)
(0.809126 0 -0.0419522)
(0.848306 0 -0.0295704)
(0.881031 0 -0.0209477)
(0.909176 0 -0.0151528)
(0.934134 0 -0.0114323)
(0.956906 0 -0.00922029)
(0.978224 0 -0.00809006)
(0.998627 0 -0.00769849)
(1.0185 0 -0.00775289)
(1.03812 0 -0.00799319)
(1.05761 0 -0.00817917)
(1.077 0 -0.00809884)
(1.09618 0 -0.00759883)
(1.11495 0 -0.00661656)
(1.13306 0 -0.00520182)
(1.15006 0 -0.00350857)
(1.1655 0 -0.00169507)
(1.17925 0 9.2184e-05)
(1.19129 0 0.00178796)
(1.20173 0 0.00344795)
(1.21014 0 0.00491638)
(1.21653 0 0.00579253)
(1.22265 0 0.004884)
(0.0805637 0 -0.431246)
(0.214109 0 -0.398705)
(0.332916 0 -0.3213)
(0.432445 0 -0.247308)
(0.510339 0 -0.187138)
(0.571339 0 -0.140537)
(0.619847 0 -0.105285)
(0.659146 0 -0.0791674)
(0.691683 0 -0.0602785)
(0.719358 0 -0.046965)
(0.743636 0 -0.0377953)
(0.765544 0 -0.0316153)
(0.78576 0 -0.027588)
(0.804767 0 -0.0251059)
(0.822924 0 -0.0237018)
(0.8405 0 -0.0229876)
(0.857683 0 -0.0226139)
(0.874588 0 -0.0222578)
(0.891249 0 -0.0216421)
(0.90763 0 -0.0205798)
(0.923642 0 -0.0189988)
(0.939174 0 -0.0169156)
(0.95412 0 -0.0144122)
(0.968391 0 -0.011705)
(0.981954 0 -0.00908131)
(0.994912 0 -0.0066455)
(1.00731 0 -0.00427356)
(1.01961 0 -0.00206888)
(1.03138 0 -0.000343171)
(1.04381 0 0.000724756)
(0.0609394 0 -0.558974)
(0.168605 0 -0.509112)
(0.251487 0 -0.407155)
(0.321522 0 -0.312714)
(0.374322 0 -0.237249)
(0.415361 0 -0.179318)
(0.447843 0 -0.135701)
(0.473914 0 -0.103435)
(0.495153 0 -0.0801126)
(0.512872 0 -0.0636746)
(0.528152 0 -0.0522734)
(0.541635 0 -0.0444351)
(0.553641 0 -0.0391562)
(0.564408 0 -0.0357179)
(0.574145 0 -0.0335714)
(0.58303 0 -0.0322679)
(0.591215 0 -0.0314073)
(0.598825 0 -0.0306182)
(0.605945 0 -0.0295788)
(0.612614 0 -0.0280786)
(0.618843 0 -0.0260469)
(0.624633 0 -0.0234965)
(0.62997 0 -0.0205119)
(0.634825 0 -0.0173598)
(0.63917 0 -0.0144333)
(0.64311 0 -0.011758)
(0.646754 0 -0.00914604)
(0.650268 0 -0.00686162)
(0.652994 0 -0.00542536)
(0.656483 0 -0.00348483)
(0.0404993 0 -0.656387)
(0.116823 0 -0.584777)
(0.158235 0 -0.461639)
(0.196831 0 -0.352741)
(0.22171 0 -0.267338)
(0.24026 0 -0.202371)
(0.253934 0 -0.153614)
(0.263722 0 -0.117459)
(0.270306 0 -0.0912479)
(0.27446 0 -0.0727904)
(0.277061 0 -0.0598597)
(0.278344 0 -0.0506354)
(0.278289 0 -0.0441181)
(0.276953 0 -0.0395848)
(0.274457 0 -0.0364817)
(0.27095 0 -0.0343614)
(0.266606 0 -0.0328272)
(0.261632 0 -0.0314999)
(0.256226 0 -0.0300247)
(0.250525 0 -0.0281626)
(0.2446 0 -0.0258414)
(0.238471 0 -0.023049)
(0.23209 0 -0.0198174)
(0.225413 0 -0.0164248)
(0.218372 0 -0.0135906)
(0.210646 0 -0.0116644)
(0.202132 0 -0.00953516)
(0.194728 0 -0.00601086)
(0.183562 0 -0.00190492)
(0.165906 0 0.000635189)
(0.0185354 0 -0.718056)
(0.0579541 0 -0.621276)
(0.0539979 0 -0.480821)
(0.0596369 0 -0.363411)
(0.0541443 0 -0.272374)
(0.0475976 0 -0.203736)
(0.0392072 0 -0.152333)
(0.029194 0 -0.114045)
(0.017464 0 -0.0862474)
(0.00455551 0 -0.0666901)
(-0.0089257 0 -0.0531893)
(-0.0230065 0 -0.0434888)
(-0.0378559 0 -0.0364484)
(-0.053389 0 -0.0314613)
(-0.0694496 0 -0.0280317)
(-0.0858547 0 -0.0257651)
(-0.102362 0 -0.0242934)
(-0.118709 0 -0.0231989)
(-0.134777 0 -0.0220283)
(-0.15064 0 -0.0204602)
(-0.166516 0 -0.0184544)
(-0.182717 0 -0.0160319)
(-0.199444 0 -0.0129799)
(-0.216567 0 -0.00907569)
(-0.234516 0 -0.00472446)
(-0.256221 0 -0.00112573)
(-0.278748 0 0.00166356)
(-0.297826 0 0.0049037)
(-0.308934 0 0.00711826)
(-0.315626 0 0.00610294)
(-0.00667714 0 -0.736605)
(-0.0101044 0 -0.612415)
(-0.0603518 0 -0.46074)
(-0.0915768 0 -0.34174)
(-0.129456 0 -0.250425)
(-0.164791 0 -0.182607)
(-0.19867 0 -0.132198)
(-0.231152 0 -0.0948733)
(-0.262669 0 -0.0681642)
(-0.293091 0 -0.0498011)
(-0.322163 0 -0.0370954)
(-0.34972 0 -0.0278795)
(-0.375932 0 -0.0212576)
(-0.401015 0 -0.01677)
(-0.425182 0 -0.0139368)
(-0.448666 0 -0.0123446)
(-0.471627 0 -0.0115747)
(-0.494156 0 -0.0110768)
(-0.516401 0 -0.0101533)
(-0.53872 0 -0.00818348)
(-0.562151 0 -0.00512123)
(-0.58745 0 -0.00166337)
(-0.612923 0 0.00155312)
(-0.636059 0 0.00452515)
(-0.654525 0 0.00720609)
(-0.667684 0 0.00892118)
(-0.679255 0 0.00953211)
(-0.689863 0 0.00978284)
(-0.698618 0 0.00964624)
(-0.703734 0 0.00861897)
(-0.0385482 0 -0.703168)
(-0.0897761 0 -0.555874)
(-0.185507 0 -0.404023)
(-0.259108 0 -0.289086)
(-0.331764 0 -0.203034)
(-0.397626 0 -0.140787)
(-0.45637 0 -0.0956705)
(-0.508402 0 -0.0621555)
(-0.555392 0 -0.0374089)
(-0.599337 0 -0.0201824)
(-0.641969 0 -0.00905304)
(-0.680473 0 -0.00250927)
(-0.714454 0 0.00135382)
(-0.745083 0 0.00371087)
(-0.773408 0 0.00510745)
(-0.800299 0 0.00581007)
(-0.826304 0 0.00601999)
(-0.851622 0 0.00606998)
(-0.876123 0 0.00647165)
(-0.899347 0 0.00769905)
(-0.920344 0 0.00969966)
(-0.938882 0 0.0117554)
(-0.95606 0 0.0131739)
(-0.972055 0 0.0138358)
(-0.98627 0 0.0140565)
(-0.99826 0 0.0142003)
(-1.00843 0 0.0143839)
(-1.01734 0 0.0144053)
(-1.0247 0 0.0138563)
(-1.02861 0 0.0127418)
(-0.0782859 0 -0.613602)
(-0.180676 0 -0.44904)
(-0.329154 0 -0.303623)
(-0.45016 0 -0.199128)
(-0.561556 0 -0.124096)
(-0.660991 0 -0.0706654)
(-0.748527 0 -0.0337026)
(-0.82419 0 -0.00885087)
(-0.883609 0 0.00671898)
(-0.930692 0 0.0163489)
(-0.968046 0 0.0214966)
(-1.00045 0 0.0236815)
(-1.02975 0 0.0242991)
(-1.05654 0 0.0241977)
(-1.0814 0 0.0237541)
(-1.10473 0 0.0230149)
(-1.12675 0 0.0219319)
(-1.14749 0 0.0206473)
(-1.16698 0 0.0195886)
(-1.18545 0 0.0192582)
(-1.20323 0 0.0198829)
(-1.22055 0 0.0211175)
(-1.23726 0 0.0221188)
(-1.25285 0 0.0221749)
(-1.26651 0 0.0212649)
(-1.27777 0 0.0199603)
(-1.28691 0 0.0188386)
(-1.29469 0 0.0180299)
(-1.30098 0 0.0171656)
(-1.30411 0 0.016264)
(-0.131069 0 -0.462967)
(-0.292913 0 -0.290007)
(-0.501312 0 -0.160429)
(-0.673821 0 -0.0706403)
(-0.819028 0 -0.0125267)
(-0.92988 0 0.0188941)
(-1.01477 0 0.0354426)
(-1.0793 0 0.0430125)
(-1.13257 0 0.0463121)
(-1.17692 0 0.0473439)
(-1.21471 0 0.0470664)
(-1.24752 0 0.0457954)
(-1.27645 0 0.0437897)
(-1.30243 0 0.0415633)
(-1.32634 0 0.0394731)
(-1.3488 0 0.0374648)
(-1.37006 0 0.0353047)
(-1.39 0 0.0330294)
(-1.40856 0 0.0311219)
(-1.42601 0 0.0301797)
(-1.44291 0 0.0303678)
(-1.45967 0 0.0311359)
(-1.47618 0 0.0314379)
(-1.49166 0 0.0304231)
(-1.50502 0 0.0280762)
(-1.51562 0 0.0252226)
(-1.52382 0 0.0228327)
(-1.53058 0 0.0212596)
(-1.53598 0 0.0201859)
(-1.53853 0 0.019485)
(-0.207633 0 -0.259195)
(-0.448361 0 -0.0612895)
(-0.701168 0 0.0459357)
(-0.883281 0 0.0870313)
(-1.0216 0 0.0992179)
(-1.13111 0 0.100976)
(-1.21753 0 0.097828)
(-1.28637 0 0.0925678)
(-1.34174 0 0.0864366)
(-1.38699 0 0.0802925)
(-1.425 0 0.074577)
(-1.45764 0 0.0691473)
(-1.48608 0 0.0639364)
(-1.51132 0 0.0593154)
(-1.53444 0 0.0555698)
(-1.55633 0 0.0523806)
(-1.57718 0 0.0491037)
(-1.5966 0 0.0455476)
(-1.61427 0 0.0423463)
(-1.63055 0 0.0404504)
(-1.64635 0 0.0401864)
(-1.66246 0 0.0407653)
(-1.67887 0 0.040673)
(-1.69447 0 0.0386702)
(-1.70772 0 0.0347131)
(-1.71769 0 0.0300529)
(-1.72485 0 0.0262627)
(-1.7305 0 0.0239973)
(-1.73502 0 0.0228482)
(-1.73711 0 0.0223535)
(-0.297949 0 0.132606)
(-0.573663 0 0.240407)
(-0.849662 0 0.25286)
(-1.04945 0 0.238695)
(-1.20168 0 0.214647)
(-1.31715 0 0.188742)
(-1.40535 0 0.164892)
(-1.47391 0 0.144218)
(-1.52794 0 0.126668)
(-1.57145 0 0.11246)
(-1.60781 0 0.101256)
(-1.63913 0 0.0918155)
(-1.66626 0 0.0833256)
(-1.69 0 0.0761582)
(-1.7117 0 0.07081)
(-1.73262 0 0.0666898)
(-1.75293 0 0.0624841)
(-1.77176 0 0.0575866)
(-1.7883 0 0.0528714)
(-1.80298 0 0.0499077)
(-1.81728 0 0.0493552)
(-1.8326 0 0.0501192)
(-1.84907 0 0.0499783)
(-1.86514 0 0.0470735)
(-1.87854 0 0.0412703)
(-1.88785 0 0.0344312)
(-1.8937 0 0.0290374)
(-1.89799 0 0.026172)
(-1.90154 0 0.0251147)
(-1.90321 0 0.0248351)
(-0.359892 0 0.550792)
(-0.699647 0 0.572857)
(-1.02341 0 0.490896)
(-1.23821 0 0.406877)
(-1.39157 0 0.335775)
(-1.50229 0 0.275933)
(-1.58408 0 0.229148)
(-1.64669 0 0.193153)
(-1.69535 0 0.16439)
(-1.73389 0 0.142273)
(-1.76636 0 0.126158)
(-1.79508 0 0.113267)
(-1.8201 0 0.101483)
(-1.84145 0 0.0915083)
(-1.86083 0 0.0846686)
(-1.88029 0 0.0801319)
(-1.90006 0 0.075397)
(-1.91836 0 0.069059)
(-1.93354 0 0.0624009)
(-1.94603 0 0.0581308)
(-1.95823 0 0.0575688)
(-1.97255 0 0.0591484)
(-1.98935 0 0.0595189)
(-2.00642 0 0.0558609)
(-2.02034 0 0.0478584)
(-2.02889 0 0.0382543)
(-2.03296 0 0.030934)
(-2.03544 0 0.0276312)
(-2.03788 0 0.0269604)
(-2.03916 0 0.0269407)
(-0.480014 0 1.06667)
(-0.911286 0 0.976502)
(-1.269 0 0.751326)
(-1.4672 0 0.569378)
(-1.59922 0 0.447126)
(-1.69123 0 0.350488)
(-1.75584 0 0.282638)
(-1.80583 0 0.235854)
(-1.84519 0 0.197759)
(-1.87551 0 0.167617)
(-1.90171 0 0.147416)
(-1.92693 0 0.132414)
(-1.94943 0 0.11774)
(-1.96743 0 0.104804)
(-1.98321 0 0.0969066)
(-2.00058 0 0.0931169)
(-2.02005 0 0.0886896)
(-2.03829 0 0.0807005)
(-2.05195 0 0.0711659)
(-2.06137 0 0.0649376)
(-2.07056 0 0.0646379)
(-2.08356 0 0.0679256)
(-2.1011 0 0.0696113)
(-2.11997 0 0.0654101)
(-2.13497 0 0.0546679)
(-2.14262 0 0.0413654)
(-2.14411 0 0.031575)
(-2.14406 0 0.0281158)
(-2.14522 0 0.0283802)
(-2.1462 0 0.0287361)
(-0.712825 0 2.07195)
(-1.24775 0 1.64408)
(-1.62791 0 1.04362)
(-1.75414 0 0.654909)
(-1.82683 0 0.519707)
(-1.88343 0 0.407009)
(-1.91613 0 0.327997)
(-1.94756 0 0.27533)
(-1.97727 0 0.224336)
(-1.99705 0 0.181952)
(-2.01361 0 0.161005)
(-2.03437 0 0.149574)
(-2.05468 0 0.133936)
(-2.06843 0 0.116787)
(-2.0788 0 0.106807)
(-2.09328 0 0.104656)
(-2.11333 0 0.101348)
(-2.13271 0 0.0911658)
(-2.14484 0 0.0772861)
(-2.1498 0 0.0682747)
(-2.15438 0 0.0690482)
(-2.16547 0 0.0758556)
(-2.18436 0 0.0803473)
(-2.20619 0 0.0760862)
(-2.22313 0 0.0619035)
(-2.22961 0 0.0434879)
(-2.22727 0 0.0303204)
(-2.22352 0 0.0271936)
(-2.22319 0 0.029427)
(-2.2241 0 0.0304399)
(9.9959 0 0.138442)
(9.98225 0 0.275232)
(9.95811 0 0.412515)
(9.92454 0 0.552261)
(9.88243 0 0.696145)
(9.83217 0 0.845722)
(9.774 0 1.0025)
(9.70816 0 1.16795)
(9.63494 0 1.34353)
(9.5546 0 1.53072)
(9.46742 0 1.731)
(9.37366 0 1.94593)
(9.27359 0 2.17713)
(9.16746 0 2.42634)
(9.05552 0 2.69548)
(8.938 0 2.98668)
(8.81508 0 3.30239)
(8.6869 0 3.64552)
(8.55354 0 4.01957)
(8.41498 0 4.42891)
(8.27115 0 4.8792)
(8.12195 0 5.3779)
(7.9673 0 5.93517)
(7.80748 0 6.56537)
(7.64368 0 7.28958)
(7.48086 0 8.14039)
(7.33224 0 9.17174)
(7.28781 0 10.4772)
(7.74519 0 12.2015)
(7.92536 0 14.9198)
(9.99638 0 0.143402)
(9.98434 0 0.285086)
(9.96305 0 0.427243)
(9.93352 0 0.57187)
(9.89657 0 0.720659)
(9.85263 0 0.875169)
(9.80198 0 1.03691)
(9.74493 0 1.20735)
(9.68185 0 1.38795)
(9.61311 0 1.58017)
(9.53909 0 1.78549)
(9.46021 0 2.00543)
(9.37691 0 2.24161)
(9.28967 0 2.49576)
(9.199 0 2.76975)
(9.1055 0 3.06571)
(9.00979 0 3.38606)
(8.91265 0 3.73366)
(8.81498 0 4.11195)
(8.71797 0 4.5252)
(8.6232 0 4.97882)
(8.53306 0 5.47985)
(8.45125 0 6.03761)
(8.38402 0 6.6647)
(8.34255 0 7.37833)
(8.34888 0 8.20193)
(8.44184 0 9.16566)
(8.67729 0 10.3028)
(9.32396 0 11.5582)
(9.81354 0 12.6479)
(9.99688 0 0.147839)
(9.98651 0 0.293897)
(9.96819 0 0.440392)
(9.94283 0 0.589338)
(9.91121 0 0.742431)
(9.87378 0 0.901221)
(9.83086 0 1.06721)
(9.78284 0 1.24184)
(9.73015 0 1.42657)
(9.67324 0 1.62281)
(9.61265 0 1.832)
(9.5489 0 2.05563)
(9.48264 0 2.29526)
(9.41455 0 2.55255)
(9.34543 0 2.82929)
(9.27621 0 3.12748)
(9.20798 0 3.44941)
(9.14207 0 3.7977)
(9.08019 0 4.17547)
(9.02453 0 4.58649)
(8.97812 0 5.03536)
(8.94524 0 5.52776)
(8.93217 0 6.07067)
(8.94843 0 6.67249)
(9.00852 0 7.34267)
(9.13455 0 8.08987)
(9.35756 0 8.91599)
(9.68704 0 9.80997)
(10.2529 0 10.7205)
(10.9407 0 11.4378)
(9.9974 0 0.1517)
(9.98874 0 0.301558)
(9.97347 0 0.451798)
(9.95239 0 0.604436)
(9.92623 0 0.76116)
(9.89545 0 0.923504)
(9.86042 0 1.09294)
(9.82158 0 1.2709)
(9.77943 0 1.45877)
(9.73453 0 1.65793)
(9.68749 0 1.86976)
(9.639 0 2.09568)
(9.58985 0 2.33714)
(9.54094 0 2.59568)
(9.49331 0 2.87296)
(9.44821 0 3.17078)
(9.4071 0 3.49115)
(9.37183 0 3.83632)
(9.34469 0 4.20889)
(9.32866 0 4.61181)
(9.32765 0 5.04851)
(9.34697 0 5.52282)
(9.39388 0 6.03886)
(9.47827 0 6.60062)
(9.61336 0 7.21088)
(9.81598 0 7.8693)
(10.1089 0 8.56882)
(10.5008 0 9.29479)
(11.0587 0 10.0371)
(11.8523 0 10.6825)
(9.99792 0 0.154939)
(9.99101 0 0.307977)
(9.97884 0 0.461325)
(9.96212 0 0.616987)
(9.9415 0 0.776629)
(9.91745 0 0.941758)
(9.8904 0 1.11381)
(9.86082 0 1.29416)
(9.82928 0 1.48416)
(9.79641 0 1.6851)
(9.76293 0 1.89829)
(9.72964 0 2.12503)
(9.69747 0 2.36666)
(9.6675 0 2.62456)
(9.64097 0 2.90017)
(9.61937 0 3.19502)
(9.60449 0 3.51078)
(9.59849 0 3.84922)
(9.60408 0 4.21227)
(9.62464 0 4.60196)
(9.66449 0 5.0204)
(9.72916 0 5.46961)
(9.82572 0 5.95121)
(9.96314 0 6.46589)
(10.1525 0 7.01257)
(10.4068 0 7.5874)
(10.7435 0 8.18225)
(11.1741 0 8.78242)
(11.7218 0 9.37635)
(12.4754 0 9.8891)
(9.99845 0 0.157513)
(9.9933 0 0.313067)
(9.98427 0 0.468846)
(9.97194 0 0.626823)
(9.9569 0 0.788633)
(9.93961 0 0.955741)
(9.92054 0 1.12953)
(9.90022 0 1.31133)
(9.87924 0 1.5024)
(9.85832 0 1.70396)
(9.83825 0 1.91721)
(9.81992 0 2.14332)
(9.80438 0 2.38347)
(9.79283 0 2.63884)
(9.78668 0 2.91064)
(9.78757 0 3.20009)
(9.79749 0 3.50843)
(9.81878 0 3.83691)
(9.85433 0 4.18676)
(9.90761 0 4.55909)
(9.98292 0 4.95481)
(10.0855 0 5.37439)
(10.2216 0 5.81757)
(10.3989 0 6.2829)
(10.6262 0 6.76712)
(10.9131 0 7.26446)
(11.2709 0 7.7657)
(11.7076 0 8.25527)
(12.224 0 8.71646)
(12.9003 0 9.10774)
(9.99898 0 0.159382)
(9.9956 0 0.316752)
(9.98971 0 0.474247)
(9.98176 0 0.633798)
(9.97228 0 0.796992)
(9.96173 0 0.965244)
(9.95059 0 1.13988)
(9.93941 0 1.32214)
(9.92886 0 1.51322)
(9.91967 0 1.71423)
(9.9127 0 1.92624)
(9.90892 0 2.15028)
(9.90943 0 2.38735)
(9.91554 0 2.63842)
(9.92873 0 2.90442)
(9.95074 0 3.18623)
(9.98361 0 3.48467)
(10.0297 0 3.80048)
(10.092 0 4.1342)
(10.1737 0 4.48614)
(10.2788 0 4.85619)
(10.4119 0 5.24366)
(10.5783 0 5.64697)
(10.7839 0 6.06331)
(11.0353 0 6.4882)
(11.3387 0 6.91493)
(11.7003 0 7.33416)
(12.1243 0 7.73246)
(12.6045 0 8.09525)
(13.2104 0 8.40198)
(9.99951 0 0.160513)
(9.99789 0 0.318966)
(9.9951 0 0.477433)
(9.9915 0 0.637786)
(9.98753 0 0.801556)
(9.98361 0 0.970096)
(9.98026 0 1.14466)
(9.97806 0 1.3264)
(9.97767 0 1.51642)
(9.97987 0 1.71571)
(9.98555 0 1.92522)
(9.99572 0 2.14581)
(10.0115 0 2.37829)
(10.0343 0 2.6234)
(10.0655 0 2.88179)
(10.107 0 3.15402)
(10.1607 0 3.4405)
(10.2289 0 3.74148)
(10.3143 0 4.05692)
(10.4199 0 4.38646)
(10.5492 0 4.72924)
(10.706 0 5.08373)
(10.8943 0 5.44753)
(11.1186 0 5.81714)
(11.3832 0 6.18765)
(11.6917 0 6.55249)
(12.0471 0 6.90338)
(12.4509 0 7.22999)
(12.8955 0 7.52116)
(13.4389 0 7.76557)
(10 0 0.160878)
(10.0001 0 0.319654)
(10.0004 0 0.478323)
(10.0011 0 0.638685)
(10.0025 0 0.802207)
(10.0051 0 0.970166)
(10.0093 0 1.14373)
(10.0158 0 1.32398)
(10.0252 0 1.51189)
(10.0383 0 1.70834)
(10.0561 0 1.91412)
(10.0795 0 2.12995)
(10.1096 0 2.35645)
(10.1478 0 2.59411)
(10.1956 0 2.84333)
(10.2547 0 3.10436)
(10.3268 0 3.37724)
(10.4142 0 3.6618)
(10.5192 0 3.95755)
(10.6444 0 4.2636)
(10.7927 0 4.57858)
(10.9669 0 4.90047)
(11.1702 0 5.22646)
(11.4054 0 5.55285)
(11.6753 0 5.87489)
(11.9816 0 6.18671)
(12.3251 0 6.48144)
(12.7057 0 6.75125)
(13.1156 0 6.98777)
(13.6037 0 7.18414)
(10.0005 0 0.160455)
(10.0023 0 0.318773)
(10.0056 0 0.476856)
(10.0104 0 0.636423)
(10.017 0 0.798861)
(10.0259 0 0.965369)
(10.0374 0 1.13703)
(10.0523 0 1.31481)
(10.071 0 1.49959)
(10.0945 0 1.69211)
(10.1236 0 1.89304)
(10.1593 0 2.10292)
(10.2027 0 2.32217)
(10.2551 0 2.55109)
(10.3178 0 2.78983)
(10.3924 0 3.03836)
(10.4806 0 3.29643)
(10.5843 0 3.56352)
(10.7054 0 3.83881)
(10.8461 0 4.12106)
(11.0086 0 4.40859)
(11.195 0 4.69913)
(11.4075 0 4.98981)
(11.6478 0 5.27705)
(11.9173 0 5.55654)
(12.2165 0 5.82331)
(12.545 0 6.07182)
(12.9015 0 6.29616)
(13.2789 0 6.49029)
(13.719 0 6.65004)
(10.001 0 0.159229)
(10.0044 0 0.316295)
(10.0106 0 0.472995)
(10.0194 0 0.630954)
(10.0311 0 0.791474)
(10.0459 0 0.955667)
(10.0644 0 1.12452)
(10.0872 0 1.29891)
(10.1148 0 1.47958)
(10.148 0 1.66717)
(10.1876 0 1.86219)
(10.2347 0 2.06503)
(10.2901 0 2.27595)
(10.3552 0 2.49505)
(10.4311 0 2.72226)
(10.5192 0 2.95733)
(10.621 0 3.19977)
(10.7381 0 3.44883)
(10.872 0 3.70343)
(11.0245 0 3.96217)
(11.1972 0 4.2232)
(11.3915 0 4.48423)
(11.6086 0 4.74249)
(11.8496 0 4.99473)
(12.1149 0 5.23722)
(12.404 0 5.46586)
(12.716 0 5.67633)
(13.0489 0 5.86425)
(13.3966 0 6.02538)
(13.7956 0 6.15721)
(10.0015 0 0.157193)
(10.0065 0 0.312205)
(10.0154 0 0.46672)
(10.028 0 0.62226)
(10.0445 0 0.780036)
(10.065 0 0.941069)
(10.0901 0 1.10625)
(10.1202 0 1.27635)
(10.1561 0 1.452)
(10.1983 0 1.63372)
(10.2476 0 1.82189)
(10.3049 0 2.01675)
(10.3712 0 2.21841)
(10.4474 0 2.42681)
(10.5347 0 2.6417)
(10.6343 0 2.86266)
(10.7474 0 3.08903)
(10.8752 0 3.31988)
(11.0191 0 3.55403)
(11.1801 0 3.78998)
(11.3594 0 4.02586)
(11.558 0 4.25951)
(11.7763 0 4.48839)
(12.0148 0 4.70963)
(12.2732 0 4.92013)
(12.5506 0 5.1166)
(12.8457 0 5.29573)
(13.1564 0 5.45434)
(13.4773 0 5.58952)
(13.8409 0 5.69975)
(10.0019 0 0.154345)
(10.0084 0 0.306502)
(10.0199 0 0.458034)
(10.0361 0 0.610354)
(10.0571 0 0.764577)
(10.083 0 0.921631)
(10.1142 0 1.08231)
(10.1512 0 1.24727)
(10.1946 0 1.41706)
(10.245 0 1.59207)
(10.303 0 1.77255)
(10.3695 0 1.95863)
(10.4453 0 2.15029)
(10.5312 0 2.34731)
(10.6283 0 2.54934)
(10.7374 0 2.75582)
(10.8595 0 2.96596)
(10.9957 0 3.17878)
(11.1468 0 3.39303)
(11.3135 0 3.60721)
(11.4967 0 3.81957)
(11.6966 0 4.02809)
(11.9136 0 4.23054)
(12.1473 0 4.4245)
(12.3972 0 4.60743)
(12.6622 0 4.77674)
(12.9407 0 4.92994)
(13.2307 0 5.06477)
(13.5278 0 5.17923)
(13.8609 0 5.27248)
(10.0024 0 0.150692)
(10.0102 0 0.2992)
(10.0241 0 0.446962)
(10.0438 0 0.595277)
(10.0689 0 0.745161)
(10.0997 0 0.897449)
(10.1366 0 1.05284)
(10.1799 0 1.21189)
(10.2302 0 1.37504)
(10.2879 0 1.54258)
(10.3537 0 1.71466)
(10.4283 0 1.89131)
(10.5123 0 2.07237)
(10.6064 0 2.25755)
(10.7115 0 2.44639)
(10.8283 0 2.63824)
(10.9575 0 2.83228)
(11.0998 0 3.02748)
(11.2558 0 3.22261)
(11.426 0 3.41626)
(11.6106 0 3.60679)
(11.8098 0 3.79244)
(12.0234 0 3.97128)
(12.2509 0 4.1413)
(12.4914 0 4.30046)
(12.7438 0 4.44678)
(13.0064 0 4.57841)
(13.2775 0 4.69375)
(13.5533 0 4.79147)
(13.86 0 4.87113)
(10.0027 0 0.146246)
(10.0119 0 0.290325)
(10.0281 0 0.433547)
(10.0508 0 0.577094)
(10.0798 0 0.721886)
(10.1152 0 0.868662)
(10.1572 0 1.01803)
(10.2062 0 1.17045)
(10.2626 0 1.32627)
(10.3269 0 1.48569)
(10.3995 0 1.64878)
(10.481 0 1.81545)
(10.572 0 1.98549)
(10.673 0 2.15853)
(10.7846 0 2.33404)
(10.9073 0 2.51134)
(11.0418 0 2.68958)
(11.1883 0 2.86777)
(11.3473 0 3.04473)
(11.5189 0 3.21915)
(11.7032 0 3.3896)
(11.9 0 3.55454)
(12.1089 0 3.71233)
(12.3291 0 3.86136)
(12.5599 0 4.00002)
(12.7998 0 4.1268)
(13.0476 0 4.24035)
(13.3014 0 4.33955)
(13.5581 0 4.42353)
(13.8419 0 4.49214)
(10.0031 0 0.141025)
(10.0134 0 0.279915)
(10.0317 0 0.41785)
(10.0573 0 0.555897)
(10.0898 0 0.694879)
(10.1293 0 0.835442)
(10.1759 0 0.978104)
(10.23 0 1.12325)
(10.2919 0 1.27114)
(10.3618 0 1.42188)
(10.4403 0 1.57548)
(10.5277 0 1.73179)
(10.6244 0 1.89052)
(10.7309 0 2.05126)
(10.8476 0 2.21346)
(10.9749 0 2.37642)
(11.113 0 2.53933)
(11.2621 0 2.70123)
(11.4225 0 2.86105)
(11.594 0 3.01761)
(11.7765 0 3.16967)
(11.9697 0 3.31589)
(12.1729 0 3.45497)
(12.3855 0 3.58558)
(12.6063 0 3.70649)
(12.8344 0 3.81657)
(13.0682 0 3.91483)
(13.3063 0 4.00053)
(13.5461 0 4.0731)
(13.8097 0 4.13256)
(10.0034 0 0.135053)
(10.0148 0 0.268019)