/*--------------------------------*- C++ -*----------------------------------*\
  =========                 |
  \\      /  F ield         | OpenFOAM: The Open Source CFD Toolbox
   \\    /   O peration     | Website:  https://openfoam.org
    \\  /    A nd           | Version:  dev
     \\/     M anipulation  |
\*---------------------------------------------------------------------------*/
FoamFile
{
    version     2.0;
    format      ascii;
    class       surfaceVectorField;
    location    "5.9";
    object      Uf;
}
// * * * * * * * * * * * * * * * * * * * * * * * * * * * * * * * * * * * * * //

dimensions      [0 1 -1 0 0 0 0];

internalField   nonuniform List<vector> 
5457
(
(9.92088 0 0.0251095)
(9.97125 0 0.0387456)
(9.82402 0 0.0328267)
(9.92859 0 0.0485849)
(9.70961 0 0.0393118)
(9.85548 0 0.0587678)
(9.57544 0 0.0460113)
(9.7568 0 0.0705929)
(9.42138 0 0.0529487)
(9.63754 0 0.0830129)
(9.24755 0 0.060166)
(9.49862 0 0.095936)
(9.05363 0 0.0678107)
(9.33931 0 0.109612)
(8.83893 0 0.0760344)
(9.15875 0 0.124288)
(8.60253 0 0.0849701)
(8.9561 0 0.140167)
(8.34327 0 0.0947449)
(8.73039 0 0.157433)
(8.05985 0 0.105487)
(8.48041 0 0.17627)
(7.75081 0 0.117328)
(8.20478 0 0.196858)
(7.41457 0 0.130396)
(7.90196 0 0.219363)
(7.04951 0 0.144811)
(7.57031 0 0.243925)
(6.65404 0 0.160674)
(7.20819 0 0.270635)
(6.22672 0 0.178046)
(6.814 0 0.299503)
(5.76643 0 0.19693)
(6.38634 0 0.330418)
(5.27258 0 0.217235)
(5.92417 0 0.363088)
(4.74538 0 0.238738)
(5.42711 0 0.39698)
(4.18621 0 0.261035)
(4.89566 0 0.431241)
(3.59798 0 0.283491)
(4.33165 0 0.464624)
(2.98556 0 0.305204)
(3.73861 0 0.495428)
(2.35612 0 0.325071)
(3.12228 0 0.521515)
(1.71911 0 0.342549)
(2.49107 0 0.54056)
(1.08435 0 0.361882)
(1.85586 0 0.551675)
(0.451838 0 0.348684)
(1.24548 0 0.563022)
(-0.145837 0 0.102465)
(0.608919 0 0.544881)
(-0.42362 0 -0.207096)
(0.0946647 0 0.259371)
(-0.402156 0 -0.36126)
(-0.13367 0 -0.0205259)
(-0.119681 0 -0.393887)
(9.99641 0 0.0516721)
(9.99705 0 0.0405043)
(9.95879 0 0.070861)
(9.97851 0 0.0674539)
(9.89824 0 0.0879862)
(9.93377 0 0.0898692)
(9.81659 0 0.105984)
(9.86453 0 0.113554)
(9.71359 0 0.124921)
(9.77438 0 0.138514)
(9.58909 0 0.144853)
(9.66436 0 0.164645)
(9.44275 0 0.166089)
(9.53397 0 0.192331)
(9.27391 0 0.188967)
(9.3825 0 0.22203)
(9.08167 0 0.213783)
(9.2092 0 0.254148)
(8.86491 0 0.240816)
(9.01317 0 0.289064)
(8.62231 0 0.270338)
(8.79332 0 0.327153)
(8.3524 0 0.302609)
(8.54836 0 0.368788)
(8.05357 0 0.337859)
(8.27684 0 0.414319)
(7.72412 0 0.376265)
(7.97718 0 0.46405)
(7.36238 0 0.417906)
(7.64772 0 0.518194)
(6.96673 0 0.462712)
(7.28683 0 0.576812)
(6.53583 0 0.510392)
(6.89296 0 0.639732)
(6.06883 0 0.560339)
(6.46482 0 0.706435)
(5.56559 0 0.611527)
(6.0016 0 0.775917)
(5.0271 0 0.66239)
(5.50326 0 0.846532)
(4.45588 0 0.710713)
(4.97089 0 0.915814)
(3.8565 0 0.753544)
(4.40718 0 0.980313)
(3.2362 0 0.787199)
(3.81704 0 1.03546)
(2.60582 0 0.807503)
(3.20846 0 1.07549)
(1.9828 0 0.810468)
(2.59339 0 1.09315)
(1.40529 0 0.776897)
(1.99621 0 1.07708)
(0.929752 0 0.646401)
(1.4195 0 0.978409)
(0.439855 0 0.384339)
(0.937573 0 0.716797)
(0.059172 0 -0.118614)
(0.443792 0 0.343524)
(0.17492 0 -0.335932)
(9.98903 0 0.0594303)
(9.99481 0 0.045877)
(9.95434 0 0.0894756)
(9.97368 0 0.0848533)
(9.89729 0 0.118031)
(9.92984 0 0.119173)
(9.82047 0 0.147897)
(9.86357 0 0.153975)
(9.72416 0 0.17942)
(9.77736 0 0.190407)
(9.60822 0 0.212774)
(9.67227 0 0.228635)
(9.47235 0 0.248391)
(9.5481 0 0.269128)
(9.31608 0 0.286773)
(9.40432 0 0.312495)
(9.13869 0 0.328396)
(9.24035 0 0.359324)
(8.93925 0 0.373722)
(9.0555 0 0.410174)
(8.71665 0 0.423206)
(8.8489 0 0.465598)
(8.46961 0 0.477296)
(8.61952 0 0.526153)
(8.19668 0 0.5364)
(8.36616 0 0.592373)
(7.89633 0 0.600843)
(8.08752 0 0.664739)
(7.56692 0 0.670812)
(7.7822 0 0.74362)
(7.20684 0 0.746259)
(7.44874 0 0.829192)
(6.81457 0 0.826785)
(7.08569 0 0.921322)
(6.38888 0 0.911486)
(6.69171 0 1.01941)
(5.92904 0 0.998762)
(6.26572 0 1.12218)
(5.43514 0 1.0861)
(5.80712 0 1.22743)
(4.90855 0 1.16983)
(5.31608 0 1.33175)
(4.35243 0 1.2449)
(4.79398 0 1.4302)
(3.77259 0 1.30455)
(4.24398 0 1.51588)
(3.17873 0 1.33984)
(3.67182 0 1.57943)
(2.58663 0 1.33812)
(3.08633 0 1.60775)
(2.01987 0 1.27298)
(2.50293 0 1.58158)
(1.48695 0 1.09541)
(1.92874 0 1.46425)
(0.958301 0 0.769172)
(1.38525 0 1.21041)
(0.47988 0 0.202453)
(0.829545 0 0.80104)
(0.433732 0 0.134081)
(9.98515 0 0.0716131)
(9.99367 0 0.0531472)
(9.95039 0 0.113629)
(9.97088 0 0.10229)
(9.89437 0 0.154132)
(9.92691 0 0.147952)
(9.81882 0 0.195571)
(9.86185 0 0.193719)
(9.72442 0 0.238809)
(9.77746 0 0.241275)
(9.61113 0 0.284322)
(9.67467 0 0.291161)
(9.47875 0 0.332719)
(9.55343 0 0.343953)
(9.32695 0 0.384673)
(9.41336 0 0.40037)
(9.15524 0 0.440845)
(9.25401 0 0.461138)
(8.96292 0 0.501883)
(9.07484 0 0.52696)
(8.74917 0 0.568427)
(8.87521 0 0.598535)
(8.51305 0 0.641112)
(8.6543 0 0.676562)
(8.25347 0 0.720531)
(8.41123 0 0.761721)
(7.96926 0 0.807191)
(8.145 0 0.854638)
(7.65918 0 0.901439)
(7.85455 0 0.955821)
(7.32193 0 1.00335)
(7.53876 0 1.06557)
(6.95621 0 1.11258)
(7.19646 0 1.18385)
(6.56085 0 1.22814)
(6.82653 0 1.31008)
(6.13489 0 1.34817)
(6.42789 0 1.44292)
(5.67785 0 1.4696)
(5.99967 0 1.57991)
(5.19 0 1.58778)
(5.54134 0 1.71709)
(4.67287 0 1.69603)
(5.05306 0 1.84854)
(4.1298 0 1.78515)
(4.53597 0 1.96584)
(3.56666 0 1.84253)
(3.99274 0 2.05731)
(2.99206 0 1.85073)
(3.4276 0 2.10714)
(2.41585 0 1.78249)
(2.84764 0 2.09448)
(1.84055 0 1.60046)
(2.25623 0 1.98873)
(1.25939 0 1.27843)
(1.66032 0 1.75304)
(0.666777 0 0.789539)
(1.02397 0 1.36776)
(0.523037 0 0.787148)
(9.98337 0 0.0844063)
(9.99316 0 0.0612906)
(9.94821 0 0.136835)
(9.96959 0 0.119925)
(9.89315 0 0.18803)
(9.92575 0 0.176238)
(9.81907 0 0.240166)
(9.862 0 0.232695)
(9.72663 0 0.294464)
(9.77964 0 0.291084)
(9.6159 0 0.351656)
(9.6794 0 0.35227)
(9.48672 0 0.412467)
(9.56128 0 0.416973)
(9.33879 0 0.477673)
(9.42497 0 0.486005)
(9.17171 0 0.548047)
(9.2701 0 0.560201)
(8.98493 0 0.624351)
(9.09621 0 0.640383)
(8.77779 0 0.707341)
(8.90275 0 0.727365)
(8.54954 0 0.797762)
(8.68908 0 0.821954)
(8.29936 0 0.896325)
(8.45445 0 0.92494)
(8.02635 0 1.00365)
(8.19808 0 1.03705)
(7.72958 0 1.12021)
(7.91912 0 1.15891)
(7.40806 0 1.24617)
(7.61669 0 1.29093)
(7.06077 0 1.38127)
(7.28986 0 1.43315)
(6.68669 0 1.52459)
(6.93763 0 1.58511)
(6.28485 0 1.67419)
(6.55899 0 1.74551)
(5.85438 0 1.82679)
(6.15287 0 1.91189)
(5.39471 0 1.97726)
(5.71822 0 2.08017)
(4.90575 0 2.11806)
(5.25408 0 2.24409)
(4.38825 0 2.23861)
(4.75973 0 2.39461)
(3.84394 0 2.32455)
(4.23495 0 2.5192)
(3.27544 0 2.35695)
(3.67989 0 2.60124)
(2.6854 0 2.31059)
(3.09572 0 2.6197)
(2.07269 0 2.155)
(2.48169 0 2.54732)
(1.42938 0 1.8674)
(1.83992 0 2.35372)
(0.742613 0 1.41956)
(1.13136 0 2.02452)
(0.543307 0 1.51449)
(9.98264 0 0.0974962)
(9.99299 0 0.0697917)
(9.94744 0 0.159772)
(9.96925 0 0.137581)
(9.89354 0 0.221345)
(9.92597 0 0.203924)
(9.82134 0 0.284088)
(9.86381 0 0.270684)
(9.73134 0 0.349344)
(9.78386 0 0.339578)
(9.62367 0 0.418014)
(9.68665 0 0.411692)
(9.49819 0 0.490933)
(9.57219 0 0.487898)
(9.35466 0 0.568969)
(9.44022 0 0.569099)
(9.1927 0 0.653)
(9.29044 0 0.656229)
(9.01184 0 0.743894)
(9.12243 0 0.750209)
(8.81152 0 0.842513)
(8.93572 0 0.851953)
(8.59109 0 0.949707)
(8.72973 0 0.962364)
(8.34986 0 1.06628)
(8.50382 0 1.08232)
(8.08707 0 1.19296)
(8.25729 0 1.21265)
(7.80193 0 1.33031)
(7.98938 0 1.35405)
(7.4936 0 1.4786)
(7.6993 0 1.50703)
(7.16119 0 1.63769)
(7.38617 0 1.67177)
(6.80372 0 1.80676)
(7.04903 0 1.84792)
(6.42011 0 1.98398)
(6.68675 0 2.03437)
(6.00912 0 2.16614)
(6.29801 0 2.22885)
(5.5694 0 2.34811)
(5.88119 0 2.42749)
(5.09946 0 2.52221)
(5.43433 0 2.62427)
(4.59774 0 2.67757)
(4.95511 0 2.8103)
(4.06269 0 2.7995)
(4.44084 0 2.97323)
(3.4927 0 2.86911)
(3.88851 0 3.09663)
(2.88583 0 2.86292)
(3.29522 0 3.1599)
(2.23801 0 2.75393)
(2.65689 0 3.13791)
(1.54244 0 2.52103)
(1.97484 0 3.00319)
(0.793647 0 2.13133)
(1.20724 0 2.74059)
(0.556736 0 2.29182)
(9.9825 0 0.110624)
(9.99302 0 0.0783601)
(9.94771 0 0.182321)
(9.96954 0 0.155035)
(9.89523 0 0.253813)
(9.92722 0 0.230882)
(9.82524 0 0.326762)
(9.86697 0 0.307504)
(9.73814 0 0.40255)
(9.78978 0 0.386517)
(9.63404 0 0.482228)
(9.69606 0 0.469142)
(9.51286 0 0.566751)
(9.5858 0 0.556391)
(9.37439 0 0.657087)
(9.45881 0 0.649264)
(9.21829 0 0.754207)
(9.31481 0 0.748781)
(9.04415 0 0.85908)
(9.15347 0 0.855956)
(8.85146 0 0.972658)
(8.97435 0 0.971796)
(8.63963 0 1.09588)
(8.77692 0 1.09729)
(8.40803 0 1.22964)
(8.56059 0 1.23342)
(8.15596 0 1.37475)
(8.32471 0 1.38108)
(7.88265 0 1.53187)
(8.06853 0 1.54108)
(7.58728 0 1.70139)
(7.79126 0 1.71406)
(7.2689 0 1.88331)
(7.49196 0 1.90031)
(6.92643 0 2.07699)
(7.16955 0 2.09971)
(6.55851 0 2.28087)
(6.82266 0 2.31141)
(6.16347 0 2.49207)
(6.44959 0 2.53351)
(5.73913 0 2.70585)
(6.04809 0 2.76266)
(5.28273 0 2.915)
(5.61524 0 2.99348)
(4.79083 0 3.10917)
(5.14724 0 3.21786)
(4.25929 0 3.27421)
(4.63938 0 3.42428)
(3.68338 0 3.39186)
(4.08605 0 3.59715)
(3.05804 0 3.43968)
(3.48131 0 3.71654)
(2.37773 0 3.39179)
(2.81836 0 3.75812)
(1.63791 0 3.22617)
(2.09915 0 3.69398)
(0.839129 0 2.90084)
(1.27892 0 3.50447)
(0.573358 0 3.1137)
(9.98273 0 0.123579)
(9.99316 0 0.0868159)
(9.94873 0 0.204306)
(9.97027 0 0.17209)
(9.89794 0 0.285247)
(9.92927 0 0.256971)
(9.83051 0 0.36796)
(9.87124 0 0.342982)
(9.74671 0 0.453845)
(9.79716 0 0.431672)
(9.64669 0 0.54407)
(9.70735 0 0.524344)
(9.53039 0 0.6397)
(9.60181 0 0.622127)
(9.39763 0 0.741792)
(9.48039 0 0.726118)
(9.24814 0 0.851408)
(9.34287 0 0.837417)
(9.08154 0 0.969601)
(9.18895 0 0.957125)
(8.89737 0 1.09742)
(9.01825 0 1.08634)
(8.69511 0 1.23588)
(8.83031 0 1.22613)
(8.47414 0 1.38598)
(8.62456 0 1.37758)
(8.23377 0 1.54863)
(8.40038 0 1.54168)
(7.97324 0 1.72461)
(8.15703 0 1.71938)
(7.69162 0 1.91445)
(7.89365 0 1.91144)
(7.38786 0 2.11836)
(7.60921 0 2.11837)
(7.06063 0 2.33598)
(7.30243 0 2.3403)
(6.70821 0 2.56614)
(6.97166 0 2.57678)
(6.32837 0 2.8065)
(6.61472 0 2.82645)
(5.9181 0 3.05306)
(6.22872 0 3.08672)
(5.47345 0 3.29955)
(5.80974 0 3.35319)
(4.9893 0 3.53667)
(5.35265 0 3.619)
(4.45933 0 3.75142)
(4.85087 0 3.87401)
(3.87621 0 3.92647)
(4.29641 0 4.10395)
(3.23232 0 4.03986)
(3.68054 0 4.28969)
(2.52082 0 4.06498)
(2.9935 0 4.40677)
(1.73837 0 3.97612)
(2.23737 0 4.42457)
(0.889469 0 3.71874)
(1.36335 0 4.31628)
(0.598749 0 3.98488)
(9.98321 0 0.136201)
(9.99339 0 0.0950386)
(9.95032 0 0.225568)
(9.97131 0 0.188586)
(9.90151 0 0.315491)
(9.93193 0 0.282044)
(9.83694 0 0.407497)
(9.87643 0 0.376954)
(9.75684 0 0.503005)
(9.80579 0 0.474833)
(9.66136 0 0.603268)
(9.72031 0 0.577041)
(9.55047 0 0.70945)
(9.61996 0 0.684805)
(9.42404 0 0.822692)
(9.50466 0 0.799307)
(9.28185 0 0.944137)
(9.37423 0 0.921725)
(9.12357 0 1.07492)
(9.22845 0 1.05324)
(8.94881 0 1.21618)
(9.06697 0 1.19503)
(8.75707 0 1.36904)
(8.8894 0 1.34827)
(8.54778 0 1.53458)
(8.69522 0 1.51411)
(8.32026 0 1.71384)
(8.48384 0 1.6937)
(8.07372 0 1.90774)
(8.25452 0 1.8881)
(7.80715 0 2.11703)
(8.00638 0 2.09827)
(7.51934 0 2.34216)
(7.73827 0 2.32497)
(7.20869 0 2.58317)
(7.44874 0 2.56869)
(6.87311 0 2.8394)
(7.13586 0 2.82946)
(6.50978 0 3.10929)
(6.79702 0 3.10665)
(6.11489 0 3.38982)
(6.42869 0 3.39863)
(5.68332 0 3.67604)
(6.02605 0 3.70232)
(5.20838 0 3.96023)
(5.58269 0 4.01251)
(4.68165 0 4.231)
(5.09021 0 4.32099)
(4.09317 0 4.47232)
(4.53816 0 4.6154)
(3.4324 0 4.66254)
(3.91458 0 4.87787)
(2.69003 0 4.77313)
(3.20556 0 5.08357)
(1.86177 0 4.77236)
(2.41117 0 5.19793)
(0.954137 0 4.58968)
(1.4762 0 5.18425)
(0.639157 0 4.91939)
(9.98386 0 0.148366)
(9.99368 0 0.102942)
(9.95235 0 0.245966)
(9.97261 0 0.20439)
(9.90579 0 0.344393)
(9.9351 0 0.305964)
(9.84438 0 0.445191)
(9.88241 0 0.409263)
(9.76833 0 0.549803)
(9.81552 0 0.515808)
(9.67781 0 0.65955)
(9.73472 0 0.627002)
(9.57282 0 0.775678)
(9.64 0 0.744148)
(9.45329 0 0.899408)
(9.53131 0 0.868506)
(9.31903 0 1.03196)
(9.40854 0 1.00133)
(9.1698 0 1.17455)
(9.27153 0 1.14386)
(9.00524 0 1.32839)
(9.12001 0 1.29737)
(8.82494 0 1.49471)
(8.95363 0 1.46312)
(8.62836 0 1.6747)
(8.77196 0 1.64236)
(8.41487 0 1.86954)
(8.57445 0 1.83636)
(8.18363 0 2.08033)
(8.3604 0 2.04635)
(7.93362 0 2.30806)
(8.12891 0 2.2735)
(7.66349 0 2.55351)
(7.87882 0 2.51888)
(7.37145 0 2.81719)
(7.60856 0 2.78341)
(7.05506 0 3.09913)
(7.31599 0 3.0677)
(6.71102 0 3.39867)
(6.99821 0 3.37198)
(6.3348 0 3.7141)
(6.65118 0 3.6958)
(5.92024 0 4.04212)
(6.26939 0 4.03769)
(5.45914 0 4.37708)
(5.84528 0 4.39455)
(4.94091 0 4.7099)
(5.36874 0 4.76075)
(4.35255 0 5.02654)
(4.82662 0 5.12675)
(3.6794 0 5.30616)
(4.20298 0 5.47706)
(2.90733 0 5.51813)
(3.47769 0 5.78744)
(2.02751 0 5.62293)
(2.64484 0 6.01943)
(1.04502 0 5.52935)
(1.63757 0 6.12382)
(0.704402 0 5.94293)
(9.98465 0 0.159978)
(9.99402 0 0.11046)
(9.95473 0 0.265377)
(9.97409 0 0.219396)
(9.91065 0 0.371814)
(9.93868 0 0.328606)
(9.85267 0 0.480876)
(9.88905 0 0.439769)
(9.78101 0 0.594036)
(9.82619 0 0.554425)
(9.69582 0 0.712671)
(9.75039 0 0.674015)
(9.59717 0 0.838097)
(9.66167 0 0.799906)
(9.48503 0 0.971605)
(9.56004 0 0.933424)
(9.35929 0 1.11448)
(9.44544 0 1.07588)
(9.21975 0 1.26802)
(9.31778 0 1.2286)
(9.06614 0 1.43351)
(9.17686 0 1.39291)
(8.89813 0 1.61227)
(9.02243 0 1.57014)
(8.71523 0 1.80563)
(8.85412 0 1.76168)
(8.51688 0 2.01489)
(8.67147 0 1.9689)
(8.30228 0 2.24136)
(8.47387 0 2.19321)
(8.07042 0 2.48631)
(8.26047 0 2.43601)
(7.8199 0 2.75091)
(8.03014 0 2.69871)
(7.54885 0 3.0362)
(7.78132 0 2.98269)
(7.25465 0 3.343)
(7.51184 0 3.28923)
(6.93368 0 3.67173)
(7.21869 0 3.61951)
(6.58093 0 4.02221)
(6.89763 0 3.97443)
(6.18945 0 4.39318)
(6.54272 0 4.35439)
(5.74974 0 4.78167)
(6.14568 0 4.75886)
(5.24905 0 5.18178)
(5.69502 0 5.18562)
(4.67084 0 5.58284)
(5.17498 0 5.62928)
(3.99478 0 5.96656)
(4.56495 0 6.07885)
(3.19826 0 6.30168)
(3.83615 0 6.51359)
(2.26162 0 6.54058)
(2.97062 0 6.89399)
(1.18051 0 6.56494)
(1.87896 0 7.15769)
(0.812707 0 7.09916)
(9.98554 0 0.17096)
(9.9944 0 0.117544)
(9.95739 0 0.283693)
(9.97572 0 0.233515)
(9.91601 0 0.397628)
(9.94259 0 0.349862)
(9.8617 0 0.514403)
(9.89624 0 0.468343)
(9.79469 0 0.635525)
(9.83765 0 0.59053)
(9.71518 0 0.762417)
(9.76714 0 0.717898)
(9.62326 0 0.896455)
(9.68476 0 0.851863)
(9.51896 0 1.03899)
(9.59057 0 0.993805)
(9.40222 0 1.19136)
(9.48457 0 1.14509)
(9.27295 0 1.35493)
(9.36675 0 1.3071)
(9.13096 0 1.53107)
(9.23701 0 1.48122)
(8.97598 0 1.72118)
(9.09517 0 1.66886)
(8.80765 0 1.92669)
(8.94099 0 1.87149)
(8.62548 0 2.14908)
(8.77411 0 2.09062)
(8.42879 0 2.38983)
(8.59403 0 2.32781)
(8.21664 0 2.65052)
(8.40005 0 2.58471)
(7.98771 0 2.93272)
(8.19116 0 2.86305)
(7.74019 0 3.23806)
(7.96597 0 3.16467)
(7.4715 0 3.56819)
(7.72245 0 3.49156)
(7.178 0 3.92472)
(7.45777 0 3.84587)
(6.85455 0 4.30917)
(7.16784 0 4.22991)
(6.49388 0 4.72269)
(6.84687 0 4.64616)
(6.08572 0 5.16558)
(6.48649 0 5.09704)
(5.61563 0 5.63635)
(6.07468 0 5.58453)
(5.06352 0 6.12985)
(5.59398 0 6.10913)
(4.4021 0 6.63377)
(5.0195 0 6.66761)
(3.59596 0 7.12115)
(4.31238 0 7.24852)
(2.60413 0 7.54047)
(3.43544 0 7.82008)
(1.39416 0 7.74017)
(2.25621 0 8.3148)
(1.00246 0 8.46465)
(9.9865 0 0.181249)
(9.9948 0 0.124153)
(9.96027 0 0.300826)
(9.97747 0 0.246675)
(9.92177 0 0.421725)
(9.94676 0 0.369639)
(9.87134 0 0.54564)
(9.90388 0 0.494875)
(9.80924 0 0.674111)
(9.84978 0 0.623992)
(9.73568 0 0.8086)
(9.78479 0 0.758492)
(9.65082 0 0.950529)
(9.70903 0 0.899831)
(9.55473 0 1.1013)
(9.6226 0 1.04943)
(9.44744 0 1.2623)
(9.52557 0 1.20871)
(9.32893 0 1.43494)
(9.41801 0 1.37907)
(9.19911 0 1.62066)
(9.29991 0 1.56196)
(9.05782 0 1.82093)
(9.17121 0 1.75886)
(8.90483 0 2.03729)
(9.03179 0 1.9713)
(8.73978 0 2.27134)
(8.88145 0 2.2009)
(8.56213 0 2.52478)
(8.71984 0 2.44938)
(8.37113 0 2.79945)
(8.54645 0 2.71858)
(8.16568 0 3.09731)
(8.36053 0 3.01053)
(7.94417 0 3.42055)
(8.16097 0 3.32752)
(7.70433 0 3.77165)
(7.94612 0 3.67216)
(7.44287 0 4.15344)
(7.71362 0 4.04751)
(7.15503 0 4.56915)
(7.46003 0 4.45726)
(6.83395 0 5.02253)
(7.18032 0 4.90591)
(6.46956 0 5.5177)
(6.8671 0 5.39896)
(6.04699 0 6.05879)
(6.50931 0 5.94312)
(5.54399 0 6.64881)
(6.09 0 6.54629)
(4.92694 0 7.28703)
(5.58301 0 7.21686)
(4.14479 0 7.96137)
(4.9423 0 7.96158)
(3.1215 0 8.63337)
(4.10898 0 8.77556)
(1.75602 0 9.12744)
(2.87806 0 9.62061)
(1.36446 0 10.1846)
(9.98754 0 0.190794)
(9.99523 0 0.130257)
(9.96333 0 0.3167)
(9.97932 0 0.258818)
(9.92786 0 0.444012)
(9.95115 0 0.387859)
(9.88148 0 0.574477)
(9.91188 0 0.519274)
(9.82449 0 0.709666)
(9.86244 0 0.654701)
(9.75713 0 0.851071)
(9.80318 0 0.795668)
(9.67959 0 1.00015)
(9.73426 0 0.943659)
(9.59202 0 1.15833)
(9.65584 0 1.10013)
(9.49453 0 1.32706)
(9.56807 0 1.26651)
(9.38717 0 1.50777)
(9.47109 0 1.44426)
(9.26998 0 1.70194)
(9.36501 0 1.63485)
(9.14292 0 1.91113)
(9.24989 0 1.83979)
(9.0059 0 2.13693)
(9.12574 0 2.06069)
(8.85874 0 2.38108)
(8.99254 0 2.29924)
(8.70111 0 2.64542)
(8.85014 0 2.55725)
(8.53251 0 2.93202)
(8.69831 0 2.83675)
(8.35216 0 3.2432)
(8.53661 0 3.14)
(8.15888 0 3.58162)
(8.36435 0 3.46962)
(7.95095 0 3.95048)
(8.18047 0 3.82873)
(7.72581 0 4.35367)
(7.98338 0 4.22114)
(7.47971 0 4.79605)
(7.77071 0 4.65165)
(7.20709 0 5.28379)
(7.53897 0 5.12645)
(6.89956 0 5.82488)
(7.28292 0 5.65376)
(6.54415 0 6.42967)
(6.99457 0 6.24471)
(6.12013 0 7.11156)
(6.66119 0 6.91481)
(5.59274 0 7.88769)
(6.2622 0 7.68631)
(4.90049 0 8.77788)
(5.75717 0 8.59268)
(3.92638 0 9.80131)
(5.08677 0 9.68509)
(2.43277 0 10.8561)
(3.97879 0 11.049)
(2.14568 0 12.5673)
(9.98862 0 0.199558)
(9.99567 0 0.135832)
(9.96652 0 0.331254)
(9.98124 0 0.269899)
(9.9342 0 0.464408)
(9.95571 0 0.404462)
(9.89203 0 0.600809)
(9.92017 0 0.541464)
(9.84031 0 0.742052)
(9.87553 0 0.682568)
(9.77933 0 0.889654)
(9.82217 0 0.829322)
(9.70933 0 1.04509)
(9.76029 0 0.983225)
(9.63052 0 1.20983)
(9.69011 0 1.14575)
(9.54309 0 1.38532)
(9.61187 0 1.31835)
(9.44719 0 1.57304)
(9.52579 0 1.50249)
(9.34297 0 1.77449)
(9.43208 0 1.69967)
(9.23054 0 1.99126)
(9.33095 0 1.91141)
(9.10997 0 2.225)
(9.22255 0 2.13935)
(8.98128 0 2.47753)
(9.10707 0 2.38523)
(8.8444 0 2.7508)
(8.98459 0 2.65092)
(8.69916 0 3.04704)
(8.85519 0 2.93855)
(8.54519 0 3.36882)
(8.71882 0 3.25053)
(8.38189 0 3.71915)
(8.57533 0 3.58968)
(8.20831 0 4.10175)
(8.42437 0 3.95944)
(8.02299 0 4.52128)
(8.26538 0 4.36406)
(7.82373 0 4.98379)
(8.09743 0 4.80903)
(7.60725 0 5.49731)
(7.91919 0 5.30157)
(7.36852 0 6.0729)
(7.72864 0 5.85156)
(7.09961 0 6.72621)
(7.52293 0 6.47291)
(6.78734 0 7.48043)
(7.2978 0 7.1862)
(6.40817 0 8.37227)
(7.04777 0 8.02383)
(5.91505 0 9.46615)
(6.7626 0 9.04224)
(5.19538 0 10.9083)
(6.46126 0 10.3571)
(3.88358 0 13.1779)
(6.18854 0 12.3034)
(5.25683 0 16.371)
(0.184604 0 -0.108857)
(0.108305 0 -0.180808)
(0.358641 0 -0.0914403)
(0.263096 0 -0.166433)
(0.500041 0 -0.0687913)
(0.415444 0 -0.132028)
(0.608692 0 -0.0488771)
(0.542073 0 -0.0990535)
(0.68962 0 -0.033048)
(0.639495 0 -0.072037)
(0.748334 0 -0.0209693)
(0.712628 0 -0.0510293)
(0.789738 0 -0.0120062)
(0.767312 0 -0.0351346)
(0.818009 0 -0.00555675)
(0.808293 0 -0.0234235)
(0.836631 0 -0.00109442)
(0.839181 0 -0.0150647)
(0.848432 0 0.00183582)
(0.862785 0 -0.00932147)
(0.855633 0 0.00361515)
(0.881304 0 -0.00555368)
(0.859933 0 0.0045478)
(0.896417 0 -0.00323797)
(0.86262 0 0.00487148)
(0.909365 0 -0.00197499)
(0.864657 0 0.00477928)
(0.921067 0 -0.00146277)
(0.866742 0 0.00443596)
(0.932202 0 -0.00146122)
(0.86931 0 0.00398283)
(0.943242 0 -0.00175744)
(0.87252 0 0.00354333)
(0.954468 0 -0.00214457)
(0.876251 0 0.00322873)
(0.965959 0 -0.00243402)
(0.880129 0 0.0031317)
(0.977596 0 -0.00247024)
(0.883593 0 0.00330697)
(0.989088 0 -0.00215455)
(0.88601 0 0.00374011)
(1.00002 0 -0.00146786)
(0.886864 0 0.0043156)
(1.00994 0 -0.000506124)
(0.885785 0 0.00488872)
(1.01841 0 0.000624741)
(0.882626 0 0.0053848)
(1.02511 0 0.00178554)
(0.877428 0 0.00578063)
(1.02991 0 0.00286835)
(0.870289 0 0.00606326)
(1.03283 0 0.00384677)
(0.861362 0 0.00623413)
(1.034 0 0.00469704)
(0.850728 0 0.0062105)
(1.0333 0 0.00546267)
(0.839166 0 0.00542591)
(1.03088 0 0.00579895)
(1.02731 0 0.00439151)
(0.171269 0 -0.261933)
(0.0905893 0 -0.348556)
(0.334097 0 -0.226945)
(0.234124 0 -0.322146)
(0.469413 0 -0.177543)
(0.367445 0 -0.258375)
(0.577398 0 -0.133399)
(0.479412 0 -0.1975)
(0.662775 0 -0.0980885)
(0.567403 0 -0.148035)
(0.730381 0 -0.0709753)
(0.636128 0 -0.109786)
(0.784318 0 -0.0506682)
(0.690452 0 -0.080904)
(0.82794 0 -0.0358353)
(0.734136 0 -0.0595668)
(0.863957 0 -0.0253106)
(0.769994 0 -0.0442012)
(0.894496 0 -0.0180849)
(0.800194 0 -0.0334434)
(0.921161 0 -0.0133148)
(0.826406 0 -0.0261176)
(0.94512 0 -0.0103395)
(0.849839 0 -0.0212794)
(0.967237 0 -0.00866193)
(0.871333 0 -0.0182358)
(0.988156 0 -0.00789661)
(0.891495 0 -0.016479)
(1.00835 0 -0.00772536)
(0.910775 0 -0.0156132)
(1.02814 0 -0.00787161)
(0.929502 0 -0.0153023)
(1.04774 0 -0.00808507)
(0.947901 0 -0.0152395)
(1.06722 0 -0.00813949)
(0.9661 0 -0.0151428)
(1.08653 0 -0.00785182)
(0.984123 0 -0.014773)
(1.10553 0 -0.00711356)
(1.0019 0 -0.0139683)
(1.12397 0 -0.00591764)
(1.0193 0 -0.0126683)
(1.1415 0 -0.00436532)
(1.03612 0 -0.0108978)
(1.15769 0 -0.00261266)
(1.05209 0 -0.00874698)
(1.17225 0 -0.000812122)
(1.06694 0 -0.00644772)
(1.18514 0 0.000929941)
(1.0806 0 -0.00424517)
(1.19638 0 0.00260804)
(1.0931 0 -0.0022103)
(1.20587 0 0.00417339)
(1.10452 0 -0.000295347)
(1.21331 0 0.00534922)
(1.11488 0 0.00164341)
(1.2191 0 0.0053437)
(1.12395 0 0.00289281)
(1.13323 0 0.0026822)
(0.144957 0 -0.41517)
(0.0707516 0 -0.490533)
(0.278255 0 -0.360465)
(0.191357 0 -0.44962)
(0.386937 0 -0.284746)
(0.292202 0 -0.359853)
(0.472911 0 -0.217583)
(0.376984 0 -0.275879)
(0.540905 0 -0.164116)
(0.44233 0 -0.208558)
(0.595084 0 -0.123122)
(0.49335 0 -0.156874)
(0.638793 0 -0.0923823)
(0.533845 0 -0.117995)
(0.674668 0 -0.0698359)
(0.56653 0 -0.089291)
(0.704819 0 -0.0537013)
(0.593418 0 -0.0685924)
(0.730902 0 -0.042435)
(0.616115 0 -0.0540455)
(0.754113 0 -0.0347422)
(0.635894 0 -0.0440183)
(0.775266 0 -0.0296257)
(0.653589 0 -0.0372072)
(0.794944 0 -0.0263618)
(0.669701 0 -0.0327036)
(0.813582 0 -0.0244122)
(0.684587 0 -0.0298585)
(0.831501 0 -0.0233489)
(0.698535 0 -0.0281725)
(0.848934 0 -0.022803)
(0.711765 0 -0.027232)
(0.866034 0 -0.022438)
(0.724449 0 -0.0266654)
(0.882871 0 -0.0219536)
(0.736707 0 -0.0261277)
(0.899431 0 -0.0211173)
(0.748597 0 -0.0253215)
(0.91564 0 -0.0197988)
(0.760122 0 -0.0240491)
(0.931403 0 -0.0179697)
(0.771242 0 -0.0222404)
(0.946614 0 -0.0156789)
(0.781903 0 -0.0199167)
(0.961176 0 -0.0130748)
(0.792045 0 -0.0171771)
(0.975023 0 -0.0104088)
(0.801608 0 -0.0142745)
(0.988252 0 -0.00787796)
(0.810562 0 -0.0115457)
(1.00103 0 -0.0054737)
(0.819011 0 -0.00909396)
(1.01342 0 -0.00318439)
(0.827032 0 -0.00681399)
(1.02547 0 -0.00121634)
(0.83494 0 -0.00454838)
(1.03659 0 0.000184411)
(0.842188 0 -0.00268682)
(0.850148 0 -0.00110631)
(0.115794 0 -0.534341)
(0.0507194 0 -0.603946)
(0.214033 0 -0.458742)
(0.142714 0 -0.543566)
(0.290185 0 -0.360498)
(0.204861 0 -0.430958)
(0.348977 0 -0.275433)
(0.259177 0 -0.329478)
(0.394898 0 -0.20863)
(0.298016 0 -0.249434)
(0.431189 0 -0.15777)
(0.32781 0 -0.188415)
(0.460236 0 -0.119761)
(0.350888 0 -0.142644)
(0.483792 0 -0.0919131)
(0.368818 0 -0.108809)
(0.503294 0 -0.0719918)
(0.382729 0 -0.0843691)
(0.519917 0 -0.0580421)
(0.393666 0 -0.0671749)
(0.534438 0 -0.0484011)
(0.402607 0 -0.0552174)
(0.547273 0 -0.0418272)
(0.409989 0 -0.0468719)
(0.558724 0 -0.0374576)
(0.415965 0 -0.0411226)
(0.569035 0 -0.0346575)
(0.42068 0 -0.0372603)
(0.578407 0 -0.0329275)
(0.424301 0 -0.0347413)
(0.587012 0 -0.0318427)
(0.42699 0 -0.0331207)
(0.594992 0 -0.0310175)
(0.428911 0 -0.0319976)
(0.602443 0 -0.0301047)
(0.430229 0 -0.0309886)
(0.609397 0 -0.0288376)
(0.431086 0 -0.0297507)
(0.615853 0 -0.0270749)
(0.431569 0 -0.0280647)
(0.621836 0 -0.024787)
(0.431721 0 -0.0258735)
(0.627362 0 -0.0220221)
(0.431552 0 -0.0231931)
(0.632379 0 -0.0189547)
(0.43103 0 -0.0200815)
(0.636836 0 -0.015914)
(0.430119 0 -0.0167933)
(0.640936 0 -0.0131116)
(0.428771 0 -0.0138087)
(0.64489 0 -0.0104676)
(0.426878 0 -0.0112244)
(0.64855 0 -0.00801748)
(0.424443 0 -0.00873971)
(0.651582 0 -0.00615207)
(0.422498 0 -0.00610607)
(0.654285 0 -0.00446669)
(0.418278 0 -0.00404248)
(0.411194 0 -0.00166979)
(0.0817242 0 -0.62101)
(0.0295174 0 -0.683989)
(0.140729 0 -0.523944)
(0.0873887 0 -0.599992)
(0.181012 0 -0.407841)
(0.106117 0 -0.468572)
(0.209943 0 -0.31055)
(0.128234 0 -0.355853)
(0.231154 0 -0.235242)
(0.137927 0 -0.268314)
(0.246806 0 -0.178284)
(0.143929 0 -0.202018)
(0.258214 0 -0.135753)
(0.14657 0 -0.152324)
(0.266189 0 -0.10451)
(0.146458 0 -0.115417)
(0.271535 0 -0.0821294)
(0.143885 0 -0.0886938)
(0.275071 0 -0.0664023)
(0.139508 0 -0.0699679)
(0.27719 0 -0.0553027)
(0.134068 0 -0.0568514)
(0.277898 0 -0.0474157)
(0.127669 0 -0.0474049)
(0.277271 0 -0.0418785)
(0.120217 0 -0.0406617)
(0.27543 0 -0.0380518)
(0.111782 0 -0.0359388)
(0.272519 0 -0.0354342)
(0.102504 0 -0.0327014)
(0.268717 0 -0.0336034)
(0.0925475 0 -0.0305185)
(0.264223 0 -0.0321715)
(0.082122 0 -0.0289951)
(0.259216 0 -0.0307711)
(0.0714612 0 -0.0277222)
(0.253789 0 -0.0291048)
(0.0607246 0 -0.0262932)
(0.247972 0 -0.0270159)
(0.0499425 0 -0.0244473)
(0.24184 0 -0.0244619)
(0.0390418 0 -0.0221496)
(0.235455 0 -0.0214525)
(0.0278768 0 -0.0194073)
(0.228751 0 -0.0181414)
(0.0163227 0 -0.0162007)
(0.221538 0 -0.0150247)
(0.00442298 0 -0.0127161)
(0.214122 0 -0.012639)
(-0.00807184 0 -0.00971608)
(0.206685 0 -0.0106125)
(-0.0227872 0 -0.00721705)
(0.198799 0 -0.00779407)
(-0.038308 0 -0.00459072)
(0.188299 0 -0.00398242)
(-0.0515489 0 -0.000712255)
(0.174393 0 -0.000650045)
(-0.0626856 0 0.00293224)
(-0.0748605 0 0.00361025)
(0.0423888 0 -0.670244)
(0.00592914 0 -0.725507)
(0.0578529 0 -0.551888)
(0.0239248 0 -0.61478)
(0.0599786 0 -0.422817)
(-0.00317693 0 -0.470557)
(0.0573803 0 -0.318436)
(-0.01597 0 -0.353485)
(0.0513508 0 -0.238465)
(-0.037656 0 -0.262947)
(0.0432812 0 -0.178342)
(-0.0585965 0 -0.195005)
(0.0336744 0 -0.133418)
(-0.0797313 0 -0.144172)
(0.0227012 0 -0.100312)
(-0.100979 0 -0.106325)
(0.010601 0 -0.0765856)
(-0.122602 0 -0.0789051)
(-0.00252405 0 -0.0600203)
(-0.144268 0 -0.0596008)
(-0.0164237 0 -0.048397)
(-0.165544 0 -0.0461318)
(-0.0309244 0 -0.0400107)
(-0.186363 0 -0.0364859)
(-0.0460671 0 -0.0339847)
(-0.206894 0 -0.0295286)
(-0.0617642 0 -0.029767)
(-0.227202 0 -0.0246706)
(-0.077854 0 -0.026912)
(-0.247316 0 -0.0214241)
(-0.0941138 0 -0.0250381)
(-0.26726 0 -0.0193913)
(-0.110305 0 -0.0237527)
(-0.286994 0 -0.0181766)
(-0.126289 0 -0.0226206)
(-0.306433 0 -0.0172944)
(-0.142129 0 -0.0212536)
(-0.325589 0 -0.0162028)
(-0.158057 0 -0.0194693)
(-0.34468 0 -0.014541)
(-0.17425 0 -0.0172576)
(-0.364334 0 -0.0123169)
(-0.190824 0 -0.0145241)
(-0.385084 0 -0.00958039)
(-0.207841 0 -0.0110511)
(-0.406184 0 -0.00634946)
(-0.22576 0 -0.00692607)
(-0.426313 0 -0.00258758)
(-0.245914 0 -0.0029466)
(-0.44452 0 0.00140651)
(-0.267481 0 0.000252248)
(-0.461952 0 0.00440463)
(-0.287662 0 0.00326427)
(-0.479002 0 0.0060267)
(-0.303167 0 0.00599775)
(-0.493844 0 0.00725284)
(-0.313161 0 0.00661667)
(-0.503776 0 0.00794494)
(-0.50968 0 0.00703419)
(-0.00578125 0 -0.675252)
(-0.0226127 0 -0.719844)
(-0.0349981 0 -0.537483)
(-0.0499403 0 -0.58684)
(-0.0721399 0 -0.401951)
(-0.12293 0 -0.435877)
(-0.109651 0 -0.296628)
(-0.175342 0 -0.319287)
(-0.146461 0 -0.216921)
(-0.23061 0 -0.230181)
(-0.181729 0 -0.157704)
(-0.281208 0 -0.164353)
(-0.215341 0 -0.113759)
(-0.32752 0 -0.11565)
(-0.247624 0 -0.0816783)
(-0.369777 0 -0.0795771)
(-0.278656 0 -0.0590923)
(-0.40903 0 -0.0538011)
(-0.308148 0 -0.0435242)
(-0.446214 0 -0.0363056)
(-0.336213 0 -0.0325425)
(-0.482066 0 -0.0244875)
(-0.363019 0 -0.0246081)
(-0.515096 0 -0.0163011)
(-0.388611 0 -0.0190406)
(-0.545193 0 -0.0107137)
(-0.413166 0 -0.0153703)
(-0.573049 0 -0.00704318)
(-0.436919 0 -0.0131502)
(-0.599295 0 -0.00477598)
(-0.460063 0 -0.0119642)
(-0.624482 0 -0.003553)
(-0.482718 0 -0.0113287)
(-0.648965 0 -0.0030394)
(-0.504999 0 -0.0106206)
(-0.672889 0 -0.00275814)
(-0.527217 0 -0.00918018)
(-0.696262 0 -0.00205031)
(-0.550146 0 -0.00667065)
(-0.719033 0 -0.000280014)
(-0.574592 0 -0.00341296)
(-0.741247 0 0.00252788)
(-0.599972 0 -7.43417e-05)
(-0.763166 0 0.00546736)
(-0.624284 0 0.00302138)
(-0.784492 0 0.00772523)
(-0.645212 0 0.0058496)
(-0.804057 0 0.00924189)
(-0.66124 0 0.00805339)
(-0.820397 0 0.0102521)
(-0.673606 0 0.009223)
(-0.832972 0 0.0110676)
(-0.684349 0 0.00965598)
(-0.843841 0 0.0116791)
(-0.693876 0 0.00971536)
(-0.853603 0 0.012147)
(-0.701919 0 0.00913874)
(-0.861659 0 0.0119787)
(-0.866174 0 0.0108784)
(-0.0563212 0 -0.630401)
(-0.058417 0 -0.664681)
(-0.137066 0 -0.480856)
(-0.135226 0 -0.509624)
(-0.217538 0 -0.347241)
(-0.257331 0 -0.360738)
(-0.293993 0 -0.246574)
(-0.354634 0 -0.249585)
(-0.364091 0 -0.172283)
(-0.44666 0 -0.167784)
(-0.426991 0 -0.118498)
(-0.529309 0 -0.109687)
(-0.482612 0 -0.0791133)
(-0.602448 0 -0.0684504)
(-0.532319 0 -0.0499301)
(-0.666296 0 -0.0383922)
(-0.577938 0 -0.0288986)
(-0.719501 0 -0.0168973)
(-0.621062 0 -0.0146842)
(-0.765014 0 -0.0022433)
(-0.661266 0 -0.00582026)
(-0.805007 0 0.00651863)
(-0.697457 0 -0.000600807)
(-0.840462 0 0.0109503)
(-0.729781 0 0.00251826)
(-0.872104 0 0.0130514)
(-0.759219 0 0.00440082)
(-0.900814 0 0.0140889)
(-0.786774 0 0.00545457)
(-0.927403 0 0.0145373)
(-0.81318 0 0.00591378)
(-0.952515 0 0.0145176)
(-0.838814 0 0.00604468)
(-0.976527 0 0.0140885)
(-0.8637 0 0.00626841)
(-0.999554 0 0.0134775)
(-0.88752 0 0.00707802)
(-1.02155 0 0.0131225)
(-0.909592 0 0.0086874)
(-1.0424 0 0.013448)
(-0.929395 0 0.0107153)
(-1.06179 0 0.0145529)
(-0.94731 0 0.0124562)
(-1.07971 0 0.0160896)
(-0.963944 0 0.0135009)
(-1.09666 0 0.017355)
(-0.979135 0 0.0139448)
(-1.11245 0 0.0178285)
(-0.992382 0 0.0141275)
(-1.12639 0 0.0175625)
(-1.00342 0 0.014291)
(-1.13801 0 0.0170153)
(-1.01267 0 0.0143945)
(-1.14767 0 0.0165438)
(-1.02055 0 0.0141341)
(-1.15602 0 0.016199)
(-1.02763 0 0.0133057)
(-1.16284 0 0.0155284)