/*--------------------------------*- C++ -*----------------------------------*\
  =========                 |
  \\      /  F ield         | OpenFOAM: The Open Source CFD Toolbox
   \\    /   O peration     | Website:  https://openfoam.org
    \\  /    A nd           | Version:  dev
     \\/     M anipulation  |
\*---------------------------------------------------------------------------*/
FoamFile
{
    version     2.0;
    format      ascii;
    class       surfaceVectorField;
    location    "1.5";
    object      Uf;
}
// * * * * * * * * * * * * * * * * * * * * * * * * * * * * * * * * * * * * * //

dimensions      [0 1 -1 0 0 0 0];

internalField   nonuniform List<vector> 
5457
(
(9.92089 0 0.0251055)
(9.97125 0 0.0387404)
(9.82405 0 0.0328195)
(9.92861 0 0.0485738)
(9.70968 0 0.0393014)
(9.85552 0 0.0587504)
(9.57555 0 0.0459978)
(9.75689 0 0.0705693)
(9.42155 0 0.0529325)
(9.63767 0 0.0829837)
(9.24778 0 0.0601478)
(9.49881 0 0.0959023)
(9.05392 0 0.0677915)
(9.33957 0 0.109575)
(8.83929 0 0.0760152)
(9.15907 0 0.124251)
(8.60295 0 0.0849526)
(8.95649 0 0.140131)
(8.34374 0 0.0947308)
(8.73083 0 0.157401)
(8.06036 0 0.105479)
(8.4809 0 0.176246)
(7.75134 0 0.117327)
(8.20529 0 0.196844)
(7.4151 0 0.130405)
(7.90247 0 0.219364)
(7.05 0 0.144833)
(7.5708 0 0.243946)
(6.65447 0 0.160712)
(7.20863 0 0.270679)
(6.22705 0 0.178103)
(6.81434 0 0.299574)
(5.76663 0 0.197008)
(6.38654 0 0.330518)
(5.27259 0 0.217336)
(5.9242 0 0.363219)
(4.74518 0 0.238862)
(5.42691 0 0.397142)
(4.18576 0 0.261182)
(4.89521 0 0.43143)
(3.59726 0 0.283657)
(4.3309 0 0.464833)
(2.98458 0 0.305385)
(3.73755 0 0.495646)
(2.35489 0 0.325257)
(3.12091 0 0.521726)
(1.71766 0 0.342732)
(2.48941 0 0.540741)
(1.08275 0 0.362084)
(1.85393 0 0.551806)
(0.450124 0 0.346617)
(1.24344 0 0.563125)
(-0.144462 0 0.101)
(0.604687 0 0.542064)
(-0.420421 0 -0.202109)
(0.0971834 0 0.257669)
(-0.399501 0 -0.353857)
(-0.138523 0 -0.0200055)
(-0.117778 0 -0.391287)
(9.99642 0 0.05166)
(9.99705 0 0.0404939)
(9.95882 0 0.0708397)
(9.97853 0 0.0674317)
(9.89831 0 0.0879555)
(9.93382 0 0.0898344)
(9.8167 0 0.105945)
(9.86462 0 0.113507)
(9.71376 0 0.124874)
(9.77451 0 0.138456)
(9.58932 0 0.144801)
(9.66455 0 0.164578)
(9.44304 0 0.166034)
(9.53423 0 0.192258)
(9.27426 0 0.188912)
(9.38282 0 0.221956)
(9.08208 0 0.213733)
(9.20957 0 0.254078)
(8.86536 0 0.240776)
(9.0136 0 0.289004)
(8.62279 0 0.270312)
(8.7938 0 0.32711)
(8.35289 0 0.302603)
(8.54887 0 0.368769)
(8.05404 0 0.337881)
(8.27736 0 0.414332)
(7.72455 0 0.376319)
(7.97767 0 0.464104)
(7.36271 0 0.417998)
(7.64817 0 0.518298)
(6.96693 0 0.462848)
(7.28719 0 0.576974)
(6.53587 0 0.510574)
(6.89318 0 0.639959)
(6.06864 0 0.560569)
(6.46486 0 0.706731)
(5.56513 0 0.611802)
(6.00142 0 0.776282)
(5.02633 0 0.662703)
(5.50281 0 0.846959)
(4.45477 0 0.711049)
(4.97013 0 0.916291)
(3.85503 0 0.753882)
(4.40608 0 0.980817)
(3.23438 0 0.78751)
(3.81557 0 1.03596)
(2.60369 0 0.807745)
(3.20664 0 1.07593)
(1.98045 0 0.810573)
(2.59126 0 1.09347)
(1.40299 0 0.776193)
(1.99381 0 1.07715)
(0.925456 0 0.644787)
(1.41621 0 0.977414)
(0.433346 0 0.380039)
(0.935063 0 0.717161)
(0.055393 0 -0.122308)
(0.436683 0 0.341433)
(0.173605 0 -0.337033)
(9.98904 0 0.0594099)
(9.99481 0 0.0458616)
(9.95437 0 0.08944)
(9.9737 0 0.0848203)
(9.89736 0 0.11798)
(9.92989 0 0.119121)
(9.82058 0 0.147831)
(9.86366 0 0.153905)
(9.72432 0 0.179342)
(9.77749 0 0.19032)
(9.60844 0 0.212687)
(9.67246 0 0.228536)
(9.47263 0 0.2483)
(9.54835 0 0.26902)
(9.31643 0 0.286684)
(9.40463 0 0.312385)
(9.1391 0 0.328315)
(9.24072 0 0.359219)
(8.93971 0 0.373657)
(9.05593 0 0.410081)
(8.71716 0 0.423167)
(8.84939 0 0.465528)
(8.47014 0 0.477292)
(8.62004 0 0.526117)
(8.19722 0 0.536441)
(8.36671 0 0.592383)
(7.89684 0 0.600942)
(8.08808 0 0.664808)
(7.56738 0 0.670978)
(7.78273 0 0.743761)
(7.20721 0 0.746502)
(7.44922 0 0.829418)
(6.8148 0 0.827113)
(7.08608 0 0.921645)
(6.38893 0 0.911903)
(6.69198 0 1.01984)
(5.92886 0 0.999264)
(6.26582 0 1.12271)
(5.43469 0 1.08667)
(5.80701 0 1.22807)
(4.90778 0 1.17046)
(5.31571 0 1.33248)
(4.35131 0 1.24554)
(4.79331 0 1.43098)
(3.77112 0 1.30517)
(4.24298 0 1.51668)
(3.17692 0 1.34035)
(3.67049 0 1.58016)
(2.58452 0 1.33843)
(3.08468 0 1.60833)
(2.01746 0 1.2728)
(2.50104 0 1.58191)
(1.48374 0 1.09499)
(1.92645 0 1.46398)
(0.956028 0 0.768858)
(1.38305 0 1.2099)
(0.476989 0 0.199907)
(0.827487 0 0.799541)
(0.431748 0 0.130148)
(9.98516 0 0.0715849)
(9.99367 0 0.0531269)
(9.95042 0 0.11358)
(9.97089 0 0.102246)
(9.89443 0 0.154061)
(9.92695 0 0.147884)
(9.81893 0 0.195481)
(9.86193 0 0.193627)
(9.72458 0 0.238701)
(9.77759 0 0.241161)
(9.61134 0 0.284202)
(9.67485 0 0.29103)
(9.47902 0 0.332591)
(9.55368 0 0.34381)
(9.32729 0 0.384546)
(9.41367 0 0.400223)
(9.15564 0 0.440728)
(9.25438 0 0.460995)
(8.96338 0 0.501786)
(9.07527 0 0.526833)
(8.74968 0 0.568362)
(8.87569 0 0.598436)
(8.51359 0 0.641091)
(8.65483 0 0.676503)
(8.25403 0 0.720568)
(8.41179 0 0.761717)
(7.96983 0 0.807302)
(8.14558 0 0.854705)
(7.65973 0 0.901639)
(7.85513 0 0.955975)
(7.32243 0 1.00365)
(7.53931 0 1.06583)
(6.95663 0 1.11299)
(7.19698 0 1.18423)
(6.56116 0 1.22868)
(6.82698 0 1.3106)
(6.13504 0 1.34884)
(6.42824 0 1.44358)
(5.6778 0 1.47039)
(5.99988 0 1.5807)
(5.18972 0 1.58865)
(5.54138 0 1.718)
(4.67231 0 1.69695)
(5.05288 0 1.84955)
(4.12895 0 1.78605)
(4.53555 0 1.96687)
(3.56551 0 1.84331)
(3.99206 0 2.05829)
(2.99064 0 1.85128)
(3.42668 0 2.10796)
(2.41425 0 1.78259)
(2.84653 0 2.09497)
(1.83882 0 1.60009)
(2.25495 0 1.98858)
(1.2581 0 1.27741)
(1.65908 0 1.75214)
(0.666212 0 0.78696)
(1.02311 0 1.36556)
(0.522972 0 0.782662)
(9.98338 0 0.0843704)
(9.99317 0 0.0612654)
(9.94824 0 0.136773)
(9.9696 0 0.119871)
(9.89321 0 0.18794)
(9.92579 0 0.176153)
(9.81917 0 0.24005)
(9.86207 0 0.232581)
(9.72678 0 0.294327)
(9.77976 0 0.290943)
(9.61611 0 0.351502)
(9.67958 0 0.352108)
(9.48699 0 0.412304)
(9.56152 0 0.416796)
(9.33912 0 0.47751)
(9.42527 0 0.485822)
(9.1721 0 0.547896)
(9.27045 0 0.560023)
(8.98538 0 0.624222)
(9.09662 0 0.640223)
(8.77829 0 0.707248)
(8.90321 0 0.727235)
(8.55008 0 0.797721)
(8.68958 0 0.82187)
(8.29992 0 0.89635)
(8.45499 0 0.924918)
(8.02693 0 1.00376)
(8.19864 0 1.03711)
(7.73016 0 1.12042)
(7.9197 0 1.15907)
(7.40862 0 1.2465)
(7.61727 0 1.2912)
(7.0613 0 1.38174)
(7.29042 0 1.43355)
(6.68717 0 1.52521)
(6.93817 0 1.58566)
(6.28525 0 1.67496)
(6.55948 0 1.74622)
(5.85467 0 1.82771)
(6.1533 0 1.91277)
(5.39485 0 1.9783)
(5.71856 0 2.0812)
(4.90572 0 2.11917)
(5.25431 0 2.24524)
(4.38802 0 2.23972)
(4.75983 0 2.39581)
(3.84351 0 2.32554)
(4.23488 0 2.52036)
(3.27482 0 2.35768)
(3.67966 0 2.60221)
(2.68466 0 2.31081)
(3.09536 0 2.62029)
(2.0719 0 2.15448)
(2.48123 0 2.54721)
(1.42877 0 1.86575)
(1.83944 0 2.35265)
(0.742367 0 1.41609)
(1.13111 0 2.02197)
(0.543354 0 1.50976)
(9.98265 0 0.0974528)
(9.993 0 0.0697619)
(9.94747 0 0.159697)
(9.96926 0 0.137517)
(9.8936 0 0.221236)
(9.92601 0 0.203823)
(9.82144 0 0.283949)
(9.86389 0 0.270549)
(9.73149 0 0.349177)
(9.78398 0 0.339411)
(9.62388 0 0.417828)
(9.68682 0 0.4115)
(9.49846 0 0.490736)
(9.57241 0 0.487688)
(9.35498 0 0.568772)
(9.44051 0 0.568883)
(9.19307 0 0.652814)
(9.29078 0 0.656018)
(9.01227 0 0.743733)
(9.12282 0 0.750017)
(8.81199 0 0.842393)
(8.93616 0 0.851795)
(8.5916 0 0.949643)
(8.73021 0 0.962255)
(8.3504 0 1.06629)
(8.50433 0 1.08228)
(8.08763 0 1.19306)
(8.25782 0 1.21269)
(7.8025 0 1.33052)
(7.98993 0 1.35419)
(7.49417 0 1.47894)
(7.69985 0 1.5073)
(7.16176 0 1.63818)
(7.38673 0 1.67218)
(6.80427 0 1.8074)
(7.04958 0 1.84849)
(6.42063 0 1.9848)
(6.6873 0 2.0351)
(6.00961 0 2.16713)
(6.29855 0 2.22975)
(5.56984 0 2.34924)
(5.88171 0 2.42857)
(5.09981 0 2.52344)
(5.43483 0 2.62547)
(4.598 0 2.67881)
(4.95556 0 2.81158)
(4.06285 0 2.80062)
(4.44124 0 2.97448)
(3.49274 0 2.86995)
(3.88883 0 3.0977)
(2.88579 0 2.8632)
(3.29547 0 3.16057)
(2.23791 0 2.75334)
(2.65706 0 3.13786)
(1.54236 0 2.51916)
(1.97493 0 3.00209)
(0.793667 0 2.12764)
(1.20739 0 2.73795)
(0.556894 0 2.28711)
(9.98251 0 0.110574)
(9.99302 0 0.0783257)
(9.94773 0 0.182233)
(9.96955 0 0.154961)
(9.89528 0 0.253686)
(9.92726 0 0.230767)
(9.82534 0 0.326599)
(9.86704 0 0.307348)
(9.73828 0 0.402356)
(9.78989 0 0.386325)
(9.63423 0 0.482011)
(9.69622 0 0.468921)
(9.51311 0 0.566522)
(9.58601 0 0.55615)
(9.37469 0 0.656857)
(9.45907 0 0.649016)
(9.21864 0 0.75399)
(9.31513 0 0.748539)
(9.04455 0 0.85889)
(9.15384 0 0.855736)
(8.8519 0 0.972513)
(8.97475 0 0.971613)
(8.64011 0 1.0958)
(8.77736 0 1.09716)
(8.40853 0 1.22964)
(8.56105 0 1.23336)
(8.15648 0 1.37484)
(8.32519 0 1.38111)
(7.88318 0 1.53207)
(8.06902 0 1.54122)
(7.58781 0 1.70173)
(7.79176 0 1.71432)
(7.26944 0 1.88379)
(7.49246 0 1.90072)
(6.92698 0 2.07764)
(7.17005 0 2.10027)
(6.55907 0 2.28169)
(6.82318 0 2.31213)
(6.16404 0 2.49306)
(6.45013 0 2.53441)
(5.73971 0 2.707)
(6.04867 0 2.76373)
(5.28332 0 2.91626)
(5.61585 0 2.99468)
(4.79142 0 3.11045)
(5.14788 0 3.21914)
(4.25986 0 3.27539)
(4.64005 0 3.42555)
(3.68392 0 3.39276)
(4.08673 0 3.59825)
(3.05852 0 3.44003)
(3.48197 0 3.71725)
(2.37813 0 3.39124)
(2.81897 0 3.75815)
(1.63823 0 3.22431)
(2.09965 0 3.69295)
(0.839346 0 2.89721)
(1.27935 0 3.50193)
(0.573611 0 3.1092)
(9.98274 0 0.123522)
(9.99316 0 0.0867772)
(9.94876 0 0.204205)
(9.97028 0 0.172007)
(9.898 0 0.285103)
(9.9293 0 0.256841)
(9.8306 0 0.367775)
(9.87131 0 0.342807)
(9.74685 0 0.453625)
(9.79727 0 0.431456)
(9.64687 0 0.543825)
(9.70751 0 0.524096)
(9.53062 0 0.639441)
(9.60201 0 0.621859)
(9.39792 0 0.741533)
(9.48064 0 0.725841)
(9.24847 0 0.851163)
(9.34316 0 0.837148)
(9.08191 0 0.969387)
(9.18929 0 0.95688)
(8.89778 0 1.09725)
(9.01862 0 1.08613)
(8.69554 0 1.23578)
(8.8307 0 1.22599)
(8.47458 0 1.38596)
(8.62497 0 1.37751)
(8.23423 0 1.54871)
(8.40079 0 1.54171)
(7.97369 0 1.7248)
(8.15744 0 1.71952)
(7.69208 0 1.91478)
(7.89406 0 1.9117)
(7.38833 0 2.11884)
(7.60961 0 2.11877)
(7.06111 0 2.33661)
(7.30284 0 2.34085)
(6.70872 0 2.56694)
(6.97208 0 2.57748)
(6.32891 0 2.80747)
(6.61518 0 2.82732)
(5.91871 0 3.05418)
(6.22923 0 3.08774)
(5.47412 0 3.30077)
(5.81034 0 3.35434)
(4.99005 0 3.53793)
(5.35334 0 3.62022)
(4.46013 0 3.7526)
(4.85165 0 3.87522)
(3.87705 0 3.92738)
(4.29728 0 4.10502)
(3.23315 0 4.04025)
(3.68145 0 4.29041)
(2.52157 0 4.06453)
(2.9944 0 4.40687)
(1.73897 0 3.97441)
(2.23815 0 4.42368)
(0.889829 0 3.71534)
(1.36398 0 4.31396)
(0.599077 0 3.98073)
(9.98322 0 0.136136)
(9.99339 0 0.0949957)
(9.95035 0 0.225455)
(9.97133 0 0.188494)
(9.90156 0 0.31533)
(9.93197 0 0.281901)
(9.83703 0 0.407291)
(9.8765 0 0.37676)
(9.75697 0 0.502761)
(9.8059 0 0.474595)
(9.66153 0 0.602997)
(9.72045 0 0.576769)
(9.55069 0 0.709164)
(9.62015 0 0.684511)
(9.42431 0 0.822406)
(9.50489 0 0.799005)
(9.28215 0 0.943868)
(9.3745 0 0.921433)
(9.1239 0 1.07469)
(9.22874 0 1.05298)
(8.94916 0 1.216)
(9.06729 0 1.19481)
(8.75744 0 1.36893)
(8.88973 0 1.34811)
(8.54815 0 1.53456)
(8.69555 0 1.51404)
(8.32063 0 1.71392)
(8.48416 0 1.69373)
(8.07407 0 1.90794)
(8.25483 0 1.88825)
(7.8075 0 2.11736)
(8.00667 0 2.09854)
(7.51968 0 2.34264)
(7.73854 0 2.32538)
(7.20904 0 2.58379)
(7.449 0 2.56924)
(6.87349 0 2.84018)
(7.13613 0 2.83015)
(6.51021 0 3.1102)
(6.79732 0 3.10748)
(6.1154 0 3.39087)
(6.42904 0 3.39959)
(5.68393 0 3.67718)
(6.0265 0 3.70338)
(5.20911 0 3.9614)
(5.58326 0 4.01363)
(4.68251 0 4.2321)
(5.09094 0 4.3221)
(4.09413 0 4.47319)
(4.53903 0 4.61638)
(3.43341 0 4.66295)
(3.91557 0 4.87855)
(2.69099 0 4.77278)
(3.2066 0 5.0837)
(1.86256 0 4.77087)
(2.41212 0 5.19721)
(0.954605 0 4.58662)
(1.47697 0 5.18225)
(0.639551 0 4.91571)
(9.98387 0 0.148295)
(9.99369 0 0.102895)
(9.95238 0 0.245843)
(9.97262 0 0.20429)
(9.90584 0 0.344217)
(9.93514 0 0.305808)
(9.84446 0 0.444966)
(9.88248 0 0.409053)
(9.76845 0 0.549537)
(9.81562 0 0.515551)
(9.67797 0 0.659255)
(9.73485 0 0.626707)
(9.57302 0 0.775368)
(9.64017 0 0.74383)
(9.45352 0 0.8991)
(9.53151 0 0.868182)
(9.3193 0 1.03167)
(9.40878 0 1.00102)
(9.17008 0 1.1743)
(9.27179 0 1.14359)
(9.00554 0 1.3282)
(9.12028 0 1.29715)
(8.82524 0 1.49459)
(8.9539 0 1.46296)
(8.62865 0 1.67468)
(8.77221 0 1.6423)
(8.41513 0 1.86963)
(8.57467 0 1.8364)
(8.18387 0 2.08054)
(8.36059 0 2.04651)
(7.93383 0 2.3084)
(8.12906 0 2.27379)
(7.66368 0 2.55399)
(7.87892 0 2.51931)
(7.37162 0 2.8178)
(7.60862 0 2.78396)
(7.05524 0 3.09988)
(7.31604 0 3.06838)
(6.71124 0 3.39954)
(6.99826 0 3.37278)
(6.3351 0 3.71507)
(6.65128 0 3.6967)
(5.92066 0 4.04316)
(6.26958 0 4.03865)
(5.45971 0 4.37813)
(5.8456 0 4.39554)
(4.94166 0 4.71088)
(5.36925 0 4.76171)
(4.35347 0 5.02731)
(4.82734 0 5.12759)
(3.68045 0 5.30655)
(4.2039 0 5.47763)
(2.90839 0 5.51787)
(3.47876 0 5.78756)
(2.02843 0 5.62168)
(2.64589 0 6.01884)
(1.04558 0 5.52671)
(1.63845 0 6.12216)
(0.704868 0 5.93979)
(9.98465 0 0.159902)
(9.99403 0 0.11041)
(9.95475 0 0.265243)
(9.9741 0 0.219288)
(9.9107 0 0.371624)
(9.93871 0 0.328438)
(9.85275 0 0.480633)
(9.88911 0 0.439543)
(9.78111 0 0.59375)
(9.82628 0 0.554149)
(9.69596 0 0.712355)
(9.75051 0 0.673701)
(9.59735 0 0.837767)
(9.66183 0 0.79957)
(9.48524 0 0.97128)
(9.56022 0 0.933084)
(9.35952 0 1.11418)
(9.44565 0 1.07556)
(9.21999 0 1.26776)
(9.31799 0 1.22832)
(9.06638 0 1.43332)
(9.17707 0 1.39268)
(8.89835 0 1.61217)
(9.02262 0 1.57)
(8.71542 0 1.80563)
(8.85428 0 1.76163)
(8.51702 0 2.015)
(8.67159 0 1.96897)
(8.30237 0 2.2416)
(8.47392 0 2.1934)
(8.07045 0 2.48668)
(8.26044 0 2.43634)
(7.81988 0 2.75141)
(8.03004 0 2.69917)
(7.54879 0 3.03682)
(7.78114 0 2.98327)
(7.25457 0 3.34373)
(7.51161 0 3.28993)
(6.93361 0 3.67255)
(7.21843 0 3.6203)
(6.58092 0 4.02309)
(6.89738 0 3.97528)
(6.18955 0 4.3941)
(6.54254 0 4.35526)
(5.75001 0 4.78256)
(6.14563 0 4.75972)
(5.24955 0 5.18257)
(5.69517 0 5.18639)
(4.67159 0 5.58345)
(5.1754 0 5.6299)
(3.99574 0 5.96684)
(4.56566 0 6.07922)
(3.19935 0 6.30144)
(3.83714 0 6.5136)
(2.26264 0 6.53956)
(2.97174 0 6.89347)
(1.18117 0 6.56278)
(1.87998 0 7.15637)
(0.81329 0 7.09667)
(9.98554 0 0.170878)
(9.9944 0 0.11749)
(9.95741 0 0.28355)
(9.97573 0 0.233399)
(9.91605 0 0.397424)
(9.94261 0 0.349683)
(9.86177 0 0.514144)
(9.89629 0 0.468103)
(9.79479 0 0.635221)
(9.83773 0 0.590238)
(9.71531 0 0.762084)
(9.76725 0 0.717568)
(9.62341 0 0.896109)
(9.6849 0 0.851511)
(9.51913 0 1.03865)
(9.59072 0 0.993453)
(9.40241 0 1.19106)
(9.48474 0 1.14476)
(9.27314 0 1.35468)
(9.36692 0 1.30682)
(9.13113 0 1.5309)
(9.23716 0 1.481)
(8.97611 0 1.7211)
(9.09528 0 1.66874)
(8.80773 0 1.92673)
(8.94104 0 1.87148)
(8.6255 0 2.14923)
(8.77409 0 2.09074)
(8.42872 0 2.39012)
(8.59392 0 2.32806)
(8.21647 0 2.65094)
(8.39983 0 2.5851)
(7.98745 0 2.93327)
(8.19083 0 2.86357)
(7.73985 0 3.23872)
(7.96551 0 3.16532)
(7.47109 0 3.56894)
(7.72189 0 3.49231)
(7.17756 0 3.92553)
(7.45712 0 3.84668)
(6.85413 0 4.31)
(7.16715 0 4.23074)
(6.49355 0 4.72349)
(6.8462 0 4.64696)
(6.08556 0 5.16629)
(6.48592 0 5.09775)
(5.61572 0 5.63692)
(6.07432 0 5.58509)
(5.06393 0 6.13021)
(5.59392 0 6.10946)
(4.40286 0 6.63383)
(5.01985 0 6.66767)
(3.59702 0 7.12082)
(4.3132 0 7.24825)
(2.60529 0 7.53962)
(3.43663 0 7.81947)
(1.395 0 7.73856)
(2.2575 0 8.31378)
(1.00329 0 8.46299)
(9.98651 0 0.181161)
(9.9948 0 0.124096)
(9.96029 0 0.300674)
(9.97748 0 0.246553)
(9.92181 0 0.421509)
(9.94679 0 0.36945)
(9.8714 0 0.545367)
(9.90392 0 0.494623)
(9.80933 0 0.673792)
(9.84985 0 0.623687)
(9.7358 0 0.808252)
(9.78489 0 0.758149)
(9.65095 0 0.950172)
(9.70915 0 0.899469)
(9.55487 0 1.10095)
(9.62272 0 1.04907)
(9.44759 0 1.26199)
(9.5257 0 1.20838)
(9.32906 0 1.4347)
(9.41812 0 1.3788)
(9.1992 0 1.6205)
(9.29999 0 1.56177)
(9.05786 0 1.82088)
(9.17124 0 1.75877)
(8.90479 0 2.03737)
(9.03174 0 1.97135)
(8.73964 0 2.27156)
(8.88129 0 2.20109)
(8.56188 0 2.52515)
(8.71955 0 2.44972)
(8.37074 0 2.79995)
(8.54602 0 2.71907)
(8.16514 0 3.09794)
(8.35994 0 3.01116)
(7.9435 0 3.42129)
(8.1602 0 3.32827)
(7.70353 0 3.77246)
(7.94518 0 3.673)
(7.44197 0 4.15427)
(7.71253 0 4.04839)
(7.1541 0 4.56995)
(7.45881 0 4.45813)
(6.83305 0 5.02324)
(7.17905 0 4.90668)
(6.4688 0 5.51824)
(6.86587 0 5.39955)
(6.04649 0 6.05909)
(6.50825 0 5.94345)
(5.54389 0 6.64881)
(6.08927 0 6.54628)
(4.92737 0 7.2867)
(5.58281 0 7.21646)
(4.14579 0 7.96075)
(4.94283 0 7.96079)
(3.12291 0 8.63255)
(4.11032 0 8.77456)
(1.75727 0 9.12648)
(2.87994 0 9.61974)
(1.36588 0 10.1841)
(9.98754 0 0.190702)
(9.99523 0 0.130197)
(9.96334 0 0.31654)
(9.97933 0 0.25869)
(9.92789 0 0.443787)
(9.95118 0 0.387662)
(9.88154 0 0.574192)
(9.91192 0 0.519011)
(9.82457 0 0.709335)
(9.8625 0 0.654384)
(9.75723 0 0.850712)
(9.80326 0 0.795314)
(9.6797 0 0.999784)
(9.73436 0 0.943289)
(9.59213 0 1.15799)
(9.65594 0 1.09977)
(9.49463 0 1.32676)
(9.56816 0 1.26619)
(9.38724 0 1.50754)
(9.47116 0 1.44401)
(9.27 0 1.70182)
(9.36503 0 1.63469)
(9.14286 0 1.91113)
(9.24983 0 1.83976)
(9.00573 0 2.13708)
(9.12558 0 2.0608)
(8.85844 0 2.38138)
(8.99224 0 2.29951)
(8.70065 0 2.64589)
(8.84968 0 2.5577)
(8.53187 0 2.93264)
(8.69765 0 2.83736)
(8.35132 0 3.24395)
(8.53573 0 3.14077)
(8.15784 0 3.58248)
(8.36323 0 3.47052)
(7.9497 0 3.9514)
(8.1791 0 3.82972)
(7.72438 0 4.35459)
(7.98176 0 4.22216)
(7.47816 0 4.79688)
(7.76888 0 4.65261)
(7.20548 0 5.28445)
(7.53698 0 5.12726)
(6.89803 0 5.82526)
(7.28086 0 5.6543)
(6.54286 0 6.42966)
(6.9926 0 6.24484)
(6.11929 0 7.11109)
(6.65953 0 6.9144)
(5.59263 0 7.88673)
(6.26117 0 7.68526)
(4.90137 0 8.77657)
(5.75719 0 8.591)
(3.92833 0 9.80014)
(5.08835 0 9.68311)
(2.43509 0 10.8561)
(3.98213 0 11.0477)
(2.1487 0 12.5691)
(9.98862 0 0.199462)
(9.99567 0 0.13577)
(9.96654 0 0.331088)
(9.98125 0 0.269766)
(9.93423 0 0.464173)
(9.95573 0 0.404257)
(9.89207 0 0.600514)
(9.9202 0 0.541192)
(9.84037 0 0.741711)
(9.87558 0 0.682242)
(9.77941 0 0.889288)
(9.82223 0 0.828961)
(9.70941 0 1.04473)
(9.76036 0 0.982852)
(9.6306 0 1.20949)
(9.69018 0 1.14539)
(9.54314 0 1.38504)
(9.61192 0 1.31804)
(9.4472 0 1.57285)
(9.5258 0 1.50227)
(9.34291 0 1.77442)
(9.43202 0 1.69955)
(9.23038 0 1.99133)
(9.33079 0 1.91144)
(9.10967 0 2.22524)
(9.22227 0 2.13955)
(8.98081 0 2.47794)
(9.10662 0 2.38561)
(8.84374 0 2.7514)
(8.98394 0 2.6515)
(8.69826 0 3.04782)
(8.85429 0 2.93933)
(8.54402 0 3.36974)
(8.71764 0 3.25149)
(8.38044 0 3.72019)
(8.57383 0 3.59079)
(8.20657 0 4.10285)
(8.42254 0 3.96065)
(8.02096 0 4.52235)
(8.26319 0 4.3653)
(7.82146 0 4.98473)
(8.09491 0 4.81019)
(7.60481 0 5.498)
(7.91635 0 5.30253)
(7.36602 0 6.07318)
(7.72558 0 5.85214)
(7.09726 0 6.72591)
(7.5198 0 6.47291)
(6.78545 0 7.47938)
(7.29484 0 7.1854)
(6.40719 0 8.37036)
(7.04541 0 8.02196)
(5.91564 0 9.4635)
(6.76158 0 9.03913)
(5.19832 0 10.9058)
(6.46292 0 10.3529)
(3.88896 0 13.1797)
(6.19622 0 12.2999)
(5.27519 0 16.3781)
(0.467659 0 -0.346078)
(0.227374 0 -0.458043)
(0.851816 0 -0.27252)
(0.562314 0 -0.367371)
(1.17208 0 -0.220206)
(0.87643 0 -0.299034)
(1.44771 0 -0.18323)
(1.15313 0 -0.251289)
(1.68885 0 -0.15513)
(1.38886 0 -0.214646)
(1.90068 0 -0.132471)
(1.59209 0 -0.184103)
(2.08667 0 -0.113666)
(1.76903 0 -0.157828)
(2.24939 0 -0.0978233)
(1.92257 0 -0.134822)
(2.39063 0 -0.0844178)
(2.05391 0 -0.11426)
(2.51194 0 -0.0732823)
(2.16354 0 -0.0958149)
(2.6151 0 -0.0645896)
(2.25174 0 -0.0795614)
(2.70152 0 -0.0592304)
(2.31811 0 -0.0650726)
(2.77318 0 -0.0576986)
(2.3583 0 -0.052683)
(2.83117 0 -0.057369)
(2.35887 0 -0.0416257)
(2.87077 0 -0.0532718)
(2.32717 0 -0.0277606)
(2.88236 0 -0.0427523)
(2.27392 0 -0.00793191)
(2.86084 0 -0.0276128)
(2.20275 0 0.0143791)
(2.8109 0 -0.011477)
(2.11519 0 0.0325823)
(2.74009 0 0.00270366)
(2.01618 0 0.0451032)
(2.65751 0 0.0130948)
(1.9129 0 0.0513616)
(2.5728 0 0.0188595)
(1.81368 0 0.051444)
(2.49557 0 0.0198575)
(1.72653 0 0.0457854)
(2.4353 0 0.0164977)
(1.65885 0 0.034896)
(2.40041 0 0.00998414)
(1.61819 0 0.0197202)
(2.39118 0 0.00356949)
(1.61195 0 0.0050922)
(2.41056 0 -0.00124265)
(1.63115 0 -0.0104406)
(2.47055 0 -0.009942)
(1.6918 0 -0.0315659)
(2.59181 0 -0.0292966)
(1.81038 0 -0.0622897)
(2.79674 0 -0.0579939)
(1.98346 0 -0.102787)
(2.30623 0 -0.139358)
(0.317584 0 -0.590389)
(0.115181 0 -0.769097)
(0.617504 0 -0.483727)
(0.378222 0 -0.654187)
(0.876409 0 -0.399013)
(0.595037 0 -0.540779)
(1.09899 0 -0.336184)
(0.793798 0 -0.454207)
(1.29233 0 -0.286739)
(0.96012 0 -0.386743)
(1.46018 0 -0.245365)
(1.09881 0 -0.329986)
(1.60452 0 -0.209626)
(1.2129 0 -0.280317)
(1.72638 0 -0.178045)
(1.30333 0 -0.235789)
(1.82573 0 -0.149765)
(1.36975 0 -0.194629)
(1.90188 0 -0.124877)
(1.40997 0 -0.155961)
(1.95342 0 -0.102804)
(1.41909 0 -0.119306)
(1.97218 0 -0.0794071)
(1.38474 0 -0.0792029)
(1.94049 0 -0.0502366)
(1.31604 0 -0.0293868)
(1.85296 0 -0.0168115)
(1.22335 0 0.0212103)
(1.72888 0 0.0165502)
(1.10345 0 0.0592101)
(1.59229 0 0.0468837)
(0.969474 0 0.0855416)
(1.45459 0 0.0716652)
(0.835352 0 0.106383)
(1.31887 0 0.088912)
(0.7026 0 0.121126)
(1.18871 0 0.0972816)
(0.578678 0 0.128016)
(1.07049 0 0.0966054)
(0.466765 0 0.124887)
(0.970287 0 0.0877513)
(0.372643 0 0.112292)
(0.893267 0 0.071486)
(0.301074 0 0.0914511)
(0.844255 0 0.0483246)
(0.25597 0 0.0632697)
(0.82784 0 0.0223718)
(0.241608 0 0.0289987)
(0.84386 0 -0.0021507)
(0.257169 0 -0.00374923)
(0.901904 0 -0.0323116)
(0.313182 0 -0.0417175)
(1.0175 0 -0.0763964)
(0.411817 0 -0.092382)
(1.18926 0 -0.133255)
(0.55959 0 -0.150526)
(1.42635 0 -0.190669)
(0.740542 0 -0.221699)
(1.02245 0 -0.28146)
(0.187624 0 -0.843403)
(0.0408781 0 -0.952863)
(0.370994 0 -0.720603)
(0.200899 0 -0.829545)
(0.529202 0 -0.605749)
(0.297373 0 -0.688501)
(0.66178 0 -0.514202)
(0.397114 0 -0.575074)
(0.769603 0 -0.438637)
(0.468817 0 -0.48272)
(0.85317 0 -0.373043)
(0.517074 0 -0.402615)
(0.912598 0 -0.314306)
(0.540988 0 -0.330747)
(0.947171 0 -0.259886)
(0.539001 0 -0.264434)
(0.953751 0 -0.206541)
(0.508994 0 -0.199953)
(0.924762 0 -0.149754)
(0.44851 0 -0.133064)
(0.84743 0 -0.0857663)
(0.354694 0 -0.0596673)
(0.726657 0 -0.0180721)
(0.243553 0 0.0117392)
(0.594859 0 0.0431387)
(0.117753 0 0.0675127)
(0.469344 0 0.0907735)
(-0.00190195 0 0.111311)
(0.342042 0 0.124821)
(-0.124044 0 0.148435)
(0.209802 0 0.148468)
(-0.248141 0 0.176038)
(0.080301 0 0.163314)
(-0.368612 0 0.192912)
(-0.039668 0 0.16856)
(-0.481843 0 0.199393)
(-0.143783 0 0.163237)
(-0.5798 0 0.194336)
(-0.229322 0 0.147395)
(-0.660725 0 0.178087)
(-0.293126 0 0.121999)
(-0.720874 0 0.151038)
(-0.332325 0 0.0884812)
(-0.757429 0 0.114693)
(-0.345538 0 0.0488102)
(-0.768151 0 0.0709187)
(-0.332434 0 0.00576463)
(-0.751452 0 0.021592)
(-0.281688 0 -0.042076)
(-0.71355 0 -0.0317553)
(-0.189769 0 -0.0991532)
(-0.631247 0 -0.0912484)
(-0.0640493 0 -0.165703)
(-0.523514 0 -0.158526)
(0.0978096 0 -0.24208)
(-0.391628 0 -0.233673)
(0.289767 0 -0.314164)
(-0.246881 0 -0.317978)
(-0.0807092 0 -0.371527)
(0.0705989 0 -0.952387)
(-0.0189394 0 -1.02201)
(0.133699 0 -0.812403)
(0.0307788 0 -0.889888)
(0.181225 0 -0.673871)
(0.00954538 0 -0.732877)
(0.212673 0 -0.559442)
(0.00400033 0 -0.603743)
(0.222704 0 -0.460442)
(-0.0251999 0 -0.49165)
(0.209373 0 -0.370727)
(-0.0723655 0 -0.391028)
(0.170117 0 -0.286345)
(-0.139202 0 -0.297435)
(0.101993 0 -0.203875)
(-0.22632 0 -0.207991)
(0.00319449 0 -0.121231)
(-0.334293 0 -0.120027)
(-0.123352 0 -0.039572)
(-0.460584 0 -0.0331092)
(-0.25189 0 0.0332635)
(-0.589 0 0.0394626)
(-0.368006 0 0.0915161)
(-0.705356 0 0.0991745)
(-0.482649 0 0.138664)
(-0.820151 0 0.1518)
(-0.600751 0 0.177884)
(-0.936023 0 0.196091)
(-0.717649 0 0.207975)
(-1.04962 0 0.230369)
(-0.829761 0 0.226795)
(-1.15762 0 0.252761)
(-0.933522 0 0.233795)
(-1.25702 0 0.262243)
(-1.02415 0 0.22871)
(-1.34416 0 0.258521)
(-1.0981 0 0.211454)
(-1.4155 0 0.241436)
(-1.15206 0 0.182595)
(-1.46849 0 0.211649)
(-1.18383 0 0.143349)
(-1.50089 0 0.17033)
(-1.19186 0 0.0956423)
(-1.51121 0 0.119454)
(-1.17564 0 0.0416809)
(-1.49853 0 0.0615279)
(-1.1351 0 -0.0183955)
(-1.46423 0 -0.00131991)
(-1.06829 0 -0.0849073)
(-1.40735 0 -0.0686293)
(-0.975552 0 -0.156581)
(-1.3258 0 -0.141219)
(-0.865948 0 -0.232938)
(-1.23032 0 -0.216192)
(-0.747205 0 -0.311759)
(-1.12702 0 -0.294671)
(-0.6385 0 -0.379458)
(-1.02815 0 -0.3725)
(-0.954952 0 -0.428792)
(-0.0406088 0 -0.950038)
(-0.0768679 0 -0.982237)
(-0.0919232 0 -0.798855)
(-0.13314 0 -0.840815)
(-0.151841 0 -0.648249)
(-0.256619 0 -0.676931)
(-0.224172 0 -0.519223)
(-0.361151 0 -0.537801)
(-0.311756 0 -0.404244)
(-0.478808 0 -0.413689)
(-0.414807 0 -0.299426)
(-0.60464 0 -0.301465)
(-0.53194 0 -0.201698)
(-0.738487 0 -0.198037)
(-0.661399 0 -0.109311)
(-0.879383 0 -0.100729)
(-0.798129 0 -0.0229656)
(-1.01972 0 -0.00941647)
(-0.924517 0 0.0526187)
(-1.15293 0 0.0667208)
(-1.04272 0 0.116426)
(-1.2736 0 0.130626)
(-1.16035 0 0.171807)
(-1.39315 0 0.187746)
(-1.27609 0 0.218603)
(-1.50962 0 0.236892)
(-1.38756 0 0.255124)
(-1.6208 0 0.27611)
(-1.49203 0 0.279789)
(-1.72438 0 0.30359)
(-1.58692 0 0.291193)
(-1.81811 0 0.317698)
(-1.66956 0 0.288672)
(-1.89986 0 0.317462)
(-1.73712 0 0.272115)
(-1.96732 0 0.302597)
(-1.78724 0 0.241971)
(-2.01843 0 0.273363)
(-1.81804 0 0.199403)
(-2.05158 0 0.230801)
(-1.82851 0 0.146304)
(-2.06571 0 0.176688)
(-1.8186 0 0.0851919)
(-2.06031 0 0.113578)
(-1.78879 0 0.0183735)
(-2.03565 0 0.0442735)
(-1.73776 0 -0.0533051)
(-1.99458 0 -0.0301631)
(-1.66798 0 -0.12869)
(-1.9327 0 -0.107139)
(-1.58643 0 -0.205469)
(-1.86009 0 -0.185166)
(-1.49968 0 -0.28263)
(-1.78216 0 -0.26183)
(-1.41714 0 -0.358365)
(-1.7062 0 -0.337073)
(-1.3463 0 -0.423225)
(-1.6429 0 -0.408029)
(-1.60759 0 -0.463991)
(-0.142963 0 -0.845915)
(-0.134225 0 -0.842214)
(-0.296622 0 -0.691545)
(-0.281237 0 -0.69387)
(-0.449782 0 -0.54043)
(-0.487835 0 -0.533922)
(-0.605697 0 -0.408548)
(-0.671094 0 -0.395659)
(-0.763482 0 -0.290476)
(-0.853217 0 -0.273238)
(-0.92274 0 -0.183065)
(-1.03077 0 -0.163052)
(-1.08266 0 -0.0837484)
(-1.20179 0 -0.0623355)
(-1.23545 0 0.00599342)
(-1.3616 0 0.0258697)
(-1.3727 0 0.0831449)
(-1.50832 0 0.101618)
(-1.49993 0 0.149278)
(-1.6414 0 0.167208)
(-1.62395 0 0.207356)
(-1.77004 0 0.226272)
(-1.74309 0 0.257511)
(-1.89218 0 0.277462)
(-1.85535 0 0.298093)
(-2.00651 0 0.319425)
(-1.95885 0 0.327238)
(-2.11154 0 0.350409)
(-2.05175 0 0.343283)
(-2.20574 0 0.368703)
(-2.13234 0 0.344995)
(-2.28773 0 0.372849)
(-2.19894 0 0.331786)
(-2.35617 0 0.361966)
(-2.24994 0 0.303744)
(-2.40976 0 0.335864)
(-2.284 0 0.261681)
(-2.44738 0 0.295062)
(-2.30024 0 0.207207)
(-2.46821 0 0.240905)
(-2.29843 0 0.142691)
(-2.47184 0 0.175588)
(-2.27899 0 0.0708504)
(-2.45837 0 0.102051)
(-2.24242 0 -0.00617807)
(-2.4287 0 0.023102)
(-2.19063 0 -0.0863386)
(-2.38533 0 -0.0594339)
(-2.12727 0 -0.166732)
(-2.32831 0 -0.142106)
(-2.05919 0 -0.244718)
(-2.26655 0 -0.221853)
(-1.99303 0 -0.319149)
(-2.2053 0 -0.296639)
(-1.93641 0 -0.38927)
(-2.15193 0 -0.366157)
(-1.89225 0 -0.449562)
(-2.11449 0 -0.430178)
(-2.09865 0 -0.481642)
(-0.232786 0 -0.657944)
(-0.185893 0 -0.614214)
(-0.468235 0 -0.508794)
(-0.405138 0 -0.468709)
(-0.693238 0 -0.3678)
(-0.676394 0 -0.323833)
(-0.908826 0 -0.244858)
(-0.915118 0 -0.199115)
(-1.11365 0 -0.13434)
(-1.13689 0 -0.0909139)
(-1.30512 0 -0.0346322)
(-1.33964 0 0.0033514)
(-1.47729 0 0.0518094)
(-1.5236 0 0.0837667)
(-1.63184 0 0.125605)
(-1.68882 0 0.153923)
(-1.77491 0 0.190913)
(-1.84065 0 0.217352)
(-1.9105 0 0.24921)
(-1.98259 0 0.274312)
(-2.03766 0 0.300015)
(-2.11468 0 0.324336)
(-2.15553 0 0.342025)
(-2.23638 0 0.366223)
(-2.26303 0 0.373653)
(-2.34707 0 0.39846)
(-2.35905 0 0.393185)
(-2.446 0 0.419337)
(-2.44253 0 0.399076)
(-2.53239 0 0.427208)
(-2.51249 0 0.390208)
(-2.60555 0 0.420725)
(-2.56803 0 0.36609)
(-2.66481 0 0.399079)
(-2.60833 0 0.326951)
(-2.70953 0 0.362155)
(-2.63275 0 0.273825)
(-2.73921 0 0.310617)
(-2.64096 0 0.208609)
(-2.75346 0 0.246009)
(-2.63308 0 0.133997)
(-2.75222 0 0.170808)
(-2.60982 0 0.0530219)
(-2.73594 0 0.088257)
(-2.57228 0 -0.0316286)
(-2.706 0 0.00137154)
(-2.52416 0 -0.116928)
(-2.66445 0 -0.0866353)
(-2.46968 0 -0.199237)
(-2.61486 0 -0.172169)
(-2.41484 0 -0.275748)
(-2.56405 0 -0.251406)
(-2.36605 0 -0.345427)
(-2.51775 0 -0.322306)
(-2.32931 0 -0.408727)
(-2.48323 0 -0.385034)
(-2.30669 0 -0.462684)
(-2.46593 0 -0.441524)
(-2.46272 0 -0.486463)
(-0.304378 0 -0.408386)
(-0.230705 0 -0.316095)
(-0.605655 0 -0.274447)
(-0.502977 0 -0.180596)
(-0.883377 0 -0.148001)
(-0.813403 0 -0.0645181)
(-1.1338 0 -0.0386398)
(-1.08049 0 0.0291862)
(-1.35663 0 0.0512214)
(-1.31946 0 0.107438)
(-1.55392 0 0.125533)
(-1.53239 0 0.174812)
(-1.73164 0 0.190813)
(-1.72282 0 0.234585)
(-1.89543 0 0.250535)
(-1.89674 0 0.289629)
(-2.04653 0 0.304559)
(-2.05558 0 0.339589)
(-2.18557 0 0.352237)
(-2.20062 0 0.384131)
(-2.31263 0 0.392554)
(-2.33252 0 0.422328)
(-2.42757 0 0.424047)
(-2.45154 0 0.452773)
(-2.53005 0 0.445057)
(-2.55772 0 0.473802)
(-2.61965 0 0.453899)
(-2.65095 0 0.483655)
(-2.69595 0 0.449092)
(-2.73106 0 0.480688)
(-2.75858 0 0.429579)
(-2.79789 0 0.463582)
(-2.80717 0 0.394919)
(-2.85127 0 0.431548)
(-2.8414 0 0.345419)
(-2.891 0 0.384488)
(-2.86103 0 0.282237)
(-2.91692 0 0.323118)
(-2.86599 0 0.207469)
(-2.92886 0 0.249096)
(-2.85658 0 0.1241)
(-2.92688 0 0.165093)
(-2.83369 0 0.0355729)
(-2.9116 0 0.0746886)
(-2.7988 0 -0.0548601)
(-2.88468 0 -0.01883)
(-2.75641 0 -0.143385)
(-2.84775 0 -0.110594)
(-2.71115 0 -0.225822)
(-2.8063 0 -0.197149)
(-2.66858 0 -0.299305)
(-2.76603 0 -0.274345)
(-2.63465 0 -0.363107)
(-2.73315 0 -0.340158)
(-2.61437 0 -0.418838)
(-2.71497 0 -0.395452)
(-2.60993 0 -0.465441)
(-2.71443 0 -0.443748)
(-2.72081 0 -0.481316)
(-0.362962 0 -0.0836523)
(-0.256335 0 0.039404)
(-0.700033 0 0.0357242)
(-0.557239 0 0.141747)
(-0.996682 0 0.118606)
(-0.885263 0 0.212469)
(-1.2576 0 0.182316)
(-1.1653 0 0.26706)
(-1.48924 0 0.238289)
(-1.41402 0 0.313626)
(-1.69719 0 0.28983)
(-1.63557 0 0.355547)
(-1.88505 0 0.337486)
(-1.8336 0 0.393999)
(-2.05466 0 0.381375)
(-2.01123 0 0.430155)
(-2.20798 0 0.421018)
(-2.17074 0 0.463621)
(-2.34635 0 0.45547)
(-2.31401 0 0.493423)
(-2.47059 0 0.483354)
(-2.44235 0 0.518149)
(-2.58121 0 0.502997)
(-2.55663 0 0.536069)
(-2.67847 0 0.512609)
(-2.65741 0 0.545303)
(-2.76249 0 0.510449)
(-2.74509 0 0.543968)
(-2.83335 0 0.495019)