/*--------------------------------*- C++ -*----------------------------------*\
  =========                 |
  \\      /  F ield         | OpenFOAM: The Open Source CFD Toolbox
   \\    /   O peration     | Website:  https://openfoam.org
    \\  /    A nd           | Version:  dev
     \\/     M anipulation  |
\*---------------------------------------------------------------------------*/
FoamFile
{
    version     2.0;
    format      ascii;
    class       volScalarField;
    location    "5.6";
    object      p;
}
// * * * * * * * * * * * * * * * * * * * * * * * * * * * * * * * * * * * * * //

dimensions      [0 2 -2 0 0 0 0];

internalField   nonuniform List<scalar> 
2790
(
146.931
146.839
147.106
147.677
148.457
149.414
150.547
151.853
153.33
154.971
156.77
158.721
160.815
163.04
165.38
167.816
170.32
172.859
175.391
177.865
180.223
182.401
184.331
185.952
187.212
188.086
188.522
188.577
188.628
188.841
146.728
146.746
147.038
147.607
148.383
149.337
150.465
151.765
153.235
154.867
156.657
158.598
160.681
162.895
165.224
167.65
170.145
172.679
175.209
177.687
180.055
182.251
184.205
185.854
187.138
188.012
188.409
188.464
188.596
188.881
146.53
146.617
146.929
147.487
148.25
149.191
150.304
151.586
153.034
154.642
156.404
158.314
160.361
162.537
164.825
167.208
169.659
172.15
174.642
177.09
179.439
181.632
183.604
185.294
186.645
187.621
188.214
188.569
188.885
189.183
146.305
146.423
146.747
147.296
148.045
148.97
150.063
151.321
152.74
154.315
156.038
157.904
159.902
162.023
164.251
166.569
168.954
171.377
173.804
176.194
178.502
180.673
182.655
184.395
185.849
187.001
187.869
188.54
189.093
189.612
146.044
146.177
146.509
147.051
147.783
148.686
149.754
150.981
152.363
153.894
155.568
157.378
159.313
161.364
163.516
165.751
168.049
170.384
172.726
175.039
177.284
179.419
181.402
183.192
184.763
186.105
187.235
188.198
189.009
189.756
145.743
145.881
146.216
146.748
147.46
148.338
149.374
150.563
151.9
153.38
154.995
156.737
158.598
160.566
162.627
164.765
166.96
169.189
171.426
173.642
175.804
177.882
179.844
181.665
183.328
184.829
186.176
187.381
188.401
189.319
145.401
145.54
145.871
146.39
147.079
147.927
148.926
150.071
151.357
152.777
154.324
155.99
157.765
159.638
161.595
163.62
165.696
167.802
169.915
172.011
174.066
176.057
177.965
179.775
181.481
183.082
184.576
185.955
187.119
188.166
145.016
145.153
145.477
145.98
146.643
147.457
148.414
149.51
150.738
152.09
153.561
155.14
156.819
158.585
160.425
162.324
164.265
166.229
168.197
170.149
172.066
173.934
175.741
177.483
179.162
180.781
182.335
183.808
185.058
186.208
144.59
144.723
145.037
145.52
146.154
146.93
147.841
148.882
150.045
151.324
152.71
154.195
155.767
157.415
159.126
160.884
162.674
164.477
166.277
168.055
169.799
171.497
173.145
174.745
176.307
177.842
179.35
180.821
182.092
183.33
144.123
144.251
144.552
145.012
145.615
146.35
147.21
148.191
149.285
150.484
151.778
153.16
154.617
156.137
157.706
159.31
160.932
162.554
164.16
165.733
167.262
168.736
170.154
171.522
172.855
174.174
175.494
176.832
178.033
179.337
143.618
143.74
144.025
144.46
145.028
145.719
146.526
147.443
148.462
149.574
150.771
152.043
153.376
154.759
156.176
157.612
159.05
160.471
161.857
163.192
164.46
165.65
166.757
167.785
168.749
169.678
170.608
171.607
172.57
173.888
143.076
143.19
143.458
143.867
144.398
145.041
145.791
146.64
147.58
148.602
149.697
150.851
152.054
153.291
154.546
155.803
157.041
158.242
159.384
160.446
161.408
162.25
162.958
163.524
163.951
164.261
164.504
164.813
165.195
166.368
142.499
142.606
142.855
143.235
143.727
144.321
145.011
145.789
146.647
147.574
148.561
149.594
150.661
151.745
152.83
153.896
154.923
155.887
156.762
157.521
158.134
158.569
158.791
158.766
158.463
157.866
156.991
156
155.053
155.559
141.89
141.988
142.218
142.568
143.019
143.561
144.189
144.894
145.667
146.496
147.372
148.28
149.205
150.132
151.04
151.909
152.715
153.428
154.02
154.451
154.681
154.658
154.32
153.588
152.365
150.536
147.975
144.675
140.729
138.696
141.251
141.34
141.55
141.868
142.277
142.767
143.331
143.96
144.645
145.375
146.137
146.917
147.699
148.464
149.192
149.858
150.436
150.892
151.188
151.278
151.105
150.595
149.65
148.135
145.856
142.525
137.683
130.67
120.214
108.002
0.998071
0.979212
0.915861
0.829486
0.740827
0.659589
0.588472
0.52728
0.474865
0.429771
0.390489
0.355636
0.324043
0.29477
0.267078
0.240407
0.214371
0.188773
0.163613
0.139094
0.115585
0.0935369
0.0733758
0.0555329
0.0403598
0.0278158
0.0177357
0.0099401
0.00428751
0.000159081
0.954389
0.933225
0.873667
0.794202
0.712852
0.63797
0.571979
0.514826
0.465559
0.422886
0.385443
0.351975
0.321418
0.292906
0.265749
0.23942
0.213557
0.187977
0.162704
0.137979
0.114236
0.0920261
0.0719148
0.0543011
0.0392974
0.0269018
0.0169752
0.00934127
0.00401007
0.00128873
0.905973
0.880753
0.823599
0.750761
0.677436
0.609949
0.550148
0.498024
0.452777
0.41325
0.378212
0.346557
0.317354
0.28984
0.263397
0.237543
0.21194
0.186428
0.161064
0.136147
0.112196
0.0898487
0.069689
0.0521029
0.0372488
0.0250425
0.0151803
0.00767765
0.00289771
0.00140132
0.859327
0.829905
0.774442
0.707377
0.64162
0.58123
0.527452
0.480283
0.439047
0.402709
0.370137
0.340354
0.31256
0.2861
0.260432
0.235119
0.209851
0.184493
0.159129
0.13411
0.11003
0.0876075
0.0674547
0.049962
0.0353252
0.0233959
0.0137716
0.00644166
0.0017868
4.04316e-05
0.826997
0.793405
0.739481
0.676642
0.616472
0.561105
0.51151
0.46776
0.429286
0.395166
0.364323
0.335851
0.309038
0.283314
0.258188
0.233256
0.208234
0.183003
0.157671
0.13262
0.108506
0.0861117
0.0660452
0.048646
0.0341623
0.0223958
0.0127414
0.0055325
0.00149152
-0.000196193
0.820381
0.78152
0.728444
0.667031
0.608916
0.555104
0.506685
0.463864
0.426197
0.392744
0.36237
0.334235
0.307657
0.282098
0.257078
0.232207
0.207221
0.182023
0.156737
0.131746
0.107715
0.0854568
0.0655509
0.048266
0.0339418
0.022622
0.0133473
0.00569269
0.000831349
-0.000564797
0.849916
0.803161
0.747712
0.682833
0.621224
0.564362
0.513459
0.468694
0.429556
0.39498
0.363827
0.335044
0.307922
0.281921
0.256546
0.231415
0.20629
0.18111
0.156001
0.131296
0.107576
0.0856368
0.0660825
0.04896
0.0343333
0.0224097
0.0129793
0.00559584
0.000614712
-0.000597809
0.921564
0.863767
0.797414
0.72195
0.65052
0.585825
0.528815
0.479285
0.436544
0.399443
0.366694
0.336687
0.308472
0.281628
0.25564
0.230123
0.204889
0.179922
0.155313
0.131209
0.107891
0.0858557
0.0658612
0.0486374
0.0343574
0.0227119
0.0131951
0.00532401
-7.85419e-05
-0.000753445
1.03551
0.955741
0.868706
0.77503
0.688536
0.613095
0.548616
0.493144
0.44522
0.403971
0.367948
0.336123
0.3072
0.279943
0.253602
0.227777
0.202406
0.177621
0.153526
0.130133
0.107484
0.0858297
0.065791
0.048291
0.0339047
0.0224611
0.0130635
0.00490605
-0.000769728
-0.000894379
1.17053
1.05705
0.94177
0.827502
0.723969
0.633973
0.558922
0.497636
0.447076
0.404173
0.36695
0.334087
0.304461
0.276874
0.250317
0.224302
0.198955
0.174657
0.15151
0.129157
0.107152
0.0854952
0.0649671
0.0469245
0.032431
0.0213854
0.0124131
0.00429478
-0.0013867
-0.000996371
1.28363
1.1393
0.993749
0.854973
0.736473
0.638884
0.559048
0.494357
0.441915
0.398274
0.360752
0.327826
0.298456
0.271323
0.245019
0.218917
0.193551
0.169892
0.148186
0.127522
0.106575
0.0848215
0.0632769
0.0441623
0.0294337
0.0191308
0.0111497
0.00357888
-0.00182379
-0.00103571
1.36971
1.17575
1.00074
0.844338
0.716452
0.616089
0.537149
0.474735
0.425122
0.384126
0.348364
0.316627
0.288643
0.263077
0.237736
0.211621
0.186009
0.163079
0.143484
0.125407
0.106036
0.0839661
0.0605831
0.0395427
0.0243323
0.0153158
0.00922225
0.00287972
-0.00200662
-0.000991602
1.36524
1.10347
0.909175
0.756863
0.641095
0.554855
0.488106
0.435322
0.394467
0.360752
0.329317
0.299862
0.274395
0.251957
0.228646
0.202411
0.175821
0.153457
0.136963
0.122989
0.106101
0.0834039
0.0568908
0.0325348
0.016388
0.00950088
0.00668122
0.00243047
-0.0018526
-0.000847583
1.09871
0.780294
0.649243
0.564864
0.494162
0.447709
0.410201
0.375401
0.349574
0.328889
0.304375
0.277182
0.255009
0.238165
0.218838
0.19214
0.162821
0.140206
0.128164
0.120759
0.10785
0.0840347
0.052366
0.0224595
0.00455399
0.00108659
0.00372024
0.0026836
-0.00123524
-0.000591727
0.390262
0.0186073
0.124805
0.25596
0.269761
0.302828
0.316567
0.298864
0.288688
0.28987
0.276903
0.250078
0.230627
0.222807
0.210622
0.182115
0.14602
0.120944
0.11545
0.118991
0.112722
0.0871179
0.047252
0.00833388
-0.012756
-0.0108516
0.00074041
0.00448744
6.0871e-05
-0.000220543
140.571
140.652
140.841
141.125
141.49
141.925
142.423
142.975
143.57
144.196
144.841
145.489
146.123
146.723
147.265
147.724
148.068
148.259
148.253
147.993
147.406
146.397
144.833
142.519
139.157
134.251
126.881
115.133
92.9824
33.2323
139.844
139.915
140.081
140.331
140.65
141.028
141.457
141.928
142.43
142.95
143.474
143.986
144.468
144.898
145.251
145.498
145.604
145.527
145.216
144.606
143.613
142.123
139.977
136.944
132.666
126.558
117.589
104.025
84.5003
56.0375
139.075
139.136
139.279
139.493
139.764
140.083
140.441
140.83
141.236
141.647
142.049
142.423
142.751
143.01
143.172
143.208
143.078
142.738
142.132
141.19
139.819
137.899
135.266
131.689
126.843
120.273
111.389
99.5494
85.3046
68.6617
138.264
138.315
138.434
138.611
138.834
139.093
139.379
139.683
139.993
140.295
140.573
140.809
140.984
141.073
141.048
140.876
140.519
139.928
139.045
137.799
136.098
133.824
130.825
126.906
121.818
115.269
106.961
96.5616
84.0069
68.8569
137.414
137.455
137.549
137.689
137.863
138.061
138.275
138.494
138.707
138.899
139.054
139.154
139.178
139.101
138.894
138.525
137.952
137.128
135.997
134.486
132.511
129.966
126.72
122.618
117.479
111.104
103.291
93.7983
82.4571
69.4743
136.528
136.558
136.628
136.73
136.854
136.991
137.132
137.267
137.384
137.467
137.502
137.469
137.346
137.11
136.73
136.175
135.404
134.371
133.021
131.29
129.101
126.362
122.969
118.801
113.729
107.618
100.345
91.811
82.0057
71.342
135.607
135.626
135.671
135.736
135.81
135.887
135.956
136.008
136.03
136.008
135.925
135.763
135.501
135.113
134.573
133.846
132.897
131.681
130.149
128.242
125.895
123.032
119.573
115.43
110.516
104.751
98.0817
90.4962
82.0379
73.0426
134.654
134.664
134.684
134.711
134.737
134.754
134.753
134.724
134.653
134.529
134.333
134.049
133.654
133.127
132.438
131.558
130.453
129.082
127.401
125.361
122.908
119.982
116.524
112.473
107.776
102.395
96.3128
89.5518
82.1613
74.4135
133.675
133.674
133.671
133.661
133.639
133.597
133.528
133.419
133.261
133.038
132.736
132.336
131.82
131.163
130.342
129.327
128.088
126.59
124.795
122.661
120.146
117.206
113.799
109.885
105.436
100.438
94.8968
88.8459
82.3391
75.6043
132.672
132.661
132.634
132.589
132.52
132.422
132.287
132.103
131.86
131.545
131.143
130.637
130.008
129.236
128.297
127.167
125.817
124.219
122.339
120.147
117.608
114.692
111.37
107.621
103.432
98.8028
93.7524
88.3197
82.5579
76.6519
131.65
131.629
131.58
131.5
131.387
131.235
131.037
130.782
130.46
130.058
129.564
128.96
128.231
127.356
126.317
125.089
123.651
121.976
120.04
117.818
115.286
112.423
109.211
105.64
101.708
97.4267
92.8181
87.9218
82.7858
77.5586
130.614
130.584
130.513
130.4
130.245
130.042
129.784
129.462
129.066
128.586
128.007
127.316
126.497
125.534
124.409
123.103
121.595
119.867
117.899
115.672
113.169
110.378
107.29
103.902
100.221
96.2597
92.0445
87.6114
83.0023
78.3366
129.57
129.531
129.439
129.296
129.1
128.849
128.536
128.152
127.689
127.135
126.481
125.712
124.816
123.778
122.582
121.214
119.656
117.894
115.913
113.7
111.245
108.539
105.582
102.376
98.9301
95.2613
91.3941
87.3612
83.1982
79.0014
128.522
128.475
128.365
128.192
127.959
127.664
127.299
126.859
126.334
125.716
124.994
124.158
123.196
122.095
120.843
119.427
117.835
116.056
114.078
111.894
109.498
106.887
104.062
101.031
97.8043
94.3995
90.8395
87.1525
83.3688
79.5664
127.478
127.424
127.295
127.095
126.828
126.492
126.081
125.589
125.009
124.334
123.554
122.66
121.642
120.49
119.195
117.746
116.134
114.35
112.389
110.244
107.915
105.401
102.708
99.8421
96.8172
93.6496
90.3598
86.9722
83.5125
80.0437
126.444
126.382
126.237
126.013
125.715
125.341
124.888
124.351
123.722
122.996
122.166
121.223
120.16
118.969
117.642
116.171
114.55
112.773
110.838
108.74
106.482
104.067
101.499
98.7884
95.9475
92.9917
89.9394
86.8114
83.6292
80.4445
125.426
125.358
125.198
124.951
124.625
124.218
123.728
123.15
122.479
121.71
120.838
119.855
118.756
117.535
116.185
114.702
113.082
111.321
109.418
107.373
105.188
102.868
100.419
97.8522
95.1778
92.4107
89.5668
86.6641
83.7205
80.7785
124.431
124.357
124.184
123.918
123.566
123.13
122.607
121.994
121.286
120.481
119.574
118.559
117.432
116.189
114.826
113.34
111.728
109.989
108.123
106.132
104.02
101.792
99.4549
97.0187
94.4943
91.8945
89.2335
86.5263
83.7884
81.0545
123.467
123.388
123.203
122.919
122.545
122.083
121.532
120.888
120.151
119.315
118.379
117.339
116.192
114.935
113.566
112.082
110.484
108.771
106.945
105.01
102.968
100.827
98.5931
96.2761
93.886
91.4342
88.9332
86.396
83.8354
81.2804
122.54
122.457
122.261
121.962
121.568
121.084
120.509
119.84
119.077
118.217
117.259
116.2
115.039
113.774
112.404
110.928
109.348
107.664
105.879
103.998
102.023
99.9631
97.824
95.6145
93.344
91.0228
88.6617
86.272
83.8645
81.4634
121.659
121.572
121.367
121.054
120.644
120.142
119.546
118.856
118.072
117.193
116.217
115.145
113.975
112.706
111.34
109.876
108.316
106.663
104.919
103.089
101.179
99.193
97.1396
95.0263
92.8618
90.6552
88.4161
86.154
83.8786
81.6097
120.831
120.741
120.528
120.204
119.78
119.261
118.648
117.941
117.141
116.246
115.259
114.177
113.002
111.734
110.375
108.925
107.388
105.765
104.061
102.28
100.428
98.5098
96.5334
94.5056
92.4344
90.3279
88.1946
86.0428
83.8809
81.7255
120.065
119.971
119.752
119.418
118.981
118.449
117.823
117.102
116.289
115.383
114.386
113.299
112.123
110.859
109.509
108.074
106.559
104.966
103.299
101.564
99.7649
97.9082
96.0001
94.0476
92.0578
90.0382
87.996
85.939
83.8742
81.8157
119.368
119.271
119.046
118.703
118.257
117.714
117.076
116.345
115.521
114.608
113.605
112.516
111.341
110.082
108.742
107.324
105.83
104.265
102.633
100.939
99.1878
97.385
95.5369
93.6498
91.7304
89.7853
87.8212
85.8448
83.8625
81.8862
118.749
118.65
118.419
118.068
117.613
117.061
116.415
115.675
114.844
113.925
112.919
111.829
110.656
109.404
108.075
106.672
105.2
103.66
102.06
100.402
98.6923
96.9364
95.14
93.3089
91.4493
89.5673
87.6689
85.7602
83.847
81.9391
118.217
118.115
117.879
117.521
117.059
116.5
115.846
115.1
114.264
113.341
112.334
111.244
110.076
108.83
107.512
106.124
104.67
103.153
101.58
99.9536
98.2798
96.5637
94.8108
93.0266
91.217
89.3874
87.5436
85.691
83.8349
81.9837
117.782
117.677
117.433
117.068
116.599
116.033
115.374
114.623
113.784
112.858
111.851
110.763
109.598
108.36
107.051
105.675
104.237
102.741
101.19
99.5899
97.9455
96.2618
94.5442
92.7979
91.0283
89.2406
87.4401
85.6318
83.8206
82.0135
117.456
117.345
117.092
116.72
116.246
115.677
115.013
114.259
113.417
112.49
111.482
110.396
109.236
108.003
106.702
105.338
103.912
102.432
100.899
99.3198
97.6986
96.0405
94.3505
92.6336
90.8951
89.1399
87.3731
85.5993
83.8234
82.0513
117.254
117.119
116.849
116.471
115.995
115.423
114.757
114.001
113.158
112.231
111.225
110.141
108.983
107.755
106.461
105.104
103.688
102.218
100.698
99.1331
97.5277
95.8867
94.2151
92.5179
90.7999
89.066
87.321
85.5695
83.8158
82.0649
117.236
117.037
116.739
116.354
115.876
115.3
114.631
113.873
113.029
112.103
111.097
110.015
108.86
107.635
106.345
104.994
103.585
102.123
100.611
99.0559
97.4608
95.8309
94.1711
92.4863
90.7812
89.0605
87.329
85.591
83.8509
82.113
-50.5525
-30.3126
-11.1155
35.6739
28.2491
16.256
51.1609
39.0797
27.8788
52.5835
42.1633
34.1238
56.9221
48.6362
41.8814
61.309
54.4018
48.5121
64.5815
58.7015
53.6537
67.177
62.1531
57.845
69.365
65.0334
61.3253
71.2118
67.4336
64.2071
72.7646
69.4348
66.5983
74.0729
71.1108
68.5927
75.1772
72.5197
70.2638
76.1097
73.7068
71.6691
76.8969
74.7087
72.8544
77.5608
75.5551
73.8558
78.1196
76.2698
74.7026
78.5885
76.8727
75.4183
78.9805
77.38
76.0225
79.3066
77.8057
76.5313
79.5762
78.1613
76.9583
79.7982
78.4572
77.3155
79.9792
78.7015
77.6121
80.1271
78.9034
77.8581
80.2445
79.0661
78.058
80.3433
79.2022
78.2241
80.4146
79.3034
78.35
80.4871
79.3986
78.4625
80.521
79.4488
78.5267
80.59
79.5319
78.6163
-2.70965
-2.5946
-1.12147
0.0200183
0.0489437
0.138884
0.20367
0.183871
0.197153
0.254494
0.262945
0.222319
0.19574
0.200936
0.204306
0.173223
0.124041
0.0929265
0.0978986
0.120207
0.124974
0.0958618
0.0425311
-0.0111919
-0.0381946
-0.0280378
-0.00153473
0.0095434
0.00254256
0.000262132
2.49438
-0.462193
1.11469
0.595298
-0.727428
-0.504213
0.110061
0.159464
0.171799
0.273301
0.259488
0.162049
0.120016
0.169784
0.221327
0.183804
0.103676
0.0530067
0.0694431
0.122518
0.146361
0.110982
0.0364371
-0.0404641
-0.0775045
-0.0542698
-0.00197287
0.0211991
0.00738588
0.000810244
13.623
5.24653
2.4663
0.0314878
-0.316917
1.01548
1.20599
-0.0260702
-0.41882
-0.0757356
0.276731
0.172589
0.10181
0.203603
0.278997
0.194071
0.0466686
-0.0428619
0.00198801
0.12767
0.19722
0.147875
0.0388518
-0.0749143
-0.131288
-0.0916674
0.00268056
0.0464024
0.0176117
0.00128381
23.3753
13.5011
7.63891
3.86694
2.11633
1.53104
0.372892
-0.306565
0.00429065
1.17816
1.12521
0.0476518
-0.349465
-0.177888
0.234294
0.277283
0.0381542
-0.112616
-0.0183322
0.201966
0.29045
0.192704
0.0265122
-0.14427
-0.233826
-0.168886
0.0113033
0.0934697
0.0386606
0.00120742
32.5394
22.7761
15.46
10.1686
6.53141
4.05779
2.20219
1.19269
0.905546
0.932427
0.440878
-0.139581
-0.256245
0.517962
1.0574
0.529521
-0.0991817
-0.465559
-0.419487
0.0859689
0.392057
0.278005
0.0397869
-0.197022
-0.322738
-0.197006
0.0505334
0.181619
0.0796865
-0.000244116
40.513
31.5868
23.7011
17.2709
12.347
8.70414
6.03471
4.15532
2.88752
1.99558
1.23327
0.636437
0.375359
0.574211
0.574157
0.320717
-0.170966
-0.498314
-0.197715
0.660469
0.828323
0.343437
-0.00871805
-0.331847
-0.566524
-0.517229
0.0103346
0.304929
0.144681
-0.0055747
47.0197
39.2134
31.4377
24.5484
18.9252
14.4686
10.9499
8.20086
6.10923
4.54
3.31957
2.35131
1.68535
1.32593
1.03511
0.682883
0.199154
-0.11353
0.0275795
0.41699
0.553908
0.353812
0.0230949
-0.349158
-0.606877
-0.374977
0.368491
0.577715
0.223639
-0.0188226
52.319
45.5866
38.3285
31.4991
25.6181
20.6755
16.5389
13.1202
10.3528
8.1394
6.34936
4.89662
3.77616
2.96355
2.32749
1.72262
1.12864
0.71625
0.617736
0.715975
0.735021
0.515759
0.145573
-0.224818
-0.431309
-0.256716
0.188704
0.411087
0.315924
-0.0609053
56.6417
50.8238
44.2389
37.7655
31.9489
26.8395
22.3728
18.5138
15.2325
12.4728
10.1574
8.22593
6.64771
5.38292
4.34147
3.42934
2.63232
2.02413
1.66229
1.47686
1.28236
0.950345
0.532909
0.156173
-0.053001
0.0117224
0.265826
0.405923
0.272051
-0.299423
60.1692
55.1006
49.1973
43.2124
37.6594
32.616
28.0535
23.9672
20.3586
17.2085
14.4791
12.1311
10.1315
8.44263
7.0066
5.76633
4.70106
3.83199
3.17555
2.68153
2.23477
1.75112
1.25022
0.811937
0.52154
0.432178
0.478245
0.45095
0.18432
-0.514898
63.0662
58.6059
53.3251
47.8567
42.6609
37.821
33.3242
29.1819
25.415
22.0285
19.0101
16.339
13.9926
11.9438
10.157
8.59513
7.23643
6.07867
5.11797
4.31754
3.60785
2.933
2.29237
1.72942
1.2955
1.01337
0.828301
0.597157
0.183093
-0.590903
65.4655
61.5012
56.7626
51.7834
46.969
42.398
38.0634
33.9823
30.1844
26.6879
23.4963
20.6038
17.9995
15.6679
13.588
11.7363
10.0947
8.65296
7.39975
6.30786
5.33366
4.43881
3.61416
2.87915
2.25968
1.76038
1.33659
0.890289
0.319668
-0.520547
67.4668
63.9109
59.6354
55.0962
50.65
46.3673
42.242
38.2911
34.5464
31.0323
27.7612
24.7372
21.9588
19.42
17.1102
15.0158
13.1238
11.4238
9.90324
8.5421
7.31184
6.18583
5.15238
4.21625
3.38628
2.65724
1.99359
1.32809
0.590056
-0.329379
69.1454
65.9293
62.0474
57.8946
53.7868
49.7861
45.8851
42.0984
38.4564
34.9853
31.702
28.6163
25.733
23.053
20.573
18.2866
16.1862
14.2635
12.5082
10.9058
9.43721
8.08365
6.83341
5.68335
4.63237
3.67061
2.77022
1.88516
0.968812
-0.0535018
70.5591
67.6282
64.0813
60.2647
56.4602
52.7227
49.0429
45.4321
41.9177
38.5256
35.2742
32.1761
29.2402
26.4716
23.8722
21.4407
19.1737
17.0662
15.1109
13.2979
11.6142
10.0464
8.58387
7.22003
5.9488
4.75878
3.6282
2.52542
1.42038
0.266996
71.753
69.0631
65.8023
62.2771
58.7414
55.2435
51.7725
48.3363
44.9591
41.6648
38.4719
35.3942
32.4425
29.6248
26.946
24.4086
22.0123
19.7553
17.6332
15.6396
13.7658
12.0023
10.3401
8.77139
7.28829
5.87946
4.52765
3.21055
1.9082
0.596446
72.7629
70.2775
67.2618
63.9892
60.69
57.4073
54.1286
50.859
47.619
44.4306
41.3109
38.2741
35.3316
32.493
29.7652
27.1528
24.6584
22.2822
20.0227
17.876
15.8368
13.8982
12.0527
10.293
8.61084
6.99553
5.43303
3.90663
2.40164
0.909097
73.6173
71.3061
68.5008
65.4472
62.3555
59.2643
56.1604
53.0457
49.938
46.8564
43.8169
40.8329
37.916
35.0762
32.3217
29.6585
27.0908
24.6208
22.2488
19.9735
17.7914
15.6979
13.6872
11.7525
9.88602
8.07803
6.31648
4.58767
2.87886
1.19041
74.3398
72.1771
69.5527
66.6889
63.7787
60.8571
57.9101
54.9375
51.9538
48.976
46.0185
43.0936
40.2125
37.3851
34.62
31.9242
29.3029
26.7598
24.2966
21.9134
19.6088
17.3795
15.2212
13.128
11.0928
9.10654
7.15839
5.23598
3.32662
1.43532
74.9496
72.9137
70.4449
67.7455
64.9935
62.2213
59.4141
56.5699
53.7007
50.8212
47.9441
45.0806
42.2409
39.4348
36.6707
33.9561
31.2968
28.6973
26.1604
23.6875
21.2783
18.9309
16.6419
14.4064
12.2178
10.0679
7.94627
5.84099
3.73843
1.64514
75.4628
73.5351
71.2
68.6426
66.0282
63.3868
60.7033
57.974
55.2089
52.4205
49.62
46.8172
44.0216
41.2422
38.4873
35.7641
33.0788
30.4365
27.8406
25.2934
22.7954
20.3457
17.9419
15.5796
13.2529
10.954
8.67267
6.39691
4.11197
1.82407
75.8933
74.0575
71.837
69.4019
66.9067
64.379
61.804
59.1766
56.5048
53.7995
51.0702
48.3258
45.5744
42.8245
40.0839
37.3595
34.6576
31.9833
29.3407
26.7323
24.1596
21.6221
19.1181
16.6438
14.1938
11.7605
9.33381
6.9014
4.44753
1.97708
76.2522
74.4943
72.3715
70.0411
67.6482
65.2188
62.7381
60.2
57.6108
54.9799
52.3157
49.6255
46.9169
44.1972
41.4738
38.7532
36.0416
33.344
30.6647
28.0065
25.3713
22.7591
20.1685
17.5964
15.0375
12.4843
9.92704
7.35286
4.74536
2.10762
76.5504
74.858
72.8178
70.5764
68.2706
65.9252
63.5254
61.0646
58.5475
55.9822
53.3759
50.7351
48.0662
45.376
42.671
39.9575
37.2411
34.527
31.8192
29.1209
26.4339
23.7588
21.0944
18.4377
15.7839
13.1255
10.4526
7.75232
5.00768
2.21948
76.7941
75.1561
73.1849
71.018
68.7853
66.5107
64.1794
61.7842
59.3288
56.8201
54.2643
51.6671
49.0341
46.3712
43.6844
40.9795
38.2618
35.5362
32.8066
30.0762
27.347
24.6196
21.8931
19.1647
16.4295
13.6803
10.9072
8.0969
5.23243
2.31225
76.9951
75.4012
73.4867
71.3811
69.2086
66.9923
64.7177
62.3771
59.9732
57.5121
54.9992
52.4393
49.8374
47.1989
44.529
41.8331
39.1162
36.3828
33.6369
30.8814
28.1183
25.3484
22.5707
19.7826
16.9794
14.1538
11.2957
8.39195
5.42526
2.39109
77.1502
75.5912
73.7215
71.6645
69.5398
67.3699
65.1406
62.8436
60.4812
58.0585
55.5804
53.0511
50.4749
47.8568
45.2014
42.5139
39.7987
37.0602
34.3022
31.5274
28.738
25.9345
23.1161
20.2801
17.422
14.5342
11.6069
8.62663
5.57627
2.44898
77.2817
75.7484
73.9127
71.8926
69.8041
67.6692
65.4742
63.2104
60.8795
58.4862
56.0348
53.529
50.9729
48.3706
45.7269
43.0462
40.3329
37.5911
34.8243
32.0354
29.2261
26.3972
23.5479
20.6753
17.7749
14.8392
11.8581
8.81809
5.70175
2.49849
77.3626
75.8454
74.032
72.037
69.9728
67.8615
65.6893
63.4478
61.1381
58.7645
56.331
53.8412
51.2985
48.7072
46.0715
43.3956
40.6838
37.94
35.1676
32.3693
29.5469
26.701
23.8309
20.9336
18.0046
15.0362
12.0181
8.93654
5.77404
2.51837
77.4514
75.9354
74.1343
72.1542
70.1038
68.005
65.845
63.6152
61.3165
58.953
56.5285
54.0464
51.5103
48.9239
46.2914
43.6171
40.9051
38.1591
35.3825
32.5781
29.7477
26.8917
24.0094
21.098
18.1528
15.166
12.127
9.02114
5.82838
2.52484
)
;

boundaryField
{
    inlet
    {
        type            zeroGradient;
    }
    outlet
    {
        type            fixedValue;
        value           uniform 0;
    }
    flap
    {
        type            zeroGradient;
    }
    upperWall
    {
        type            zeroGradient;
    }
    lowerWall
    {
        type            zeroGradient;
    }
    frontAndBack
    {
        type            empty;
    }
}


// ************************************************************************* //
