/*--------------------------------*- C++ -*----------------------------------*\
  =========                 |
  \\      /  F ield         | OpenFOAM: The Open Source CFD Toolbox
   \\    /   O peration     | Website:  https://openfoam.org
    \\  /    A nd           | Version:  dev
     \\/     M anipulation  |
\*---------------------------------------------------------------------------*/
FoamFile
{
    version     2.0;
    format      ascii;
    class       volVectorField;
    location    "5.6";
    object      U;
}
// * * * * * * * * * * * * * * * * * * * * * * * * * * * * * * * * * * * * * //

dimensions      [0 1 -1 0 0 0 0];

internalField   nonuniform List<vector> 
2790
(
(9.94399 0 0.0205231)
(9.87572 0 0.0295876)
(9.77521 0 0.0359893)
(9.64944 0 0.042556)
(9.50409 0 0.0493853)
(9.34007 0 0.0564282)
(9.15655 0 0.0638158)
(8.95263 0 0.0717116)
(8.72747 0 0.0802553)
(8.48009 0 0.0895738)
(8.20928 0 0.099794)
(7.91366 0 0.111046)
(7.59169 0 0.123462)
(7.24179 0 0.137167)
(6.86233 0 0.152275)
(6.4518 0 0.168874)
(6.00888 0 0.187001)
(5.53268 0 0.206624)
(5.02296 0 0.227596)
(4.48044 0 0.249617)
(3.90714 0 0.272182)
(3.30682 0 0.294531)
(2.68527 0 0.315625)
(2.05061 0 0.334293)
(1.41178 0 0.35061)
(0.798025 0 0.372888)
(0.110692 0 0.325053)
(-0.469562 0 -0.114864)
(-0.453779 0 -0.29715)
(-0.231163 0 -0.423857)
(9.9985 0 0.0407028)
(9.98145 0 0.0623825)
(9.93575 0 0.0791397)
(9.86417 0 0.0966242)
(9.77098 0 0.115123)
(9.65716 0 0.134487)
(9.52206 0 0.154974)
(9.36486 0 0.176943)
(9.18472 0 0.200707)
(8.98068 0 0.22655)
(8.75154 0 0.254745)
(8.4959 0 0.285562)
(8.21221 0 0.319252)
(7.89883 0 0.356027)
(7.55405 0 0.396025)
(7.1762 0 0.43927)
(6.76379 0 0.485601)
(6.31566 0 0.534596)
(5.83125 0 0.585472)
(5.31088 0 0.636964)
(4.75615 0 0.687214)
(4.17041 0 0.733656)
(3.55929 0 0.772961)
(2.93155 0 0.8011)
(2.29995 0 0.813755)
(1.69295 0 0.807258)
(1.10715 0 0.747254)
(0.658895 0 0.547931)
(0.186445 0 0.224613)
(-0.00819875 0 -0.453731)
(9.99559 0 0.0432067)
(9.97556 0 0.0752711)
(9.9318 0 0.103345)
(9.8649 0 0.13237)
(9.77778 0 0.163058)
(9.67155 0 0.195397)
(9.54588 0 0.229741)
(9.40014 0 0.266602)
(9.23366 0 0.306469)
(9.04565 0 0.349807)
(8.8351 0 0.397072)
(8.60082 0 0.448723)
(8.34146 0 0.505195)
(8.05551 0 0.566867)
(7.74139 0 0.634016)
(7.39745 0 0.706737)
(7.02211 0 0.784845)
(6.61396 0 0.867733)
(6.17194 0 0.954204)
(5.69564 0 1.04226)
(5.18563 0 1.12889)
(4.64396 0 1.2098)
(4.07479 0 1.27917)
(3.48537 0 1.32934)
(2.88685 0 1.3501)
(2.29947 0 1.32643)
(1.73185 0 1.22078)
(1.21626 0 0.973011)
(0.701145 0 0.570152)
(0.358041 0 -0.156555)
(9.99403 0 0.0494988)
(9.97181 0 0.0932055)
(9.92788 0 0.133571)
(9.86225 0 0.174208)
(9.77694 0 0.216432)
(9.67299 0 0.260659)
(9.55032 0 0.307428)
(9.4085 0 0.357414)
(9.24703 0 0.41129)
(9.06534 0 0.469705)
(8.86269 0 0.533302)
(8.6382 0 0.602724)
(8.39086 0 0.678594)
(8.11953 0 0.761478)
(7.82301 0 0.851825)
(7.50002 0 0.94988)
(7.14925 0 1.05555)
(6.76945 0 1.16825)
(6.3595 0 1.28661)
(5.9186 0 1.40827)
(5.44653 0 1.52948)
(4.944 0 1.64469)
(4.41317 0 1.74615)
(3.85827 0 1.82323)
(3.28582 0 1.86137)
(2.7064 0 1.84033)
(2.12565 0 1.72601)
(1.55426 0 1.47787)
(0.95795 0 1.0837)
(0.509425 0 0.50233)
(9.99331 0 0.0572131)
(9.96994 0 0.110958)
(9.92593 0 0.162103)
(9.86146 0 0.213346)
(9.77799 0 0.266355)
(9.67635 0 0.321912)
(9.55654 0 0.3807)
(9.41822 0 0.443486)
(9.26098 0 0.511054)
(9.08434 0 0.584169)
(8.88771 0 0.663587)
(8.67039 0 0.750063)
(8.4316 0 0.844336)
(8.17047 0 0.947086)
(7.88608 0 1.05888)
(7.57749 0 1.18008)
(7.24367 0 1.31069)
(6.88361 0 1.45019)
(6.49629 0 1.59723)
(6.08073 0 1.74933)
(5.63616 0 1.90242)
(5.16212 0 2.05032)
(4.65877 0 2.18418)
(4.12721 0 2.29175)
(3.5694 0 2.35657)
(2.98889 0 2.35733)
(2.38683 0 2.26496)
(1.76639 0 2.04765)
(1.08999 0 1.69141)
(0.536651 0 1.15415)
(9.99302 0 0.065538)
(9.96923 0 0.1287)
(9.92556 0 0.190112)
(9.86253 0 0.251841)
(9.78129 0 0.315576)
(9.68245 0 0.382316)
(9.56601 0 0.452872)
(9.43172 0 0.528099)
(9.27921 0 0.608878)
(9.10807 0 0.696082)
(8.91778 0 0.790578)
(8.70775 0 0.893224)
(8.47729 0 1.00486)
(8.22568 0 1.12626)
(7.95216 0 1.25809)
(7.65589 0 1.40082)
(7.33604 0 1.55455)
(6.99164 0 1.71887)
(6.62169 0 1.89256)
(6.22501 0 2.07323)
(5.80028 0 2.25686)
(5.34604 0 2.43721)
(4.8607 0 2.6052)
(4.34269 0 2.74823)
(3.79039 0 2.84955)
(3.20257 0 2.8882)
(2.57656 0 2.83823)
(1.91346 0 2.67162)
(1.17274 0 2.374)
(0.549965 0 1.8944)
(9.99297 0 0.0740741)
(9.96927 0 0.146312)
(9.92637 0 0.217481)
(9.86509 0 0.289289)
(9.78643 0 0.363352)
(9.69085 0 0.440824)
(9.57835 0 0.522657)
(9.44872 0 0.609808)
(9.30166 0 0.703252)
(9.13679 0 0.803962)
(8.95365 0 0.912898)
(8.75171 0 1.03101)
(8.53035 0 1.15922)
(8.28888 0 1.2984)
(8.0266 0 1.4493)
(7.7427 0 1.61248)
(7.4363 0 1.78819)
(7.10641 0 1.97617)
(6.75181 0 2.17541)
(6.37101 0 2.38383)
(5.9621 0 2.59775)
(5.52263 0 2.81139)
(5.04952 0 3.01616)
(4.539 0 3.19997)
(3.98665 0 3.34668)
(3.3879 0 3.43597)
(2.73724 0 3.44331)
(2.03623 0 3.34149)
(1.24174 0 3.11357)
(0.563509 0 2.69315)
(9.99306 0 0.0825871)
(9.96981 0 0.163604)
(9.92807 0 0.244048)
(9.86885 0 0.325477)
(9.79313 0 0.409443)
(9.70126 0 0.497203)
(9.59324 0 0.589835)
(9.46889 0 0.688392)
(9.32797 0 0.793936)
(9.17015 0 0.907526)
(8.99503 0 1.03021)
(8.80211 0 1.16303)
(8.59082 0 1.30701)
(8.36052 0 1.46309)
(8.11046 0 1.63215)
(7.83981 0 1.81487)
(7.54762 0 2.01167)
(7.23268 0 2.22252)
(6.89351 0 2.44674)
(6.52817 0 2.6827)
(6.13409 0 2.92736)
(5.70785 0 3.17578)
(5.24496 0 3.42037)
(4.73977 0 3.65021)
(4.18546 0 3.85024)
(3.57474 0 4.00089)
(2.89949 0 4.0779)
(2.16209 0 4.05238)
(1.3161 0 3.90169)
(0.583211 0 3.54014)
(9.99326 0 0.0909273)
(9.97072 0 0.180407)
(9.93046 0 0.269665)
(9.87362 0 0.360238)
(9.80118 0 0.453643)
(9.71344 0 0.551205)
(9.61038 0 0.654107)
(9.49189 0 0.763491)
(9.35777 0 0.8805)
(9.20774 0 1.00628)
(9.04146 0 1.14195)
(8.85849 0 1.28866)
(8.65828 0 1.44752)
(8.44023 0 1.61959)
(8.20358 0 1.80587)
(7.94747 0 2.00721)
(7.67079 0 2.22425)
(7.37217 0 2.45728)
(7.0498 0 2.70606)
(6.70127 0 2.96958)
(6.32335 0 3.24567)
(5.91164 0 3.53055)
(5.46035 0 3.81808)
(4.96199 0 4.099)
(4.40738 0 4.35987)
(3.78637 0 4.5821)
(3.08753 0 4.74107)
(2.31267 0 4.80445)
(1.41061 0 4.74106)
(0.614293 0 4.4419)
(9.99352 0 0.098991)
(9.97191 0 0.196577)
(9.9334 0 0.294192)
(9.87924 0 0.393413)
(9.8104 0 0.495751)
(9.72717 0 0.602583)
(9.62954 0 0.715177)
(9.51742 0 0.834756)
(9.39069 0 0.962538)
(9.24914 0 1.09974)
(9.09246 0 1.24759)
(8.92029 0 1.40729)
(8.73214 0 1.58006)
(8.52743 0 1.7671)
(8.30545 0 1.96956)
(8.06527 0 2.18848)
(7.80574 0 2.4248)
(7.52531 0 2.67918)
(7.22192 0 2.95193)
(6.89277 0 3.24284)
(6.53403 0 3.55081)
(6.14046 0 3.87351)
(5.70503 0 4.20672)
(5.21845 0 4.5434)
(4.66895 0 4.87245)
(4.04281 0 5.17697)
(3.32363 0 5.4323)
(2.5097 0 5.60194)
(1.54182 0 5.64346)
(0.664031 0 5.41799)
(9.99384 0 0.106703)
(9.9733 0 0.211997)
(9.9368 0 0.317498)
(9.88558 0 0.424851)
(9.82064 0 0.535583)
(9.74226 0 0.651114)
(9.65045 0 0.772781)
(9.54519 0 0.901878)
(9.42639 0 1.03969)
(9.29391 0 1.18751)
(9.14754 0 1.34663)
(8.98695 0 1.51835)
(8.81176 0 1.70399)
(8.62144 0 1.90487)
(8.41533 0 2.12231)
(8.19254 0 2.3576)
(7.95189 0 2.61197)
(7.69179 0 2.88655)
(7.41005 0 3.1823)
(7.10364 0 3.49988)
(6.76834 0 3.8395)
(6.39832 0 4.20057)
(5.98553 0 4.58121)
(5.51904 0 4.97736)
(4.98432 0 5.38134)
(4.36318 0 5.77957)
(3.6318 0 6.14913)
(2.78002 0 6.45063)
(1.73336 0 6.62844)
(0.744788 0 6.503)
(9.9942 0 0.114004)
(9.97487 0 0.226572)
(9.94056 0 0.339469)
(9.89252 0 0.454418)
(9.83174 0 0.572977)
(9.75851 0 0.696602)
(9.67289 0 0.826686)
(9.57489 0 0.964585)
(9.46449 0 1.11164)
(9.34163 0 1.26921)
(9.20617 0 1.43864)
(9.05788 0 1.62133)
(8.89646 0 1.81868)
(8.72149 0 2.03216)
(8.53239 0 2.26323)
(8.32838 0 2.51344)
(8.10836 0 2.78435)
(7.87082 0 3.07757)
(7.61361 0 3.39474)
(7.33373 0 3.73751)
(7.02691 0 4.10748)
(6.68712 0 4.50606)
(6.30584 0 4.93415)
(5.87102 0 5.39149)
(5.36568 0 5.8754)
(4.76677 0 6.37827)
(4.04055 0 6.88322)
(3.16129 0 7.35346)
(2.0246 0 7.7231)
(0.880652 0 7.75693)
(9.99459 0 0.120852)
(9.97657 0 0.240221)
(9.94461 0 0.360003)
(9.89996 0 0.481994)
(9.84356 0 0.607788)
(9.77576 0 0.738874)
(9.69663 0 0.876688)
(9.60624 0 1.02264)
(9.50465 0 1.17811)
(9.39186 0 1.3445)
(9.26783 0 1.52324)
(9.13244 0 1.71577)
(8.98549 0 1.9236)
(8.8267 0 2.14829)
(8.65565 0 2.39148)
(8.47169 0 2.65493)
(8.27394 0 2.94054)
(8.06109 0 3.25036)
(7.83127 0 3.58671)
(7.58178 0 3.95221)
(7.30877 0 4.34988)
(7.00661 0 4.78321)
(6.66715 0 5.25616)
(6.27837 0 5.77302)
(5.82231 0 6.33776)
(5.27229 0 6.95247)
(4.58428 0 7.61366)
(3.70968 0 8.30088)
(2.48792 0 8.95808)
(1.12432 0 9.29294)
(9.99501 0 0.127209)
(9.97838 0 0.252881)
(9.94891 0 0.379016)
(9.9078 0 0.50748)
(9.85599 0 0.6399)
(9.79382 0 0.777792)
(9.72143 0 0.922628)
(9.63894 0 1.07585)
(9.54648 0 1.23888)
(9.44414 0 1.41316)
(9.33197 0 1.60015)
(9.20996 0 1.80135)
(9.07807 0 2.01833)
(8.93616 0 2.25275)
(8.784 0 2.50638)
(8.62118 0 2.78118)
(8.4471 0 3.0793)
(8.26082 0 3.40321)
(8.06095 0 3.7558)
(7.84544 0 4.14054)
(7.61128 0 4.56173)
(7.35402 0 5.02478)
(7.06705 0 5.53662)
(6.74027 0 6.10625)
(6.35772 0 6.74537)
(5.8938 0 7.46904)
(5.30042 0 8.2964)
(4.50842 0 9.24797)
(3.26835 0 10.3417)
(1.6047 0 11.3586)
(9.99545 0 0.133049)
(9.98026 0 0.2645)
(9.95339 0 0.396436)
(9.91596 0 0.530781)
(9.86888 0 0.66919)
(9.81253 0 0.813202)
(9.74708 0 0.96431)
(9.67272 0 1.12398)
(9.58964 0 1.29367)
(9.49803 0 1.47483)
(9.39804 0 1.66894)
(9.28979 0 1.87756)
(9.17339 0 2.10228)
(9.04888 0 2.34484)
(8.91626 0 2.60709)
(8.77541 0 2.89112)
(8.62608 0 3.19928)
(8.46784 0 3.53433)
(8.29995 0 3.89958)
(8.12128 0 4.29911)
(7.93011 0 4.73816)
(7.72389 0 5.22356)
(7.49878 0 5.76453)
(7.24889 0 6.3739)
(6.9647 0 7.0701)
(6.6307 0 7.88096)
(6.21405 0 8.85188)
(5.66533 0 10.0658)
(4.68949 0 11.7308)
(2.68686 0 14.5912)
(0.114839 0 -0.113506)
(0.269994 0 -0.102619)
(0.426487 0 -0.0798648)
(0.555781 0 -0.0584533)
(0.653927 0 -0.0411136)
(0.726103 0 -0.0277659)
(0.778574 0 -0.0177497)
(0.816422 0 -0.0104111)
(0.843481 0 -0.00518649)
(0.862717 0 -0.00159484)
(0.876459 0 0.000760624)
(0.886521 0 0.00219249)
(0.894301 0 0.00294388)
(0.900861 0 0.00320873)
(0.906989 0 0.00314932)
(0.913217 0 0.00290927)
(0.919807 0 0.00262263)
(0.926737 0 0.00241809)
(0.933694 0 0.00241219)
(0.940113 0 0.00268843)
(0.945274 0 0.00326839)
(0.948471 0 0.00408057)
(0.949211 0 0.00492107)
(0.947603 0 0.00556834)
(0.943546 0 0.00606213)
(0.937223 0 0.00643409)
(0.928844 0 0.00670644)
(0.918508 0 0.00688509)
(0.90645 0 0.00678346)
(0.891767 0 0.00530038)
(0.0999211 0 -0.269559)
(0.252359 0 -0.250633)
(0.399437 0 -0.201453)
(0.523656 0 -0.154144)
(0.622309 0 -0.115646)
(0.700135 0 -0.0859111)
(0.762394 0 -0.0634726)
(0.813169 0 -0.046871)
(0.855465 0 -0.0348556)
(0.891552 0 -0.0263587)
(0.923163 0 -0.0205034)
(0.951595 0 -0.01661)
(0.977815 0 -0.0141621)
(1.00254 0 -0.0127606)
(1.02631 0 -0.0120808)
(1.04952 0 -0.011838)
(1.07241 0 -0.011765)
(1.09514 0 -0.0116048)
(1.11767 0 -0.0111261)
(1.13987 0 -0.010162)
(1.16148 0 -0.00865852)
(1.18216 0 -0.00671037)
(1.20155 0 -0.00455461)
(1.21903 0 -0.00242055)
(1.23458 0 -0.000404811)
(1.24823 0 0.0014613)
(1.26012 0 0.0032833)
(1.26986 0 0.00502434)
(1.27714 0 0.00622289)
(1.28374 0 0.00539361)
(0.0801304 0 -0.42792)
(0.212469 0 -0.396492)
(0.330191 0 -0.320592)
(0.42897 0 -0.248376)
(0.506697 0 -0.190087)
(0.568258 0 -0.145203)
(0.618005 0 -0.111313)
(0.659051 0 -0.086134)
(0.693665 0 -0.0677667)
(0.7236 0 -0.0545992)
(0.750167 0 -0.0453051)
(0.774308 0 -0.0388657)
(0.796702 0 -0.0345198)
(0.817851 0 -0.0316957)
(0.838129 0 -0.0299424)
(0.857816 0 -0.0288738)
(0.877115 0 -0.0281318)
(0.89615 0 -0.0273756)
(0.914957 0 -0.026302)
(0.933481 0 -0.0246929)
(0.951585 0 -0.0224723)
(0.969087 0 -0.0197331)
(0.985825 0 -0.0166708)
(1.00171 0 -0.0135061)
(1.01673 0 -0.0105181)
(1.03101 0 -0.0078185)
(1.04474 0 -0.00522916)
(1.0585 0 -0.00266291)
(1.07212 0 -0.000438436)
(1.0867 0 0.00101955)
(0.0605841 0 -0.55466)
(0.166985 0 -0.505627)
(0.248504 0 -0.405311)
(0.317242 0 -0.313046)
(0.369076 0 -0.240045)
(0.409758 0 -0.184416)
(0.44247 0 -0.142624)
(0.46916 0 -0.111603)
(0.491232 0 -0.0889723)
(0.509932 0 -0.0726839)
(0.526148 0 -0.0610873)
(0.540443 0 -0.0529272)
(0.553211 0 -0.047273)
(0.564742 0 -0.0434416)
(0.575268 0 -0.040905)
(0.58499 0 -0.0392181)
(0.594081 0 -0.0379734)
(0.602694 0 -0.0367829)
(0.61094 0 -0.0352941)
(0.618871 0 -0.0332423)
(0.626462 0 -0.0305212)
(0.633633 0 -0.0272301)
(0.640286 0 -0.0236073)
(0.646329 0 -0.0199239)
(0.651711 0 -0.0165276)
(0.656456 0 -0.0136305)
(0.660822 0 -0.0110108)
(0.66508 0 -0.00861416)
(0.66889 0 -0.00683765)
(0.674042 0 -0.00434195)
(0.0401357 0 -0.651093)
(0.115219 0 -0.579883)
(0.155074 0 -0.458261)
(0.191888 0 -0.351655)
(0.214944 0 -0.269085)
(0.232049 0 -0.206838)
(0.24469 0 -0.160196)
(0.253668 0 -0.125441)
(0.259535 0 -0.100104)
(0.263196 0 -0.0817348)
(0.265133 0 -0.068436)
(0.265626 0 -0.0588524)
(0.264846 0 -0.051979)
(0.262926 0 -0.0471039)
(0.260009 0 -0.043687)
(0.256258 0 -0.0412817)
(0.251871 0 -0.0394848)
(0.247088 0 -0.037901)
(0.242145 0 -0.0361413)
(0.237196 0 -0.0338742)
(0.232273 0 -0.0309161)
(0.227308 0 -0.0273348)
(0.222107 0 -0.0234113)
(0.216428 0 -0.0194261)
(0.210148 0 -0.0157578)
(0.202776 0 -0.0129713)
(0.194291 0 -0.0107396)
(0.186185 0 -0.00739139)
(0.175928 0 -0.00304045)
(0.157823 0 0.000231674)
(0.0181338 0 -0.711816)
(0.0564529 0 -0.614912)
(0.0509362 0 -0.475576)
(0.0544817 0 -0.3602)
(0.0464006 0 -0.27209)
(0.0372346 0 -0.206426)
(0.0263735 0 -0.157323)
(0.0139171 0 -0.120464)
(-3.1779e-05 0 -0.0933814)
(-0.0148283 0 -0.0742721)
(-0.0304059 0 -0.0605258)
(-0.046467 0 -0.0505918)
(-0.0628713 0 -0.0434069)
(-0.0795286 0 -0.0383143)
(-0.0963069 0 -0.0348215)
(-0.113034 0 -0.0325113)
(-0.129493 0 -0.0309758)
(-0.14546 0 -0.0297617)
(-0.160819 0 -0.0283938)
(-0.175647 0 -0.0264583)
(-0.190208 0 -0.023727)
(-0.20482 0 -0.0203298)
(-0.219755 0 -0.0167005)
(-0.235102 0 -0.0129028)
(-0.250687 0 -0.00858847)
(-0.267353 0 -0.00404138)
(-0.288266 0 -0.000102806)
(-0.308024 0 0.00339875)
(-0.321162 0 0.0058875)
(-0.327614 0 0.00528014)
(-0.00711195 0 -0.729566)
(-0.0113587 0 -0.60465)
(-0.0628807 0 -0.453598)
(-0.0962303 0 -0.336063)
(-0.137089 0 -0.247445)
(-0.17594 0 -0.182644)
(-0.21331 0 -0.134796)
(-0.248943 0 -0.0992468)
(-0.283069 0 -0.0733011)
(-0.315764 0 -0.0549742)
(-0.346846 0 -0.0421966)
(-0.376106 0 -0.0332957)
(-0.403496 0 -0.0270262)
(-0.429237 0 -0.0228257)
(-0.453569 0 -0.0202326)
(-0.476733 0 -0.0188317)
(-0.498915 0 -0.0182108)
(-0.520245 0 -0.0178829)
(-0.540869 0 -0.0172753)
(-0.561043 0 -0.015804)
(-0.581133 0 -0.0130663)
(-0.601548 0 -0.00912333)
(-0.622886 0 -0.00467212)
(-0.645415 0 -0.000624399)
(-0.66583 0 0.00278262)
(-0.681913 0 0.0057459)
(-0.693307 0 0.00780994)
(-0.703698 0 0.00884214)
(-0.71266 0 0.00894243)
(-0.717852 0 0.00800856)
(-0.0389915 0 -0.695543)
(-0.0905142 0 -0.547429)
(-0.186931 0 -0.395846)
(-0.261623 0 -0.281605)
(-0.336495 0 -0.197382)
(-0.405348 0 -0.13765)
(-0.467258 0 -0.0951032)
(-0.522038 0 -0.0639856)
(-0.570721 0 -0.0413222)
(-0.61466 0 -0.0255341)
(-0.654891 0 -0.0150136)
(-0.692608 0 -0.00845682)
(-0.726249 0 -0.0048822)
(-0.756441 0 -0.00307695)
(-0.784087 0 -0.00232662)
(-0.810006 0 -0.00223475)
(-0.834837 0 -0.00247458)
(-0.859034 0 -0.00263613)
(-0.882924 0 -0.00224186)
(-0.906653 0 -0.000933979)
(-0.929945 0 0.0013612)
(-0.951913 0 0.00437181)
(-0.971252 0 0.00740049)
(-0.987193 0 0.00957293)
(-1.00119 0 0.0107884)
(-1.01332 0 0.0116645)
(-1.02369 0 0.0126209)
(-1.03281 0 0.0133552)
(-1.04042 0 0.0131476)
(-1.04449 0 0.0121436)
(-0.0789881 0 -0.605251)
(-0.181413 0 -0.440368)
(-0.329833 0 -0.295711)
(-0.449748 0 -0.192078)
(-0.560321 0 -0.118368)
(-0.659731 0 -0.0669756)
(-0.747981 0 -0.0324982)
(-0.824323 0 -0.0102941)
(-0.885477 0 0.00315395)
(-0.935088 0 0.0113819)
(-0.975722 0 0.0160465)
(-1.00948 0 0.018041)
(-1.0397 0 0.018302)
(-1.06746 0 0.0177055)
(-1.09341 0 0.0167176)
(-1.11794 0 0.0154913)
(-1.14109 0 0.0140992)
(-1.16269 0 0.012779)
(-1.1826 0 0.0119686)
(-1.20103 0 0.0120608)
(-1.2185 0 0.0131216)
(-1.23551 0 0.0148039)
(-1.25208 0 0.016485)
(-1.26762 0 0.0175623)
(-1.28137 0 0.017788)
(-1.29291 0 0.0174971)
(-1.30245 0 0.0172736)
(-1.31065 0 0.0171511)
(-1.31732 0 0.0166394)
(-1.32065 0 0.015824)
(-0.132978 0 -0.453432)
(-0.296258 0 -0.280688)
(-0.506842 0 -0.151962)
(-0.680393 0 -0.0624986)
(-0.824256 0 -0.00665733)
(-0.934497 0 0.0228515)
(-1.01927 0 0.0374587)
(-1.08485 0 0.0433032)
(-1.13936 0 0.0450307)
(-1.18505 0 0.0447131)
(-1.22412 0 0.0433179)
(-1.2581 0 0.0412301)
(-1.28807 0 0.038688)
(-1.31494 0 0.0359519)
(-1.33959 0 0.0332788)
(-1.36265 0 0.0306326)
(-1.38432 0 0.0278645)
(-1.40443 0 0.0251341)
(-1.42294 0 0.0230459)
(-1.44018 0 0.0222776)
(-1.4568 0 0.022984)
(-1.47335 0 0.0245278)
(-1.4898 0 0.0258066)
(-1.50539 0 0.0259343)
(-1.51902 0 0.0247655)
(-1.53006 0 0.0229876)
(-1.5388 0 0.021516)
(-1.54611 0 0.0206174)
(-1.552 0 0.0199006)
(-1.55478 0 0.0192901)
(-0.211514 0 -0.249861)
(-0.453485 0 -0.0477212)
(-0.704332 0 0.0549623)
(-0.885396 0 0.0932412)
(-1.02424 0 0.104248)
(-1.13419 0 0.104687)
(-1.22125 0 0.100074)
(-1.29088 0 0.0932888)
(-1.34716 0 0.0857084)
(-1.39342 0 0.0783151)
(-1.43245 0 0.071563)
(-1.46611 0 0.065284)
(-1.49551 0 0.0593724)
(-1.52161 0 0.0540804)
(-1.54549 0 0.0496285)
(-1.56798 0 0.0457153)
(-1.58924 0 0.0417763)
(-1.60886 0 0.0377291)
(-1.62655 0 0.0343078)
(-1.64268 0 0.0325281)
(-1.6583 0 0.0327329)
(-1.67429 0 0.0341052)
(-1.69072 0 0.0350781)
(-1.70654 0 0.0343201)
(-1.7202 0 0.0316328)
(-1.73075 0 0.0281165)
(-1.73857 0 0.0252553)
(-1.74491 0 0.0236465)
(-1.75 0 0.0228534)
(-1.75234 0 0.0224661)
(-0.2988 0 0.151124)
(-0.573011 0 0.249836)
(-0.849261 0 0.260981)
(-1.04951 0 0.245561)
(-1.20223 0 0.220323)
(-1.31813 0 0.193054)
(-1.40685 0 0.167752)
(-1.47602 0 0.145614)
(-1.53075 0 0.126667)
(-1.57504 0 0.111226)
(-1.61227 0 0.0990022)
(-1.64453 0 0.088739)
(-1.67267 0 0.079535)
(-1.69742 0 0.0716377)
(-1.72004 0 0.0654726)
(-1.74173 0 0.0604726)
(-1.76257 0 0.0554226)
(-1.78166 0 0.0498578)
(-1.79825 0 0.0447944)
(-1.81281 0 0.0418931)
(-1.82694 0 0.0418262)
(-1.84218 0 0.0434517)
(-1.85872 0 0.0444742)
(-1.87509 0 0.042923)
(-1.88901 0 0.038493)
(-1.89903 0 0.0328648)
(-1.90569 0 0.0284027)
(-1.91077 0 0.0261624)
(-1.91496 0 0.0254527)
(-1.9169 0 0.025304)
(-0.357374 0 0.563698)
(-0.697199 0 0.582913)
(-1.02109 0 0.499386)
(-1.23599 0 0.414014)
(-1.3896 0 0.341757)
(-1.5007 0 0.280668)
(-1.58294 0 0.232497)
(-1.64605 0 0.195082)
(-1.69528 0 0.164969)
(-1.73447 0 0.141651)
(-1.76769 0 0.124555)
(-1.79733 0 0.110893)
(-1.82343 0 0.0984367)
(-1.84596 0 0.0877182)
(-1.86649 0 0.0799686)
(-1.88691 0 0.074399)
(-1.90734 0 0.0686339)
(-1.92596 0 0.0614398)
(-1.94115 0 0.0542848)
(-1.95345 0 0.050008)
(-1.96545 0 0.049951)
(-1.97967 0 0.0524752)
(-1.99655 0 0.054126)
(-2.01398 0 0.0519543)
(-2.02854 0 0.0454525)
(-2.03797 0 0.0371369)
(-2.04299 0 0.0307411)
(-2.04637 0 0.0280084)
(-2.04949 0 0.0276626)
(-2.05105 0 0.0278036)
(-0.476152 0 1.07836)
(-0.90743 0 0.986127)
(-1.26462 0 0.759483)
(-1.46253 0 0.576307)
(-1.59459 0 0.453172)
(-1.68695 0 0.355479)
(-1.75203 0 0.286244)
(-1.80247 0 0.23801)
(-1.84231 0 0.198626)
(-1.87316 0 0.167369)
(-1.9 0 0.146304)
(-1.9261 0 0.130709)
(-1.9498 0 0.115528)
(-1.96922 0 0.101909)
(-1.98641 0 0.093018)
(-2.00495 0 0.0880117)
(-2.02521 0 0.0823229)
(-2.04378 0 0.0732338)
(-2.05737 0 0.0630063)
(-2.06649 0 0.0566839)
(-2.07537 0 0.0569233)
(-2.08821 0 0.0612595)
(-2.10584 0 0.0643591)
(-2.12512 0 0.0617977)
(-2.14089 0 0.0527111)
(-2.1496 0 0.0407929)
(-2.15224 0 0.0319061)
(-2.15319 0 0.02892)
(-2.15505 0 0.0294563)
(-2.1563 0 0.0300069)
(-0.707751 0 2.07805)
(-1.24241 0 1.65141)
(-1.62145 0 1.0513)
(-1.74684 0 0.662219)
(-1.81931 0 0.526636)
(-1.87648 0 0.41297)
(-1.90983 0 0.332375)
(-1.94166 0 0.278228)
(-1.9717 0 0.226132)
(-1.99188 0 0.182675)
(-2.00893 0 0.160867)
(-2.03053 0 0.149006)
(-2.0522 0 0.133015)
(-2.06772 0 0.115229)
(-2.07988 0 0.104116)
(-2.09582 0 0.100433)
(-2.11682 0 0.0954814)
(-2.13655 0 0.0838022)
(-2.14847 0 0.0689198)
(-2.15293 0 0.059706)
(-2.15703 0 0.0611053)
(-2.1679 0 0.0691208)
(-2.18687 0 0.0751957)
(-2.20917 0 0.0727644)
(-2.22703 0 0.060447)
(-2.23483 0 0.043564)
(-2.23389 0 0.0312746)
(-2.23126 0 0.0284586)
(-2.23161 0 0.0308559)
(-2.23274 0 0.0320917)
(9.9959 0 0.138443)
(9.98225 0 0.275234)
(9.95811 0 0.412518)
(9.92454 0 0.552264)
(9.88242 0 0.69615)
(9.83217 0 0.845728)
(9.77399 0 1.0025)
(9.70816 0 1.16795)
(9.63493 0 1.34354)
(9.55459 0 1.53073)
(9.46741 0 1.73101)
(9.37365 0 1.94594)
(9.27357 0 2.17713)
(9.16744 0 2.42634)
(9.05551 0 2.69548)
(8.93798 0 2.98668)
(8.81506 0 3.30239)
(8.68688 0 3.64551)
(8.55351 0 4.01955)
(8.41495 0 4.4289)
(8.27113 0 4.87918)
(8.12193 0 5.37786)
(7.96729 0 5.93512)
(7.80748 0 6.56532)
(7.64369 0 7.28951)
(7.4809 0 8.1403)
(7.33233 0 9.17165)
(7.28799 0 10.4771)
(7.74559 0 12.2014)
(7.92621 0 14.9199)
(9.99638 0 0.143403)
(9.98434 0 0.285088)
(9.96305 0 0.427246)
(9.93352 0 0.571874)
(9.89657 0 0.720664)
(9.85262 0 0.875175)
(9.80197 0 1.03691)
(9.74493 0 1.20736)
(9.68185 0 1.38796)
(9.6131 0 1.58018)
(9.53908 0 1.7855)
(9.4602 0 2.00544)
(9.37689 0 2.24162)
(9.28965 0 2.49576)
(9.19898 0 2.76975)
(9.10547 0 3.06571)
(9.00977 0 3.38606)
(8.91263 0 3.73366)
(8.81496 0 4.11194)
(8.71794 0 4.52518)
(8.62317 0 4.97879)
(8.53303 0 5.47981)
(8.45122 0 6.03756)
(8.384 0 6.66463)
(8.34255 0 7.37824)
(8.34891 0 8.20181)
(8.44191 0 9.1655)
(8.67743 0 10.3026)
(9.32422 0 11.5579)
(9.814 0 12.6473)
(9.99688 0 0.14784)
(9.98651 0 0.2939)
(9.96819 0 0.440396)
(9.94283 0 0.589343)
(9.91121 0 0.742437)
(9.87377 0 0.901228)
(9.83086 0 1.06721)
(9.78283 0 1.24185)
(9.73014 0 1.42658)
(9.67323 0 1.62282)
(9.61263 0 1.83201)
(9.54889 0 2.05564)
(9.48262 0 2.29527)
(9.41453 0 2.55256)
(9.34541 0 2.82929)
(9.27618 0 3.12749)
(9.20795 0 3.44941)
(9.14204 0 3.79769)
(9.08015 0 4.17546)
(9.02449 0 4.58648)
(8.97808 0 5.03534)
(8.9452 0 5.52772)
(8.93213 0 6.07061)
(8.94839 0 6.67241)
(9.00848 0 7.34257)
(9.13453 0 8.08973)
(9.35755 0 8.91579)
(9.68705 0 9.80968)
(10.2529 0 10.7201)
(10.9408 0 11.4371)
(9.9974 0 0.151701)
(9.98874 0 0.301561)
(9.97347 0 0.451802)
(9.95239 0 0.604442)
(9.92623 0 0.761167)
(9.89544 0 0.923512)
(9.86041 0 1.09295)
(9.82157 0 1.27091)
(9.77942 0 1.45878)
(9.73452 0 1.65794)
(9.68747 0 1.86977)
(9.63898 0 2.09569)
(9.58983 0 2.33715)
(9.54092 0 2.59569)
(9.49329 0 2.87297)
(9.44818 0 3.17079)
(9.40707 0 3.49115)
(9.3718 0 3.83632)
(9.34465 0 4.20888)
(9.32861 0 4.6118)
(9.3276 0 5.04848)
(9.34692 0 5.52278)
(9.39382 0 6.03881)
(9.47821 0 6.60055)
(9.61329 0 7.21077)
(9.8159 0 7.86915)
(10.1088 0 8.56861)
(10.5007 0 9.2945)
(11.0585 0 10.0367)
(11.8521 0 10.682)
(9.99792 0 0.154941)
(9.99101 0 0.30798)
(9.97884 0 0.461329)
(9.96212 0 0.616992)
(9.9415 0 0.776636)
(9.91745 0 0.941766)
(9.89039 0 1.11382)
(9.86081 0 1.29417)
(9.82927 0 1.48417)
(9.7964 0 1.68511)
(9.76292 0 1.8983)
(9.72962 0 2.12505)
(9.69745 0 2.36668)
(9.66747 0 2.62457)
(9.64094 0 2.90018)
(9.61934 0 3.19503)
(9.60445 0 3.51079)
(9.59845 0 3.84923)
(9.60403 0 4.21226)
(9.62459 0 4.60195)
(9.66443 0 5.02038)
(9.72909 0 5.46958)
(9.82564 0 5.95116)
(9.96305 0 6.46582)
(10.1524 0 7.01248)
(10.4067 0 7.58727)
(10.7434 0 8.18207)
(11.1739 0 8.78218)
(11.7215 0 9.37603)
(12.4751 0 9.88871)
(9.99845 0 0.157514)
(9.9933 0 0.31307)
(9.98427 0 0.46885)
(9.97194 0 0.626829)
(9.95689 0 0.788641)
(9.93961 0 0.95575)
(9.92054 0 1.12954)
(9.90021 0 1.31134)
(9.87923 0 1.50241)
(9.85831 0 1.70398)
(9.83823 0 1.91723)
(9.8199 0 2.14334)
(9.80436 0 2.38349)
(9.79281 0 2.63886)
(9.78665 0 2.91066)
(9.78754 0 3.2001)
(9.79745 0 3.50844)
(9.81874 0 3.83692)
(9.85427 0 4.18676)
(9.90755 0 4.55908)
(9.98285 0 4.95479)
(10.0854 0 5.37437)
(10.2215 0 5.81754)
(10.3988 0 6.28285)
(10.626 0 6.76705)
(10.9129 0 7.26436)
(11.2707 0 7.76556)
(11.7073 0 8.25509)
(12.2237 0 8.71623)
(12.8999 0 9.10747)
(9.99898 0 0.159384)
(9.9956 0 0.316756)
(9.98971 0 0.474252)
(9.98176 0 0.633805)
(9.97228 0 0.797001)
(9.96173 0 0.965255)
(9.95058 0 1.13989)
(9.93941 0 1.32216)
(9.92885 0 1.51324)
(9.91966 0 1.71425)
(9.91269 0 1.92626)
(9.9089 0 2.1503)
(9.90941 0 2.38737)
(9.91551 0 2.63844)
(9.9287 0 2.90444)
(9.9507 0 3.18624)
(9.98357 0 3.48469)
(10.0297 0 3.80049)
(10.0919 0 4.13421)
(10.1736 0 4.48614)
(10.2787 0 4.85619)
(10.4118 0 5.24365)
(10.5782 0 5.64695)
(10.7838 0 6.06328)
(11.0351 0 6.48815)
(11.3385 0 6.91487)
(11.7001 0 7.33408)
(12.124 0 7.73235)
(12.6042 0 8.09511)
(13.2099 0 8.40182)
(9.99951 0 0.160515)
(9.99789 0 0.31897)
(9.9951 0 0.477438)
(9.9915 0 0.637793)
(9.98752 0 0.801565)
(9.98361 0 0.970107)
(9.98026 0 1.14467)
(9.97805 0 1.32642)
(9.97766 0 1.51644)
(9.97986 0 1.71573)
(9.98554 0 1.92524)
(9.9957 0 2.14583)
(10.0115 0 2.37831)
(10.0343 0 2.62342)
(10.0655 0 2.88181)
(10.1069 0 3.15404)
(10.1606 0 3.44053)
(10.2288 0 3.7415)
(10.3142 0 4.05694)
(10.4199 0 4.38648)
(10.5491 0 4.72925)
(10.7059 0 5.08374)
(10.8942 0 5.44754)
(11.1185 0 5.81714)
(11.383 0 6.18764)
(11.6915 0 6.55247)
(12.0469 0 6.90335)
(12.4506 0 7.22995)
(12.8951 0 7.52112)
(13.4384 0 7.76553)
(10 0 0.16088)
(10.0001 0 0.319658)
(10.0004 0 0.478328)
(10.0011 0 0.638693)
(10.0025 0 0.802217)
(10.0051 0 0.970178)
(10.0093 0 1.14375)
(10.0158 0 1.324)
(10.0252 0 1.5119)
(10.0383 0 1.70836)
(10.0561 0 1.91414)
(10.0794 0 2.12998)
(10.1096 0 2.35647)
(10.1478 0 2.59414)
(10.1956 0 2.84336)
(10.2546 0 3.10438)
(10.3268 0 3.37727)
(10.4142 0 3.66183)
(10.5192 0 3.95758)
(10.6443 0 4.26363)
(10.7926 0 4.57861)
(10.9668 0 4.9005)
(11.1701 0 5.22649)
(11.4053 0 5.55287)
(11.6751 0 5.87491)
(11.9813 0 6.18673)
(12.3249 0 6.48146)
(12.7054 0 6.75127)
(13.1153 0 6.9878)
(13.6033 0 7.18418)
(10.0005 0 0.160457)
(10.0023 0 0.318777)
(10.0056 0 0.476863)
(10.0104 0 0.636432)
(10.017 0 0.798872)
(10.0259 0 0.965382)
(10.0374 0 1.13704)
(10.0523 0 1.31483)
(10.071 0 1.49961)
(10.0945 0 1.69214)
(10.1236 0 1.89307)
(10.1593 0 2.10294)
(10.2027 0 2.3222)
(10.2551 0 2.55112)
(10.3178 0 2.78987)
(10.3924 0 3.03839)
(10.4806 0 3.29646)
(10.5842 0 3.56356)
(10.7053 0 3.83885)
(10.846 0 4.12111)
(11.0085 0 4.40863)
(11.1949 0 4.69918)
(11.4074 0 4.98986)
(11.6477 0 5.2771)
(11.9171 0 5.5566)
(12.2163 0 5.82337)
(12.5448 0 6.07188)
(12.9012 0 6.29624)
(13.2786 0 6.49039)
(13.7186 0 6.65016)
(10.001 0 0.159231)
(10.0044 0 0.316299)
(10.0106 0 0.473001)
(10.0194 0 0.630963)
(10.0311 0 0.791485)
(10.0459 0 0.955681)
(10.0644 0 1.12454)
(10.0872 0 1.29893)
(10.1148 0 1.4796)
(10.148 0 1.66719)
(10.1876 0 1.86222)
(10.2347 0 2.06506)
(10.2901 0 2.27598)
(10.3552 0 2.49508)
(10.431 0 2.7223)
(10.5192 0 2.95737)
(10.621 0 3.19981)
(10.738 0 3.44887)
(10.872 0 3.70349)
(11.0245 0 3.96222)
(11.1971 0 4.22326)
(11.3914 0 4.48429)
(11.6085 0 4.74256)
(11.8495 0 4.9948)
(12.1147 0 5.2373)
(12.4038 0 5.46596)
(12.7158 0 5.67644)
(13.0486 0 5.86437)
(13.3963 0 6.02553)
(13.7952 0 6.1574)
(10.0015 0 0.157195)
(10.0065 0 0.312209)
(10.0154 0 0.466727)
(10.028 0 0.622269)
(10.0445 0 0.780048)
(10.065 0 0.941084)
(10.0901 0 1.10627)
(10.1202 0 1.27637)
(10.1561 0 1.45202)
(10.1982 0 1.63375)
(10.2476 0 1.82192)
(10.3049 0 2.01679)
(10.3711 0 2.21845)
(10.4474 0 2.42685)
(10.5347 0 2.64175)
(10.6343 0 2.86271)
(10.7473 0 3.08908)
(10.8752 0 3.31994)
(11.019 0 3.5541)
(11.18 0 3.79004)
(11.3593 0 4.02594)
(11.5579 0 4.2596)
(11.7762 0 4.48848)
(12.0147 0 4.70973)
(12.273 0 4.92024)
(12.5505 0 5.11673)
(12.8455 0 5.29587)
(13.1561 0 5.45451)
(13.4771 0 5.58971)
(13.8406 0 5.69998)
(10.0019 0 0.154347)
(10.0084 0 0.306507)
(10.0199 0 0.458042)
(10.0361 0 0.610364)
(10.0571 0 0.76459)
(10.083 0 0.921646)
(10.1142 0 1.08233)
(10.1512 0 1.2473)
(10.1946 0 1.41709)
(10.245 0 1.59209)
(10.303 0 1.77258)
(10.3695 0 1.95867)
(10.4453 0 2.15033)
(10.5312 0 2.34736)
(10.6282 0 2.54939)
(10.7373 0 2.75587)
(10.8595 0 2.96602)
(10.9956 0 3.17885)
(11.1467 0 3.3931)
(11.3135 0 3.60729)
(11.4966 0 3.81965)
(11.6965 0 4.02819)
(11.9135 0 4.23065)
(12.1472 0 4.42463)
(12.3971 0 4.60756)
(12.662 0 4.77689)
(12.9405 0 4.93012)
(13.2305 0 5.06497)
(13.5276 0 5.17947)
(13.8606 0 5.27275)
(10.0024 0 0.150694)
(10.0102 0 0.299205)
(10.0241 0 0.44697)
(10.0438 0 0.595287)
(10.0689 0 0.745175)
(10.0997 0 0.897466)
(10.1366 0 1.05286)
(10.1799 0 1.21191)
(10.2302 0 1.37507)
(10.2879 0 1.54261)
(10.3537 0 1.7147)
(10.4283 0 1.89135)
(10.5123 0 2.07241)
(10.6064 0 2.2576)
(10.7115 0 2.44644)
(10.8283 0 2.6383)
(10.9575 0 2.83235)
(11.0998 0 3.02755)
(11.2558 0 3.2227)
(11.4259 0 3.41635)
(11.6106 0 3.60689)
(11.8097 0 3.79255)
(12.0233 0 3.9714)
(12.2508 0 4.14144)
(12.4913 0 4.30062)
(12.7436 0 4.44696)
(13.0063 0 4.57862)
(13.2774 0 4.69398)
(13.5531 0 4.79172)
(13.8598 0 4.87142)
(10.0027 0 0.146248)
(10.0119 0 0.290331)
(10.0281 0 0.433555)
(10.0508 0 0.577105)
(10.0798 0 0.7219)
(10.1152 0 0.86868)
(10.1572 0 1.01805)
(10.2062 0 1.17047)
(10.2626 0 1.3263)
(10.3269 0 1.48573)
(10.3995 0 1.64882)
(10.481 0 1.81549)
(10.572 0 1.98554)
(10.6729 0 2.15858)
(10.7845 0 2.33409)
(10.9073 0 2.5114)
(11.0418 0 2.68965)
(11.1883 0 2.86785)
(11.3473 0 3.04482)
(11.5189 0 3.21925)
(11.7032 0 3.38972)
(11.8999 0 3.55466)
(12.1088 0 3.71247)
(12.329 0 3.86152)
(12.5598 0 4.0002)
(12.7997 0 4.12699)
(13.0475 0 4.24057)
(13.3013 0 4.33979)
(13.558 0 4.42381)
(13.8417 0 4.49245)
(10.0031 0 0.141027)
(10.0134 0 0.279921)
(10.0317 0 0.417858)
(10.0573 0 0.555909)
(10.0898 0 0.694893)
(10.1293 0 0.83546)
(10.1759 0 0.978125)
(10.23 0 1.12328)
(10.2919 0 1.27117)
(10.3618 0 1.42192)
(10.4403 0 1.57552)
(10.5277 0 1.73183)
(10.6244 0 1.89057)
(10.7309 0 2.05131)
(10.8476 0 2.21352)
(10.9748 0 2.37649)
(11.1129 0 2.53941)
(11.2621 0 2.70132)
(11.4225 0 2.86115)
(11.594 0 3.01772)
(11.7765 0 3.16979)
(11.9696 0 3.31603)
(12.1729 0 3.45512)
(12.3854 0 3.58575)
(12.6063 0 3.70668)
(12.8343 0 3.81677)
(13.0681 0 3.91506)
(13.3062 0 4.00078)
(13.546 0 4.07339)
(13.8096 0 4.13288)
(10.0034 0 0.135056)
(10.0148 0 0.268024)