/*--------------------------------*- C++ -*----------------------------------*\
  =========                 |
  \\      /  F ield         | OpenFOAM: The Open Source CFD Toolbox
   \\    /   O peration     | Website:  https://openfoam.org
    \\  /    A nd           | Version:  dev
     \\/     M anipulation  |
\*---------------------------------------------------------------------------*/
FoamFile
{
    version     2.0;
    format      ascii;
    class       surfaceVectorField;
    location    "5.6";
    object      Uf;
}
// * * * * * * * * * * * * * * * * * * * * * * * * * * * * * * * * * * * * * //

dimensions      [0 1 -1 0 0 0 0];

internalField   nonuniform List<vector> 
5457
(
(9.92088 0 0.0251095)
(9.97125 0 0.0387457)
(9.82402 0 0.0328267)
(9.92859 0 0.048585)
(9.70961 0 0.0393119)
(9.85548 0 0.0587679)
(9.57544 0 0.0460114)
(9.7568 0 0.0705931)
(9.42138 0 0.0529488)
(9.63753 0 0.0830131)
(9.24755 0 0.0601661)
(9.49861 0 0.0959363)
(9.05362 0 0.0678108)
(9.33931 0 0.109612)
(8.83893 0 0.0760345)
(9.15875 0 0.124289)
(8.60252 0 0.0849702)
(8.9561 0 0.140167)
(8.34327 0 0.094745)
(8.73039 0 0.157433)
(8.05985 0 0.105487)
(8.48041 0 0.17627)
(7.75081 0 0.117328)
(8.20478 0 0.196858)
(7.41456 0 0.130396)
(7.90195 0 0.219363)
(7.0495 0 0.144811)
(7.57031 0 0.243925)
(6.65404 0 0.160674)
(7.20819 0 0.270635)
(6.22672 0 0.178046)
(6.814 0 0.299503)
(5.76643 0 0.19693)
(6.38633 0 0.330417)
(5.27258 0 0.217235)
(5.92417 0 0.363087)
(4.74538 0 0.238738)
(5.42711 0 0.39698)
(4.18621 0 0.261034)
(4.89566 0 0.43124)
(3.59798 0 0.28349)
(4.33165 0 0.464623)
(2.98556 0 0.305204)
(3.73861 0 0.495428)
(2.35612 0 0.325071)
(3.12228 0 0.521515)
(1.71911 0 0.342549)
(2.49108 0 0.540559)
(1.08435 0 0.361882)
(1.85587 0 0.551675)
(0.451842 0 0.348685)
(1.24549 0 0.563021)
(-0.145835 0 0.102466)
(0.608924 0 0.544882)
(-0.423619 0 -0.207096)
(0.0946662 0 0.259372)
(-0.402156 0 -0.36126)
(-0.133667 0 -0.0205254)
(-0.119681 0 -0.393887)
(9.99641 0 0.0516722)
(9.99705 0 0.0405044)
(9.95879 0 0.0708612)
(9.97851 0 0.0674541)
(9.89824 0 0.0879864)
(9.93377 0 0.0898694)
(9.81659 0 0.105984)
(9.86453 0 0.113554)
(9.71359 0 0.124921)
(9.77438 0 0.138514)
(9.58909 0 0.144853)
(9.66435 0 0.164646)
(9.44275 0 0.16609)
(9.53397 0 0.192331)
(9.27391 0 0.188967)
(9.3825 0 0.22203)
(9.08167 0 0.213783)
(9.20919 0 0.254149)
(8.8649 0 0.240816)
(9.01316 0 0.289064)
(8.6223 0 0.270338)
(8.79332 0 0.327154)
(8.35239 0 0.302609)
(8.54836 0 0.368788)
(8.05356 0 0.337859)
(8.27684 0 0.414319)
(7.72412 0 0.376265)
(7.97717 0 0.46405)
(7.36237 0 0.417906)
(7.64772 0 0.518193)
(6.96672 0 0.462712)
(7.28683 0 0.576811)
(6.53583 0 0.510391)
(6.89295 0 0.639731)
(6.06883 0 0.560338)
(6.46481 0 0.706434)
(5.56559 0 0.611526)
(6.0016 0 0.775916)
(5.0271 0 0.662389)
(5.50326 0 0.84653)
(4.45588 0 0.710712)
(4.97089 0 0.915812)
(3.8565 0 0.753543)
(4.40718 0 0.980312)
(3.2362 0 0.787199)
(3.81704 0 1.03546)
(2.60582 0 0.807503)
(3.20846 0 1.07549)
(1.9828 0 0.810468)
(2.5934 0 1.09315)
(1.40529 0 0.776898)
(1.99621 0 1.07708)
(0.929755 0 0.646402)
(1.4195 0 0.97841)
(0.439859 0 0.384341)
(0.937575 0 0.716798)
(0.0591739 0 -0.118612)
(0.443795 0 0.343526)
(0.174921 0 -0.33593)
(9.98903 0 0.0594305)
(9.99481 0 0.0458771)
(9.95434 0 0.0894759)
(9.97368 0 0.0848536)
(9.89729 0 0.118031)
(9.92984 0 0.119173)
(9.82047 0 0.147897)
(9.86357 0 0.153975)
(9.72416 0 0.179421)
(9.77736 0 0.190407)
(9.60821 0 0.212775)
(9.67227 0 0.228636)
(9.47235 0 0.248392)
(9.5481 0 0.269128)
(9.31608 0 0.286774)
(9.40432 0 0.312496)
(9.13869 0 0.328397)
(9.24035 0 0.359325)
(8.93925 0 0.373722)
(9.05549 0 0.410174)
(8.71665 0 0.423206)
(8.8489 0 0.465598)
(8.4696 0 0.477296)
(8.61951 0 0.526153)
(8.19668 0 0.5364)
(8.36616 0 0.592373)
(7.89633 0 0.600843)
(8.08752 0 0.664739)
(7.56692 0 0.670811)
(7.7822 0 0.743619)
(7.20684 0 0.746258)
(7.44873 0 0.829191)
(6.81457 0 0.826784)
(7.08568 0 0.921321)
(6.38888 0 0.911485)
(6.69171 0 1.01941)
(5.92904 0 0.99876)
(6.26572 0 1.12217)
(5.43514 0 1.0861)
(5.80712 0 1.22743)
(4.90855 0 1.16983)
(5.31608 0 1.33175)
(4.35244 0 1.2449)
(4.79398 0 1.43019)
(3.7726 0 1.30455)
(4.24398 0 1.51588)
(3.17874 0 1.33984)
(3.67182 0 1.57943)
(2.58664 0 1.33812)
(3.08633 0 1.60775)
(2.01987 0 1.27298)
(2.50293 0 1.58158)
(1.48695 0 1.09541)
(1.92875 0 1.46425)
(0.958304 0 0.769174)
(1.38526 0 1.21041)
(0.479882 0 0.202456)
(0.829547 0 0.801043)
(0.433733 0 0.134085)
(9.98515 0 0.0716133)
(9.99367 0 0.0531474)
(9.95039 0 0.113629)
(9.97087 0 0.10229)
(9.89437 0 0.154132)
(9.92691 0 0.147952)
(9.81882 0 0.195572)
(9.86185 0 0.19372)
(9.72442 0 0.23881)
(9.77746 0 0.241276)
(9.61112 0 0.284323)
(9.67467 0 0.291162)
(9.47874 0 0.33272)
(9.55343 0 0.343954)
(9.32695 0 0.384673)
(9.41336 0 0.400371)
(9.15523 0 0.440846)
(9.25401 0 0.461139)
(8.96291 0 0.501883)
(9.07484 0 0.526961)
(8.74917 0 0.568428)
(8.8752 0 0.598536)
(8.51304 0 0.641112)
(8.6543 0 0.676562)
(8.25346 0 0.720531)
(8.41123 0 0.761721)
(7.96926 0 0.807191)
(8.145 0 0.854638)
(7.65918 0 0.901438)
(7.85455 0 0.95582)
(7.32192 0 1.00335)
(7.53875 0 1.06557)
(6.95621 0 1.11257)
(7.19646 0 1.18385)
(6.56085 0 1.22814)
(6.82653 0 1.31008)
(6.13489 0 1.34817)
(6.42789 0 1.44292)
(5.67785 0 1.4696)
(5.99967 0 1.5799)
(5.19 0 1.58777)
(5.54134 0 1.71708)
(4.67287 0 1.69603)
(5.05306 0 1.84854)
(4.12981 0 1.78515)
(4.53597 0 1.96583)
(3.56666 0 1.84253)
(3.99274 0 2.0573)
(2.99206 0 1.85073)
(3.42761 0 2.10714)
(2.41585 0 1.78249)
(2.84764 0 2.09448)
(1.84055 0 1.60046)
(2.25624 0 1.98874)
(1.25939 0 1.27843)
(1.66032 0 1.75305)
(0.666778 0 0.789543)
(1.02397 0 1.36777)
(0.523038 0 0.787153)
(9.98337 0 0.0844066)
(9.99316 0 0.0612908)
(9.94821 0 0.136836)
(9.96958 0 0.119926)
(9.89315 0 0.18803)
(9.92575 0 0.176239)
(9.81906 0 0.240167)
(9.86199 0 0.232696)
(9.72663 0 0.294465)
(9.77964 0 0.291085)
(9.6159 0 0.351657)
(9.6794 0 0.352272)
(9.48671 0 0.412468)
(9.56128 0 0.416975)
(9.33879 0 0.477674)
(9.42497 0 0.486006)
(9.17171 0 0.548049)
(9.27009 0 0.560202)
(8.98493 0 0.624352)
(9.0962 0 0.640384)
(8.77779 0 0.707342)
(8.90275 0 0.727366)
(8.54954 0 0.797763)
(8.68907 0 0.821955)
(8.29935 0 0.896325)
(8.45444 0 0.92494)
(8.02635 0 1.00365)
(8.19808 0 1.03705)
(7.72957 0 1.1202)
(7.91912 0 1.15891)
(7.40805 0 1.24616)
(7.61669 0 1.29092)
(7.06076 0 1.38127)
(7.28985 0 1.43315)
(6.68669 0 1.52459)
(6.93763 0 1.5851)
(6.28485 0 1.67419)
(6.55899 0 1.7455)
(5.85438 0 1.82679)
(6.15287 0 1.91189)
(5.39471 0 1.97726)
(5.71822 0 2.08017)
(4.90575 0 2.11805)
(5.25408 0 2.24409)
(4.38825 0 2.23861)
(4.75974 0 2.39461)
(3.84395 0 2.32454)
(4.23495 0 2.51919)
(3.27544 0 2.35695)
(3.67989 0 2.60124)
(2.6854 0 2.31059)
(3.09573 0 2.6197)
(2.0727 0 2.15501)
(2.4817 0 2.54732)
(1.42938 0 1.8674)
(1.83992 0 2.35372)
(0.742615 0 1.41957)
(1.13137 0 2.02453)
(0.543308 0 1.5145)
(9.98264 0 0.0974966)
(9.99299 0 0.069792)
(9.94744 0 0.159773)
(9.96925 0 0.137582)
(9.89354 0 0.221345)
(9.92597 0 0.203924)
(9.82134 0 0.284089)
(9.86381 0 0.270686)
(9.73134 0 0.349345)
(9.78386 0 0.339579)
(9.62367 0 0.418016)
(9.68665 0 0.411694)
(9.49819 0 0.490935)
(9.57218 0 0.487899)
(9.35465 0 0.568971)
(9.44022 0 0.569101)
(9.19269 0 0.653001)
(9.29043 0 0.65623)
(9.01184 0 0.743895)
(9.12243 0 0.750211)
(8.81152 0 0.842514)
(8.93572 0 0.851954)
(8.59109 0 0.949707)
(8.72973 0 0.962364)
(8.34985 0 1.06628)
(8.50382 0 1.08232)
(8.08706 0 1.19296)
(8.25728 0 1.21265)
(7.80192 0 1.33031)
(7.98938 0 1.35405)
(7.4936 0 1.4786)
(7.6993 0 1.50703)
(7.16119 0 1.63769)
(7.38617 0 1.67177)
(6.80372 0 1.80675)
(7.04903 0 1.84792)
(6.42011 0 1.98397)
(6.68675 0 2.03436)
(6.00912 0 2.16614)
(6.29801 0 2.22884)
(5.5694 0 2.34811)
(5.88119 0 2.42749)
(5.09946 0 2.52221)
(5.43434 0 2.62426)
(4.59774 0 2.67757)
(4.95511 0 2.8103)
(4.0627 0 2.79949)
(4.44084 0 2.97323)
(3.4927 0 2.86911)
(3.88852 0 3.09663)
(2.88583 0 2.86292)
(3.29523 0 3.1599)
(2.23802 0 2.75393)
(2.6569 0 3.13791)
(1.54244 0 2.52103)
(1.97484 0 3.00319)
(0.793649 0 2.13134)
(1.20724 0 2.7406)
(0.556737 0 2.29183)
(9.9825 0 0.110625)
(9.99302 0 0.0783604)
(9.94771 0 0.182322)
(9.96954 0 0.155035)
(9.89523 0 0.253814)
(9.92722 0 0.230883)
(9.82524 0 0.326763)
(9.86697 0 0.307505)
(9.73813 0 0.402551)
(9.78978 0 0.386518)
(9.63404 0 0.48223)
(9.69606 0 0.469144)
(9.51286 0 0.566753)
(9.58579 0 0.556393)
(9.37438 0 0.657088)
(9.4588 0 0.649266)
(9.21828 0 0.754209)
(9.31481 0 0.748783)
(9.04414 0 0.859081)
(9.15347 0 0.855958)
(8.85145 0 0.97266)
(8.97434 0 0.971797)
(8.63963 0 1.09588)
(8.77691 0 1.09729)
(8.40803 0 1.22964)
(8.56058 0 1.23342)
(8.15595 0 1.37475)
(8.3247 0 1.38108)
(7.88264 0 1.53187)
(8.06853 0 1.54108)
(7.58727 0 1.70139)
(7.79126 0 1.71405)
(7.2689 0 1.8833)
(7.49196 0 1.90031)
(6.92642 0 2.07698)
(7.16954 0 2.09971)
(6.55851 0 2.28086)
(6.82266 0 2.3114)
(6.16347 0 2.49206)
(6.44959 0 2.5335)
(5.73913 0 2.70585)
(6.04809 0 2.76266)
(5.28273 0 2.915)
(5.61524 0 2.99348)
(4.79083 0 3.10916)
(5.14724 0 3.21786)
(4.2593 0 3.2742)
(4.63938 0 3.42428)
(3.68339 0 3.39186)
(4.08606 0 3.59715)
(3.05805 0 3.43968)
(3.48132 0 3.71654)
(2.37774 0 3.39179)
(2.81837 0 3.75813)
(1.63791 0 3.22617)
(2.09916 0 3.69398)
(0.839131 0 2.90085)
(1.27892 0 3.50448)
(0.57336 0 3.11371)
(9.98273 0 0.12358)
(9.99316 0 0.0868163)
(9.94873 0 0.204307)
(9.97027 0 0.172091)
(9.89794 0 0.285249)
(9.92927 0 0.256972)
(9.83051 0 0.367961)
(9.87124 0 0.342984)
(9.74671 0 0.453847)
(9.79716 0 0.431674)
(9.64669 0 0.544072)
(9.70735 0 0.524346)
(9.53039 0 0.639702)
(9.60181 0 0.62213)
(9.39763 0 0.741795)
(9.48039 0 0.72612)
(9.24813 0 0.85141)
(9.34287 0 0.837419)
(9.08153 0 0.969602)
(9.18895 0 0.957127)
(8.89737 0 1.09742)
(9.01825 0 1.08634)
(8.69511 0 1.23588)
(8.8303 0 1.22613)
(8.47413 0 1.38598)
(8.62455 0 1.37758)
(8.23377 0 1.54863)
(8.40037 0 1.54168)
(7.97323 0 1.7246)
(8.15702 0 1.71938)
(7.69162 0 1.91445)
(7.89364 0 1.91143)
(7.38786 0 2.11836)
(7.6092 0 2.11836)
(7.06062 0 2.33597)
(7.30242 0 2.3403)
(6.70821 0 2.56613)
(6.97165 0 2.57677)
(6.32836 0 2.80649)
(6.61472 0 2.82644)
(5.9181 0 3.05306)
(6.22872 0 3.08671)
(5.47345 0 3.29954)
(5.80974 0 3.35318)
(4.98931 0 3.53666)
(5.35266 0 3.61899)
(4.45934 0 3.75142)
(4.85088 0 3.874)
(3.87622 0 3.92647)
(4.29642 0 4.10395)
(3.23233 0 4.03986)
(3.68055 0 4.28969)
(2.52083 0 4.06499)
(2.99351 0 4.40677)
(1.73837 0 3.97613)
(2.23738 0 4.42458)
(0.889472 0 3.71875)
(1.36336 0 4.31629)
(0.598752 0 3.98489)
(9.98321 0 0.136202)
(9.99339 0 0.095039)
(9.95032 0 0.225569)
(9.97131 0 0.188587)
(9.90151 0 0.315493)
(9.93193 0 0.282045)
(9.83694 0 0.407498)
(9.87643 0 0.376955)
(9.75684 0 0.503007)
(9.80579 0 0.474835)
(9.66135 0 0.603271)
(9.72031 0 0.577044)
(9.55047 0 0.709453)
(9.61996 0 0.684808)
(9.42404 0 0.822695)
(9.50466 0 0.799309)
(9.28185 0 0.944139)
(9.37423 0 0.921728)
(9.12357 0 1.07493)
(9.22844 0 1.05324)
(8.9488 0 1.21619)
(9.06696 0 1.19503)
(8.75706 0 1.36904)
(8.88939 0 1.34827)
(8.54777 0 1.53458)
(8.69521 0 1.51412)
(8.32026 0 1.71384)
(8.48383 0 1.6937)
(8.07371 0 1.90774)
(8.25451 0 1.8881)
(7.80714 0 2.11703)
(8.00637 0 2.09827)
(7.51933 0 2.34216)
(7.73826 0 2.32497)
(7.20869 0 2.58316)
(7.44874 0 2.56869)
(6.87311 0 2.8394)
(7.13586 0 2.82946)
(6.50978 0 3.10928)
(6.79702 0 3.10664)
(6.11489 0 3.38981)
(6.42869 0 3.39862)
(5.68332 0 3.67603)
(6.02605 0 3.70231)
(5.20839 0 3.96022)
(5.58269 0 4.0125)
(4.68166 0 4.231)
(5.09022 0 4.32098)
(4.09318 0 4.47232)
(4.53817 0 4.61539)
(3.43241 0 4.66254)
(3.91459 0 4.87786)
(2.69004 0 4.77314)
(3.20558 0 5.08357)
(1.86178 0 4.77238)
(2.41118 0 5.19794)
(0.954143 0 4.58969)
(1.47621 0 5.18427)
(0.639162 0 4.91941)
(9.98386 0 0.148367)
(9.99368 0 0.102942)
(9.95235 0 0.245967)
(9.9726 0 0.204391)
(9.90579 0 0.344395)
(9.9351 0 0.305966)
(9.84437 0 0.445193)
(9.88241 0 0.409265)
(9.76833 0 0.549805)
(9.81552 0 0.51581)
(9.6778 0 0.659553)
(9.73471 0 0.627004)
(9.57282 0 0.775681)
(9.63999 0 0.744151)
(9.45328 0 0.899411)
(9.5313 0 0.868509)
(9.31903 0 1.03196)
(9.40854 0 1.00133)
(9.16979 0 1.17455)
(9.27152 0 1.14387)
(9.00523 0 1.32839)
(9.12 0 1.29738)
(8.82493 0 1.49471)
(8.95362 0 1.46312)
(8.62836 0 1.6747)
(8.77195 0 1.64236)
(8.41486 0 1.86954)
(8.57444 0 1.83636)
(8.18362 0 2.08033)
(8.36039 0 2.04635)
(7.93361 0 2.30805)
(8.1289 0 2.2735)
(7.66349 0 2.55351)
(7.87881 0 2.51888)
(7.37144 0 2.81718)
(7.60855 0 2.7834)
(7.05506 0 3.09912)
(7.31599 0 3.06769)
(6.71102 0 3.39866)
(6.9982 0 3.37197)
(6.3348 0 3.71409)
(6.65118 0 3.69579)
(5.92024 0 4.04211)
(6.26939 0 4.03768)
(5.45915 0 4.37707)
(5.84528 0 4.39453)
(4.94092 0 4.70989)
(5.36875 0 4.76073)
(4.35256 0 5.02653)
(4.82663 0 5.12674)
(3.67942 0 5.30616)
(4.203 0 5.47705)
(2.90735 0 5.51814)
(3.47771 0 5.78744)
(2.02753 0 5.62295)
(2.64486 0 6.01944)
(1.04503 0 5.52937)
(1.63759 0 6.12384)
(0.704409 0 5.94295)
(9.98465 0 0.159979)
(9.99402 0 0.110461)
(9.95473 0 0.265378)
(9.97409 0 0.219397)
(9.91065 0 0.371816)
(9.93868 0 0.328608)
(9.85267 0 0.480879)
(9.88905 0 0.439771)
(9.781 0 0.594039)
(9.82619 0 0.554428)
(9.69582 0 0.712674)
(9.75039 0 0.674018)
(9.59717 0 0.838101)
(9.66167 0 0.79991)
(9.48503 0 0.971609)
(9.56004 0 0.933427)
(9.35928 0 1.11448)
(9.44544 0 1.07589)
(9.21974 0 1.26802)
(9.31777 0 1.2286)
(9.06614 0 1.43351)
(9.17685 0 1.39291)
(8.89812 0 1.61228)
(9.02242 0 1.57015)
(8.71522 0 1.80563)
(8.85411 0 1.76168)
(8.51687 0 2.01489)
(8.67147 0 1.9689)
(8.30227 0 2.24136)
(8.47386 0 2.1932)
(8.07041 0 2.48631)
(8.26046 0 2.43601)
(7.81989 0 2.7509)
(8.03013 0 2.69871)
(7.54884 0 3.03619)
(7.78131 0 2.98268)
(7.25464 0 3.34299)
(7.51183 0 3.28922)
(6.93368 0 3.67172)
(7.21868 0 3.6195)
(6.58093 0 4.02219)
(6.89762 0 3.97442)
(6.18945 0 4.39317)
(6.54272 0 4.35437)
(5.74975 0 4.78165)
(6.14568 0 4.75885)
(5.24907 0 5.18176)
(5.69503 0 5.1856)
(4.67086 0 5.58283)
(5.175 0 5.62927)
(3.9948 0 5.96656)
(4.56497 0 6.07884)
(3.19829 0 6.30168)
(3.83618 0 6.51359)
(2.26164 0 6.5406)
(2.97065 0 6.89401)
(1.18052 0 6.56497)
(1.87898 0 7.15772)
(0.81272 0 7.0992)
(9.98554 0 0.170961)
(9.9944 0 0.117545)
(9.95739 0 0.283695)
(9.97572 0 0.233516)
(9.91601 0 0.39763)
(9.94259 0 0.349864)
(9.8617 0 0.514406)
(9.89624 0 0.468346)
(9.79469 0 0.635528)
(9.83765 0 0.590533)
(9.71518 0 0.762421)
(9.76714 0 0.717902)
(9.62325 0 0.896459)
(9.68476 0 0.851867)
(9.51895 0 1.03899)
(9.59056 0 0.99381)
(9.40222 0 1.19137)
(9.48457 0 1.1451)
(9.27295 0 1.35494)
(9.36675 0 1.30711)
(9.13095 0 1.53108)
(9.237 0 1.48122)
(8.97597 0 1.72119)
(9.09516 0 1.66887)
(8.80764 0 1.9267)
(8.94098 0 1.8715)
(8.62547 0 2.14908)
(8.7741 0 2.09062)
(8.42878 0 2.38983)
(8.59402 0 2.32781)
(8.21663 0 2.65052)
(8.40003 0 2.58471)
(7.9877 0 2.93272)
(8.19115 0 2.86304)
(7.74018 0 3.23805)
(7.96595 0 3.16466)
(7.47149 0 3.56818)
(7.72244 0 3.49155)
(7.17799 0 3.92471)
(7.45776 0 3.84585)
(6.85455 0 4.30916)
(7.16784 0 4.22989)
(6.49388 0 4.72267)
(6.84686 0 4.64614)
(6.08573 0 5.16556)
(6.48649 0 5.09702)
(5.61565 0 5.63634)
(6.07469 0 5.58451)
(5.06355 0 6.12984)
(5.594 0 6.10911)
(4.40213 0 6.63376)
(5.01953 0 6.66759)
(3.596 0 7.12115)
(4.31242 0 7.24852)
(2.60417 0 7.54049)
(3.43548 0 7.8201)
(1.39418 0 7.74022)
(2.25626 0 8.31484)
(1.00249 0 8.46472)
(9.9865 0 0.18125)
(9.9948 0 0.124154)
(9.96027 0 0.300828)
(9.97747 0 0.246676)
(9.92177 0 0.421727)
(9.94676 0 0.369641)
(9.87134 0 0.545643)
(9.90388 0 0.494878)
(9.80924 0 0.674114)
(9.84977 0 0.623996)
(9.73568 0 0.808604)
(9.78479 0 0.758497)
(9.65081 0 0.950534)
(9.70903 0 0.899836)
(9.55472 0 1.1013)
(9.62259 0 1.04944)
(9.44744 0 1.2623)
(9.52556 0 1.20871)
(9.32892 0 1.43494)
(9.418 0 1.37907)
(9.1991 0 1.62066)
(9.2999 0 1.56196)
(9.05781 0 1.82093)
(9.1712 0 1.75886)
(8.90482 0 2.03729)
(9.03178 0 1.97131)
(8.73976 0 2.27134)
(8.88143 0 2.20091)
(8.56212 0 2.52478)
(8.71982 0 2.44938)
(8.37112 0 2.79944)
(8.54644 0 2.71858)
(8.16566 0 3.0973)
(8.36052 0 3.01053)
(7.94416 0 3.42054)
(8.16096 0 3.32751)
(7.70432 0 3.77164)
(7.94611 0 3.67215)
(7.44286 0 4.15342)
(7.71361 0 4.04749)
(7.15503 0 4.56913)
(7.46002 0 4.45724)
(6.83395 0 5.02251)
(7.18032 0 4.90588)
(6.46957 0 5.51768)
(6.8671 0 5.39893)
(6.047 0 6.05876)
(6.50932 0 5.94309)
(5.54402 0 6.64879)
(6.09002 0 6.54626)
(4.92698 0 7.28702)
(5.58304 0 7.21684)
(4.14484 0 7.96138)
(4.94235 0 7.96156)
(3.12155 0 8.63341)
(4.10905 0 8.77557)
(1.75606 0 9.12751)
(2.87814 0 9.62066)
(1.36451 0 10.1847)
(9.98754 0 0.190796)
(9.99523 0 0.130258)
(9.96332 0 0.316702)
(9.97932 0 0.25882)
(9.92785 0 0.444015)
(9.95115 0 0.387862)
(9.88148 0 0.574481)
(9.91188 0 0.519277)
(9.82449 0 0.70967)
(9.86243 0 0.654705)
(9.75713 0 0.851075)
(9.80318 0 0.795673)
(9.67959 0 1.00015)
(9.73426 0 0.943664)
(9.59202 0 1.15834)
(9.65583 0 1.10013)
(9.49452 0 1.32706)
(9.56806 0 1.26652)
(9.38717 0 1.50777)
(9.47109 0 1.44427)
(9.26997 0 1.70195)
(9.365 0 1.63485)
(9.14291 0 1.91113)
(9.24988 0 1.8398)
(9.00589 0 2.13694)
(9.12573 0 2.0607)
(8.85872 0 2.38108)
(8.99252 0 2.29924)
(8.70109 0 2.64542)
(8.85013 0 2.55725)
(8.53249 0 2.93202)
(8.6983 0 2.83675)
(8.35214 0 3.24319)
(8.53659 0 3.13999)
(8.15887 0 3.58161)
(8.36433 0 3.46961)
(7.95093 0 3.95047)
(8.18045 0 3.82872)
(7.7258 0 4.35366)
(7.98336 0 4.22112)
(7.4797 0 4.79602)
(7.77069 0 4.65162)
(7.20708 0 5.28376)
(7.53896 0 5.12642)
(6.89956 0 5.82484)
(7.28292 0 5.65372)
(6.54417 0 6.42963)
(6.99458 0 6.24467)
(6.12016 0 7.11153)
(6.66121 0 6.91477)
(5.59279 0 7.88766)
(6.26225 0 7.68627)
(4.90056 0 8.77787)
(5.75724 0 8.59265)
(3.92647 0 9.80135)
(5.08688 0 9.68509)
(2.43285 0 10.8562)
(3.97892 0 11.049)
(2.14578 0 12.5675)
(9.98862 0 0.19956)
(9.99567 0 0.135833)
(9.96652 0 0.331256)
(9.98124 0 0.269901)
(9.9342 0 0.464411)
(9.95571 0 0.404465)
(9.89202 0 0.600813)
(9.92017 0 0.541467)
(9.84031 0 0.742056)
(9.87553 0 0.682573)
(9.77933 0 0.889659)
(9.82216 0 0.829327)
(9.70932 0 1.0451)
(9.76029 0 0.983231)
(9.63051 0 1.20984)
(9.69011 0 1.14576)
(9.54308 0 1.38533)
(9.61186 0 1.31836)
(9.44718 0 1.57304)
(9.52578 0 1.5025)
(9.34296 0 1.7745)
(9.43207 0 1.69967)
(9.23053 0 1.99126)
(9.33093 0 1.91142)
(9.10996 0 2.22501)
(9.22254 0 2.13936)
(8.98127 0 2.47753)
(9.10705 0 2.38523)
(8.84439 0 2.7508)
(8.98457 0 2.65092)
(8.69914 0 3.04704)
(8.85517 0 2.93855)
(8.54517 0 3.36881)
(8.7188 0 3.25052)
(8.38187 0 3.71914)
(8.5753 0 3.58967)
(8.20829 0 4.10173)
(8.42435 0 3.95942)
(8.02297 0 4.52126)
(8.26536 0 4.36404)
(7.82372 0 4.98376)
(8.09742 0 4.80901)
(7.60725 0 5.49728)
(7.91917 0 5.30154)
(7.36852 0 6.07286)
(7.72863 0 5.85151)
(7.09962 0 6.72616)
(7.52293 0 6.47286)
(6.78738 0 7.48037)
(7.29782 0 7.18614)
(6.40823 0 8.37222)
(7.04781 0 8.02376)
(5.91515 0 9.46612)
(6.76269 0 9.04217)
(5.19553 0 10.9083)
(6.46142 0 10.357)
(3.88376 0 13.1781)
(6.18883 0 12.3035)
(5.25731 0 16.3714)
(0.182976 0 -0.108128)
(0.10738 0 -0.179214)
(0.356252 0 -0.091378)
(0.261177 0 -0.165705)
(0.497718 0 -0.069287)
(0.412962 0 -0.132089)
(0.607335 0 -0.0498871)
(0.539718 0 -0.0999346)
(0.690187 0 -0.0345195)
(0.638118 0 -0.0737491)
(0.751738 0 -0.0228177)
(0.713119 0 -0.0534948)
(0.796758 0 -0.0141243)
(0.770484 0 -0.0382038)
(0.829241 0 -0.00783001)
(0.814795 0 -0.0269136)
(0.852466 0 -0.00341212)
(0.849473 0 -0.0187877)
(0.869054 0 -0.000431181)
(0.877135 0 -0.0131025)
(0.881058 0 0.001468)
(0.899811 0 -0.00925809)
(0.89007 0 0.0025637)
(0.919058 0 -0.00678556)
(0.897314 0 0.00307472)
(0.936058 0 -0.0053258)
(0.903719 0 0.00317938)
(0.951701 0 -0.00459781)
(0.90995 0 0.00303073)
(0.96665 0 -0.00436737)
(0.91641 0 0.00276766)
(0.981366 0 -0.00442085)
(0.923221 0 0.00252158)
(0.99611 0 -0.00455129)
(0.930214 0 0.00241517)
(1.01094 0 -0.00456188)
(0.936941 0 0.00254866)
(1.02568 0 -0.00428509)
(0.94275 0 0.00297494)
(1.03999 0 -0.00361318)
(0.946923 0 0.00366963)
(1.05338 0 -0.00253391)
(0.948891 0 0.00449579)
(1.06532 0 -0.00116689)
(0.948455 0 0.00524083)
(1.07538 0 0.000252448)
(0.945533 0 0.00581228)
(1.08332 0 0.00165149)
(0.940338 0 0.00624589)
(1.08906 0 0.0028672)
(0.933003 0 0.00656864)
(1.09273 0 0.00395228)
(0.923665 0 0.0067947)
(1.09448 0 0.00491337)
(0.912359 0 0.00683488)
(1.09418 0 0.00580769)
(0.899751 0 0.00605078)
(1.09179 0 0.00632396)
(1.08775 0 0.00489038)
(0.170023 0 -0.260209)
(0.0900257 0 -0.345741)
(0.331841 0 -0.226337)
(0.232414 0 -0.320452)
(0.466674 0 -0.178081)
(0.364814 0 -0.257986)
(0.574884 0 -0.135125)
(0.476313 0 -0.198586)
(0.661285 0 -0.100956)
(0.564503 0 -0.150658)
(0.73068 0 -0.0748259)
(0.634197 0 -0.113806)
(0.787047 0 -0.055271)
(0.6902 0 -0.0860365)
(0.833585 0 -0.0409351)
(0.73611 0 -0.0654721)
(0.872837 0 -0.0306579)
(0.774565 0 -0.0505415)
(0.906774 0 -0.0234661)
(0.807576 0 -0.0399083)
(0.936887 0 -0.01858)
(0.836665 0 -0.0324813)
(0.964294 0 -0.0154006)
(0.862951 0 -0.0274228)
(0.989834 0 -0.0134697)
(0.887259 0 -0.0241036)
(1.01414 0 -0.0124248)
(0.910196 0 -0.0220454)
(1.03768 0 -0.0119609)
(0.93222 0 -0.0208652)
(1.06078 0 -0.011802)
(0.953666 0 -0.0202295)
(1.08364 0 -0.0116859)
(0.974765 0 -0.0198253)
(1.10631 0 -0.0113683)
(0.995643 0 -0.019355)
(1.12872 0 -0.0106498)
(1.01631 0 -0.0185571)
(1.15064 0 -0.00941925)
(1.03668 0 -0.017248)
(1.17178 0 -0.00769608)
(1.05653 0 -0.0153724)
(1.19178 0 -0.00564537)
(1.07562 0 -0.013024)
(1.21016 0 -0.00350033)
(1.09369 0 -0.0103847)
(1.22667 0 -0.00142473)
(1.11037 0 -0.00768212)
(1.24126 0 0.000517094)
(1.12565 0 -0.00518679)
(1.25405 0 0.00236141)
(1.13962 0 -0.00293594)
(1.2649 0 0.00414342)
(1.15243 0 -0.000799687)
(1.27348 0 0.00561646)
(1.16418 0 0.00140307)
(1.27992 0 0.0058132)
(1.17463 0 0.00309524)
(1.18522 0 0.0030687)
(0.143921 0 -0.412394)
(0.0703572 0 -0.486703)
(0.276011 0 -0.358995)
(0.189727 0 -0.44677)
(0.383736 0 -0.284916)
(0.289348 0 -0.358571)
(0.469274 0 -0.21958)
(0.373106 0 -0.276568)
(0.537524 0 -0.167914)
(0.437886 0 -0.211409)
(0.592652 0 -0.128461)
(0.489008 0 -0.161719)
(0.637877 0 -0.098874)
(0.530238 0 -0.124414)
(0.675672 0 -0.0770601)
(0.564106 0 -0.0967864)
(0.707992 0 -0.0612616)
(0.592448 0 -0.076688)
(0.736326 0 -0.0500077)
(0.616766 0 -0.0622883)
(0.761765 0 -0.0421239)
(0.638157 0 -0.0520998)
(0.785108 0 -0.0367187)
(0.657375 0 -0.0450005)
(0.806945 0 -0.0331246)
(0.674957 0 -0.0401582)
(0.827715 0 -0.0308295)
(0.691297 0 -0.0369551)
(0.847752 0 -0.0294145)
(0.706699 0 -0.0349089)
(0.867302 0 -0.0285072)
(0.721403 0 -0.0336085)
(0.886531 0 -0.0277582)
(0.735598 0 -0.0326732)
(0.905512 0 -0.0268452)
(0.749422 0 -0.0317385)
(0.924224 0 -0.0255071)
(0.762949 0 -0.0304767)
(0.942556 0 -0.0235959)
(0.776176 0 -0.028649)
(0.960336 0 -0.0211191)
(0.789023 0 -0.0261693)
(0.977396 0 -0.0182202)
(0.80136 0 -0.0231394)
(0.993645 0 -0.0151074)
(0.813055 0 -0.019791)
(1.00906 0 -0.01203)
(0.82402 0 -0.0163952)
(1.02368 0 -0.00918444)
(0.834221 0 -0.0132559)
(1.03777 0 -0.0065393)
(0.843734 0 -0.0105257)
(1.05159 0 -0.00396137)
(0.852779 0 -0.00807056)
(1.0653 0 -0.00156396)
(0.861789 0 -0.00564415)
(1.07826 0 0.000281846)
(0.870505 0 -0.00340496)
(0.880373 0 -0.00134321)
(0.114826 0 -0.530437)
(0.0503599 0 -0.599168)
(0.211686 0 -0.456068)
(0.141102 0 -0.539398)
(0.286453 0 -0.35973)
(0.201789 0 -0.428382)
(0.344128 0 -0.276982)
(0.254565 0 -0.329148)
(0.389461 0 -0.212563)
(0.29201 0 -0.251762)
(0.425747 0 -0.16377)
(0.320903 0 -0.193256)
(0.455247 0 -0.127299)
(0.34358 0 -0.149447)
(0.479542 0 -0.100423)
(0.361414 0 -0.116916)
(0.49996 0 -0.0809254)
(0.375384 0 -0.0932051)
(0.517502 0 -0.0669549)
(0.386564 0 -0.0761445)
(0.532841 0 -0.057056)
(0.39564 0 -0.0639293)
(0.54645 0 -0.0501339)
(0.403035 0 -0.0552478)
(0.558666 0 -0.0453802)
(0.409029 0 -0.0491396)
(0.569756 0 -0.0421884)
(0.413834 0 -0.0449162)
(0.579946 0 -0.0400716)
(0.417639 0 -0.0420508)
(0.58943 0 -0.0386032)
(0.420624 0 -0.0400985)
(0.598372 0 -0.0373853)
(0.422976 0 -0.0386481)
(0.606894 0 -0.0360474)
(0.424891 0 -0.0372983)
(0.615054 0 -0.0342805)
(0.426543 0 -0.0356744)
(0.622836 0 -0.031898)
(0.428033 0 -0.0334887)
(0.630165 0 -0.0288953)
(0.429367 0 -0.03062)
(0.636969 0 -0.0254403)
(0.430471 0 -0.027174)
(0.643219 0 -0.0217876)
(0.431196 0 -0.0234091)
(0.648857 0 -0.018246)
(0.431378 0 -0.0195816)
(0.653884 0 -0.0150964)
(0.43093 0 -0.0160307)
(0.658585 0 -0.0123363)
(0.429616 0 -0.0130587)
(0.663003 0 -0.00982683)
(0.427557 0 -0.0103949)
(0.666986 0 -0.00773652)
(0.425633 0 -0.00769026)
(0.670857 0 -0.00560471)
(0.422409 0 -0.00534668)
(0.415933 0 -0.0023513)
(0.0807644 0 -0.615913)
(0.0291348 0 -0.678271)
(0.138293 0 -0.519799)
(0.085836 0 -0.594413)
(0.176857 0 -0.405595)
(0.103005 0 -0.464391)
(0.203995 0 -0.310864)
(0.123185 0 -0.353888)
(0.223667 0 -0.238333)
(0.130672 0 -0.269273)
(0.238148 0 -0.183796)
(0.134642 0 -0.205842)
(0.248679 0 -0.143026)
(0.135532 0 -0.158383)
(0.255914 0 -0.112924)
(0.133793 0 -0.122911)
(0.260682 0 -0.0910292)
(0.129752 0 -0.0970622)
(0.263549 0 -0.0751648)
(0.124184 0 -0.0784088)
(0.264849 0 -0.0637015)
(0.117364 0 -0.0649325)
(0.264793 0 -0.0554568)
(0.10958 0 -0.0552057)
(0.263522 0 -0.0495706)
(0.100987 0 -0.0482046)
(0.261185 0 -0.0454159)
(0.0916988 0 -0.0432389)
(0.257956 0 -0.0424987)
(0.0818509 0 -0.0397876)
(0.254033 0 -0.0403939)
(0.071612 0 -0.0374139)
(0.249634 0 -0.0387023)
(0.0611891 0 -0.0357088)
(0.244959 0 -0.0370316)
(0.0508139 0 -0.0342486)
(0.240145 0 -0.0350213)
(0.040663 0 -0.0326081)
(0.235226 0 -0.0324128)
(0.0307742 0 -0.0304289)
(0.230121 0 -0.0291469)
(0.0210326 0 -0.0275201)
(0.22474 0 -0.0253965)
(0.0112439 0 -0.0239836)
(0.219088 0 -0.0214425)
(0.00117596 0 -0.0201373)
(0.213 0 -0.0176139)
(-0.00933695 0 -0.0161402)
(0.206135 0 -0.0143812)
(-0.0202693 0 -0.0122418)
(0.198763 0 -0.0118687)
(-0.0322886 0 -0.00908638)
(0.190632 0 -0.00908549)
(-0.0469876 0 -0.00611737)
(0.180178 0 -0.00524192)
(-0.0609194 0 -0.00232)
(0.1663 0 -0.00142394)
(-0.0726171 0 0.00161442)
(-0.0848955 0 0.00295967)
(0.0414296 0 -0.663943)
(0.00551093 0 -0.718849)
(0.0554965 0 -0.546077)
(0.0225471 0 -0.607865)
(0.0557314 0 -0.418577)
(-0.00597225 0 -0.46461)
(0.0508261 0 -0.316671)
(-0.0208743 0 -0.349416)
(0.0423006 0 -0.23965)
(-0.045344 0 -0.261684)
(0.0317853 0 -0.182168)
(-0.0693526 0 -0.196703)
(0.0198626 0 -0.139113)
(-0.0934683 0 -0.148266)
(0.00671221 0 -0.107084)
(-0.117513 0 -0.112015)
(-0.00788115 0 -0.0839409)
(-0.14155 0 -0.0852565)
(-0.0232284 0 -0.0674811)
(-0.165296 0 -0.0662865)
(-0.0390438 0 -0.0556182)
(-0.188626 0 -0.0527354)
(-0.0551972 0 -0.0470423)
(-0.211287 0 -0.0430422)
(-0.0716326 0 -0.0408911)
(-0.233184 0 -0.0361211)
(-0.0882308 0 -0.0365888)
(-0.254383 0 -0.0313239)
(-0.104826 0 -0.0336802)
(-0.274938 0 -0.0281562)
(-0.121216 0 -0.0317527)
(-0.294883 0 -0.0261978)
(-0.137204 0 -0.030376)
(-0.314204 0 -0.0250254)
(-0.152677 0 -0.0290859)
(-0.332852 0 -0.0241543)
(-0.16766 0 -0.0274376)
(-0.350844 0 -0.0230641)
(-0.18236 0 -0.025109)
(-0.368345 0 -0.0212862)
(-0.197119 0 -0.0220487)
(-0.38567 0 -0.0185581)
(-0.212195 0 -0.0185368)
(-0.403184 0 -0.015045)
(-0.227498 0 -0.0148243)
(-0.42132 0 -0.0112781)
(-0.242974 0 -0.0107714)
(-0.440258 0 -0.0073924)
(-0.259301 0 -0.00634209)
(-0.458259 0 -0.00323112)
(-0.277993 0 -0.00209562)
(-0.474633 0 0.000985824)
(-0.297696 0 0.00162705)
(-0.490787 0 0.00424878)
(-0.314364 0 0.00462826)
(-0.505861 0 0.00624226)
(-0.325263 0 0.00558745)
(-0.516911 0 0.00708101)
(-0.522733 0 0.00635722)
(-0.00648621 0 -0.667855)
(-0.0230517 0 -0.712496)
(-0.036914 0 -0.530026)
(-0.0509364 0 -0.578767)
(-0.0757915 0 -0.395533)
(-0.124906 0 -0.428309)
(-0.115889 0 -0.292283)
(-0.178926 0 -0.312861)
(-0.155858 0 -0.215431)
(-0.236792 0 -0.226106)
(-0.194528 0 -0.159005)
(-0.290644 0 -0.163094)
(-0.231407 0 -0.117234)
(-0.340284 0 -0.116971)
(-0.26653 0 -0.086429)
(-0.385491 0 -0.0829136)
(-0.299869 0 -0.0642471)
(-0.426895 0 -0.0582863)
(-0.331707 0 -0.0486617)
(-0.465212 0 -0.0411389)
(-0.361781 0 -0.0377993)
(-0.500869 0 -0.0295421)
(-0.389987 0 -0.0301984)
(-0.534357 0 -0.0218027)
(-0.416489 0 -0.024951)
(-0.564872 0 -0.0166365)
(-0.441462 0 -0.0215447)
(-0.592839 0 -0.0133975)
(-0.465135 0 -0.0195405)
(-0.618828 0 -0.0115637)
(-0.487724 0 -0.0185249)
(-0.643369 0 -0.0107389)
(-0.509393 0 -0.0180488)
(-0.666876 0 -0.0105473)
(-0.530292 0 -0.0175828)
(-0.68964 0 -0.0105195)
(-0.550637 0 -0.0165485)
(-0.711896 0 -0.0101047)
(-0.57074 0 -0.0144515)
(-0.733848 0 -0.00878305)
(-0.591033 0 -0.0111184)
(-0.755539 0 -0.0062353)
(-0.612085 0 -0.00692432)
(-0.776731 0 -0.00256283)
(-0.634129 0 -0.00267244)
(-0.797069 0 0.00148299)
(-0.655585 0 0.00105875)
(-0.816304 0 0.00473545)
(-0.673864 0 0.00424655)
(-0.833508 0 0.00685679)
(-0.687662 0 0.00676559)
(-0.847618 0 0.0084211)
(-0.698402 0 0.00831988)
(-0.8585 0 0.00989896)
(-0.707815 0 0.00889169)
(-0.868256 0 0.0110778)
(-0.716081 0 0.00848108)
(-0.876542 0 0.0112272)
(-0.88117 0 0.0102303)
(-0.0568411 0 -0.622371)
(-0.0589898 0 -0.656824)
(-0.138176 0 -0.472543)
(-0.135963 0 -0.500985)
(-0.219609 0 -0.339408)
(-0.258382 0 -0.352274)
(-0.297771 0 -0.239997)
(-0.355685 0 -0.241603)
(-0.370372 0 -0.167873)
(-0.448408 0 -0.161482)
(-0.436234 0 -0.116631)
(-0.53254 0 -0.105852)
(-0.494778 0 -0.0797304)
(-0.607619 0 -0.0672924)
(-0.54667 0 -0.0527893)
(-0.67318 0 -0.0399188)
(-0.592988 0 -0.0335225)
(-0.728099 0 -0.0208163)
(-0.635051 0 -0.0203367)
(-0.774874 0 -0.00791462)
(-0.673956 0 -0.0117744)
(-0.815306 0 0.000461753)
(-0.709443 0 -0.00669087)
(-0.851042 0 0.00491893)
(-0.741348 0 -0.00399036)
(-0.882977 0 0.00682063)
(-0.770235 0 -0.00270626)
(-0.911952 0 0.00733889)
(-0.796962 0 -0.00228123)
(-0.93875 0 0.00716922)
(-0.822288 0 -0.00235323)
(-0.963974 0 0.00659274)
(-0.846769 0 -0.00255439)
(-0.987965 0 0.00581022)
(-0.870793 0 -0.00244135)
(-1.01086 0 0.00515389)
(-0.894585 0 -0.00159573)
(-1.03276 0 0.0050502)
(-0.918068 0 0.000199896)
(-1.05384 0 0.00582204)
(-0.940673 0 0.00284851)
(-1.07422 0 0.00749198)
(-0.961338 0 0.00586805)
(-1.09371 0 0.0096896)
(-0.979109 0 0.00847373)
(-1.11167 0 0.0117708)
(-0.994233 0 0.0101734)
(-1.12741 0 0.0132838)
(-1.00734 0 0.0112212)
(-1.14128 0 0.0140922)
(-1.01857 0 0.012137)
(-1.15312 0 0.014473)
(-1.02805 0 0.0129837)
(-1.16307 0 0.0148855)
(-1.03615 0 0.0132526)
(-1.17173 0 0.0152368)
(-1.04352 0 0.0126516)
(-1.17887 0 0.0149232)