/*--------------------------------*- C++ -*----------------------------------*\
  =========                 |
  \\      /  F ield         | OpenFOAM: The Open Source CFD Toolbox
   \\    /   O peration     | Website:  https://openfoam.org
    \\  /    A nd           | Version:  dev
     \\/     M anipulation  |
\*---------------------------------------------------------------------------*/
FoamFile
{
    version     2.0;
    format      ascii;
    class       volScalarField;
    location    "9.7";
    object      p;
}
// * * * * * * * * * * * * * * * * * * * * * * * * * * * * * * * * * * * * * //

dimensions      [0 2 -2 0 0 0 0];

internalField   nonuniform List<scalar> 
2790
(
146.666
146.574
146.841
147.412
148.192
149.15
150.282
151.589
153.066
154.707
156.506
158.457
160.551
162.776
165.117
167.553
170.057
172.596
175.128
177.602
179.96
182.138
184.068
185.688
186.948
187.822
188.258
188.313
188.364
188.576
146.464
146.481
146.774
147.342
148.118
149.072
150.2
151.501
152.97
154.603
156.393
158.334
160.417
162.631
164.961
167.386
169.882
172.416
174.946
177.424
179.792
181.987
183.942
185.59
186.874
187.748
188.145
188.2
188.332
188.617
146.265
146.353
146.664
147.222
147.985
148.927
150.04
151.322
152.77
154.378
156.14
158.05
160.098
162.273
164.562
166.944
169.396
171.887
174.379
176.826
179.176
181.369
183.341
185.031
186.381
187.357
187.95
188.305
188.62
188.919
146.04
146.158
146.482
147.032
147.78
148.705
149.799
151.057
152.476
154.051
155.774
157.64
159.639
161.759
163.988
166.306
168.691
171.114
173.541
175.931
178.238
180.41
182.392
184.131
185.586
186.737
187.605
188.276
188.828
189.347
145.779
145.912
146.244
146.786
147.518
148.422
149.49
150.717
152.099
153.63
155.304
157.114
159.049
161.1
163.252
165.488
167.786
170.121
172.463
174.776
177.021
179.156
181.139
182.929
184.499
185.842
186.972
187.934
188.745
189.491
145.478
145.617
145.951
146.483
147.195
148.073
149.109
150.298
151.636
153.116
154.731
156.474
158.335
160.303
162.364
164.502
166.697
168.926
171.163
173.379
175.541
177.619
179.581
181.402
183.065
184.566
185.912
187.118
188.137
189.055
145.136
145.275
145.606
146.125
146.815
147.662
148.662
149.807
151.093
152.513
154.06
155.726
157.501
159.374
161.331
163.357
165.433
167.539
169.652
171.748
173.803
175.795
177.702
179.513
181.218
182.819
184.313
185.692
186.856
187.902
144.751
144.888
145.213
145.715
146.378
147.192
148.15
149.245
150.473
151.826
153.297
154.876
156.555
158.321
160.161
162.061
164.002
165.966
167.934
169.886
171.804
173.671
175.478
177.221
178.899
180.518
182.073
183.545
184.795
185.945
144.325
144.458
144.772
145.255
145.889
146.665
147.577
148.617
149.781
151.06
152.446
153.931
155.503
157.151
158.862
160.621
162.41
164.214
166.014
167.792
169.536
171.234
172.883
174.483
176.045
177.58
179.089
180.559
181.83
183.068
143.858
143.986
144.287
144.747
145.35
146.085
146.946
147.927
149.02
150.219
151.514
152.895
154.352
155.873
157.443
159.046
160.668
162.291
163.897
165.471
166.999
168.474
169.892
171.261
172.594
173.913
175.234
176.572
177.772
179.076
143.353
143.475
143.76
144.195
144.763
145.454
146.261
147.178
148.197
149.31
150.507
151.778
153.112
154.495
155.912
157.348
158.786
160.207
161.594
162.929
164.197
165.388
166.495
167.524
168.489
169.418
170.349
171.349
172.312
173.63
142.811
142.925
143.193
143.602
144.133
144.777
145.526
146.375
147.316
148.338
149.432
150.587
151.79
153.027
154.282
155.539
156.778
157.979
159.121
160.183
161.145
161.988
162.697
163.264
163.691
164.002
164.247
164.557
164.94
166.113
142.234
142.341
142.59
142.97
143.462
144.056
144.746
145.524
146.382
147.31
148.296
149.329
150.396
151.481
152.566
153.632
154.659
155.623
156.499
157.258
157.872
158.307
158.529
158.506
158.204
157.608
156.736
155.748
154.804
155.31
141.625
141.723
141.953
142.302
142.753
143.296
143.924
144.629
145.402
146.232
147.107
148.015
148.941
149.867
150.776
151.645
152.45
153.165
153.756
154.188
154.419
154.396
154.058
153.327
152.107
150.28
147.722
144.427
140.489
138.461
140.985
141.075
141.285
141.603
142.011
142.502
143.066
143.695
144.38
145.11
145.872
146.652
147.434
148.199
148.927
149.594
150.171
150.628
150.924
151.015
150.842
150.332
149.388
147.874
145.597
142.269
137.432
130.428
119.988
107.799
0.489711
0.46957
0.399536
0.302941
0.203431
0.113294
0.0374571
-0.0224507
-0.0663914
-0.0957723
-0.111235
-0.115578
-0.111711
-0.102318
-0.0898588
-0.0764339
-0.0636179
-0.05239
-0.0431834
-0.0360038
-0.0305592
-0.0263915
-0.0230126
-0.0200222
-0.0171693
-0.0143439
-0.0115008
-0.00858908
-0.0055228
-0.00219238
0.440477
0.41784
0.351991
0.262957
0.171264
0.0876957
0.0168951
-0.0392875
-0.0802058
-0.105637
-0.118593
-0.121045
-0.115505
-0.104641
-0.0909656
-0.0766114
-0.0631595
-0.0515853
-0.0422833
-0.0351913
-0.0299333
-0.0259682
-0.0227488
-0.0198534
-0.0170452
-0.0142455
-0.0114307
-0.00855466
-0.00552125
-0.00210828
0.384788
0.35784
0.294707
0.212861
0.129627
0.0536665
-0.0108934
-0.0621096
-0.0992825
-0.122403
-0.132546
-0.131976
-0.123475
-0.109803
-0.0935959
-0.0771131
-0.0620312
-0.0493579
-0.0395008
-0.0323641
-0.0274523
-0.024025
-0.021325
-0.018805
-0.0162249
-0.0135786
-0.0109028
-0.00817718
-0.00529025
-0.0020228
0.329369
0.297966
0.23671
0.161081
0.0857873
0.0171685
-0.0411953
-0.0873461
-0.12043
-0.140396
-0.14757
-0.143835
-0.132066
-0.115249
-0.096228
-0.0773927
-0.0605078
-0.0466577
-0.0362862
-0.0292529
-0.0248921
-0.0221884
-0.0201146
-0.0179905
-0.0156143
-0.0131045
-0.0105751
-0.00802503
-0.0053497
-0.0023897
0.287587
0.251988
0.192395
0.121336
0.0519567
-0.0113477
-0.0652106
-0.107638
-0.137617
-0.154897
-0.159812
-0.153754
-0.139228
-0.119701
-0.098319
-0.0775638
-0.0592483
-0.044506
-0.0338046
-0.0269724
-0.0231721
-0.0210979
-0.0194882
-0.0175735
-0.0152422
-0.0127383
-0.0102658
-0.00782584
-0.00525457
-0.00245257
0.271524
0.230922
0.172546
0.103339
0.0364789
-0.0248391
-0.077077
-0.118192
-0.147092
-0.163334
-0.167222
-0.159669
-0.143376
-0.122295
-0.0996225
-0.077862
-0.0588353
-0.0436681
-0.0327896
-0.0260242
-0.0224794
-0.0206883
-0.0192985
-0.0175085
-0.0152257
-0.0127495
-0.0103041
-0.00790175
-0.00544768
-0.00255884
0.29203
0.243918
0.185057
0.113364
0.0440674
-0.0195721
-0.0737416
-0.116314
-0.146108
-0.162796
-0.167447
-0.160753
-0.144442
-0.12325
-0.100505
-0.0787354
-0.059763
-0.0446905
-0.0339448
-0.0272552
-0.0235892
-0.0215051
-0.0198405
-0.0178835
-0.015518
-0.0129902
-0.010515
-0.0081971
-0.00595949
-0.00270276
0.35543
0.298317
0.231326
0.151453
0.073877
0.00355028
-0.0557681
-0.102057
-0.134655
-0.154347
-0.161962
-0.157346
-0.143125
-0.123516
-0.10198
-0.081104
-0.0626677
-0.0477381
-0.0367675
-0.0296061
-0.0254314
-0.0229943
-0.0211403
-0.0190925
-0.0166065
-0.0138599
-0.0111824
-0.00888681
-0.00675499
-0.00286636
0.464269
0.390182
0.305039
0.20922
0.118291
0.0378514
-0.0288549
-0.0804371
-0.117764
-0.142219
-0.153206
-0.151505
-0.140236
-0.123127
-0.103572
-0.0841601
-0.0666176
-0.0519733
-0.0407513
-0.0330152
-0.0282722
-0.0255377
-0.0236376
-0.0215762
-0.0188694
-0.0156503
-0.0124849
-0.00994888
-0.00760236
-0.00302455
0.606956
0.501984
0.388026
0.269486
0.162761
0.0719642
-0.00248846
-0.0609443
-0.103271
-0.130393
-0.143794
-0.145006
-0.136659
-0.122182
-0.104923
-0.087413
-0.0711744
-0.0570389
-0.0455812
-0.0372242
-0.0319788
-0.0291884
-0.0275827
-0.0257242
-0.0227081
-0.0186551
-0.0145507
-0.0113341
-0.0084025
-0.00316969
0.75536
0.60168
0.457623
0.315808
0.191346
0.0895473
0.0100113
-0.0500325
-0.0933678
-0.121749
-0.136827
-0.140133
-0.133893
-0.121415
-0.106231
-0.0908396
-0.0762838
-0.0628539
-0.0510676
-0.0419201
-0.0362305
-0.0337983
-0.0331033
-0.031898
-0.0285355
-0.0231397
-0.0174297
-0.0129667
-0.0091188
-0.00329735
0.87995
0.670956
0.484117
0.322081
0.190583
0.0871657
0.00761697
-0.0513123
-0.0926675
-0.119658
-0.134707
-0.138816
-0.133291
-0.121459
-0.107616
-0.0944439
-0.0820663
-0.0695698
-0.0571648
-0.0467696
-0.040565
-0.0390647
-0.0402703
-0.0405231
-0.0368641
-0.0293838
-0.0210891
-0.0147148
-0.00972698
-0.00340381
0.935489
0.652107
0.434395
0.264796
0.139337
0.0481511
-0.0202184
-0.0707049
-0.104614
-0.12611
-0.138915
-0.142618
-0.136112
-0.122751
-0.108905
-0.0981062
-0.0888188
-0.0776579
-0.0640099
-0.0513569
-0.0442728
-0.0444635
-0.0491035
-0.0521729
-0.0484184
-0.0377389
-0.0253838
-0.0163275
-0.0101914
-0.00348644
0.758803
0.383962
0.212424
0.100394
0.0159574
-0.0358936
-0.0757337
-0.109774
-0.130223
-0.141038
-0.149638
-0.152927
-0.143719
-0.125212
-0.108935
-0.100974
-0.0967438
-0.0878902
-0.0719116
-0.0550489
-0.0462112
-0.049125
-0.059557
-0.0676646
-0.064287
-0.0487074
-0.0299827
-0.0173092
-0.0104407
-0.0035445
0.119932
-0.334827
-0.290823
-0.199706
-0.195516
-0.159064
-0.146504
-0.167832
-0.174619
-0.165894
-0.166372
-0.170665
-0.157363
-0.128071
-0.105366
-0.101854
-0.106972
-0.102583
-0.0822523
-0.0573533
-0.0448339
-0.0517956
-0.071522
-0.0881719
-0.0861274
-0.0630655
-0.0342453
-0.0166985
-0.0103074
-0.0035799
140.306
140.387
140.575
140.86
141.225
141.66
142.158
142.709
143.305
143.931
144.576
145.224
145.858
146.458
147
147.459
147.803
147.995
147.988
147.728
147.142
146.133
144.57
142.257
138.896
133.993
126.629
114.894
92.7741
33.1417
139.579
139.65
139.816
140.066
140.385
140.763
141.192
141.663
142.165
142.685
143.209
143.721
144.203
144.633
144.986
145.232
145.338
145.262
144.951
144.341
143.348
141.858
139.712
136.68
132.403
126.297
117.332
103.774
84.2584
55.7932
138.809
138.871
139.013
139.227
139.499
139.818
140.176
140.564
140.97
141.382
141.783
142.158
142.486
142.744
142.907
142.942
142.812
142.473
141.867
140.924
139.553
137.633
134.999
131.422
126.576
120.006
111.119
99.2749
85.0161
68.3342
137.999
138.05
138.169
138.346
138.568
138.827
139.114
139.418
139.727
140.029
140.307
140.544
140.718
140.807
140.782
140.61
140.252
139.661
138.779
137.532
135.831
133.556
130.557
126.636
121.546
114.994
106.681
96.2713
83.6995
68.5217
137.149
137.19
137.284
137.424
137.597
137.795
138.009
138.229
138.441
138.633
138.788
138.888
138.912
138.835
138.628
138.258
137.685
136.861
135.729
134.218
132.243
129.696
126.449
122.345
117.203
110.824
103.004
93.5008
82.1446
69.1407
136.262
136.292
136.362
136.464
136.588
136.725
136.867
137.002
137.118
137.202
137.236
137.203
137.08
136.843
136.464
135.908
135.136
134.103
132.753
131.022
128.831
126.091
122.696
118.525
113.45
107.334
100.054
91.5098
81.6908
71.0087
135.341
135.361
135.406
135.47
135.545
135.621
135.691
135.743
135.764
135.742
135.659
135.497
135.234
134.847
134.306
133.579
132.629
131.413
129.88
127.972
125.623
122.76
119.298
115.153
110.234
104.464
97.7881
90.1933
81.7229
72.7125
134.389
134.398
134.419
134.446
134.471
134.488
134.487
134.458
134.387
134.263
134.067
133.782
133.388
132.86
132.171
131.291
130.185
128.813
127.131
125.09
122.636
119.708
116.247
112.194
107.493
102.106
96.0182
89.2491
81.8484
74.0886
133.409
133.408
133.405
133.395
133.373
133.331
133.262
133.153
132.995
132.772
132.47
132.07
131.553
130.896
130.074
129.059
127.82
126.321
124.524
122.39
119.873
116.932
113.521
109.605
105.153
100.15
94.6026
88.5447
82.0296
75.2853
132.406
132.395
132.368
132.323
132.254
132.156
132.021
131.837
131.594
131.279
130.876
130.37
129.741
128.969
128.03
126.899
125.548
123.949
122.069
119.875
117.335
114.417
111.093
107.341
103.148
98.5148
93.4594
88.0209
82.2523
76.3389
131.384
131.363
131.314
131.234
131.121
130.969
130.77
130.515
130.193
129.792
129.297
128.693
127.963
127.089
126.048
124.821
123.381
121.706
119.769
117.546
115.013
112.147
108.933
105.359
101.425
97.1398
92.5269
87.6258
82.4844
77.2515
130.348
130.318
130.247
130.134
129.979
129.776
129.518
129.196
128.8
128.319
127.74
127.049
126.23
125.266
124.141
122.834
121.326
119.597
117.628
115.399
112.896
110.103
107.013
103.623
99.9384
95.9743
91.7555
87.3185
82.7053
78.0352
129.304
129.265
129.173
129.03
128.834
128.583
128.27
127.886
127.422
126.869
126.214
125.445
124.549
123.51
122.314
120.945
119.387
117.624
115.642
113.428
110.971
108.264
105.306
102.097
98.649
94.9776
91.1077
87.0716
82.9054
78.7053
128.256
128.209
128.099
127.926
127.693
127.397
127.033
126.592
126.067
125.449
124.727
123.891
122.928
121.827
120.575
119.158
117.566
115.786
113.807
111.622
109.225
106.612
103.786
100.753
97.5247
94.1179
90.5557
86.8663
83.0802
79.2754
127.212
127.158
127.029
126.829
126.562
126.226
125.815
125.323
124.743
124.067
123.287
122.392
121.374
120.222
118.927
117.477
115.864
114.08
112.118
109.973
107.642
105.127
102.433
99.5657
96.5394
93.3701
90.0786
86.6893
83.2278
79.7574
126.178
126.116
125.971
125.747
125.448
125.075
124.622
124.084
123.456
122.73
121.899
120.956
119.893
118.701
117.373
115.902
114.281
112.504
110.567
108.469
106.211
103.794
101.225
98.5135
95.6715
92.7145
89.6609
86.5317
83.3484
80.1625
125.16
125.092
124.932
124.685
124.359
123.952
123.462
122.883
122.212
121.443
120.571
119.588
118.488
117.267
115.917
114.434
112.813
111.052
109.148
107.102
104.917
102.596
100.147
97.5788
94.9037
92.1356
89.2909
86.3874
83.4431
80.5005
124.165
124.091
123.918
123.651
123.3
122.863
122.34
121.727
121.02
120.215
119.307
118.292
117.165
115.922
114.558
113.072
111.459
109.72
107.854
105.862
103.75
101.521
99.1836
96.7469
94.222
91.6217
88.9601
86.2526
83.5143
80.7802
123.201
123.122
122.937
122.652
122.278
121.817
121.265
120.622
119.884
119.049
118.112
117.072
115.925
114.668
113.298
111.814
110.216
108.503
106.677
104.741
102.699
100.557
98.3231
96.0058
93.6154
91.1634
88.6623
86.1249
83.5643
81.0095
122.274
122.191
121.995
121.696
121.302
120.818
120.243
119.574
118.811
117.951
116.992
115.933
114.772
113.507
112.136
110.661
109.08
107.396
105.611
103.729
101.755
99.6946
97.5554
95.3458
93.0752
90.754
88.393
86.0034
83.5962
81.1955
121.393
121.306
121.101
120.788
120.378
119.875
119.279
118.59
117.806
116.926
115.951
114.878
113.708
112.44
111.073
109.609
108.049
106.396
104.652
102.822
100.911
98.9256
96.8722
94.759
92.5947
90.3883
88.1494
85.8877
83.6128
81.3445
120.565
120.475
120.262
119.938
119.514
118.995
118.382
117.675
116.874
115.98
114.992
113.911
112.736
111.468
110.108
108.659
107.121
105.498
103.794
102.013
100.161
98.2434
96.2672
94.2397
92.1688
90.0627
87.9298
85.7786
83.6173
81.4628
119.799
119.705
119.486
119.151
118.715
118.183
117.556
116.836
116.022
115.117
114.12
113.033
111.857
110.593
109.242
107.808
106.293
104.7
103.034
101.298
99.4994
97.6428
95.7351
93.783
91.7936
89.7745
87.733
85.6766
83.6127
81.5551
119.102
119.005
118.78
118.437
117.991
117.448
116.81
116.079
115.255
114.342
113.339
112.25
111.075
109.816
108.476
107.058
105.565
104
102.368
100.674
98.923
97.1206
95.2729
93.3863
91.4675
89.523
87.5596
85.5841
83.6028
81.6275
118.483
118.384
118.153
117.802
117.347
116.795
116.149
115.409
114.578
113.659
112.653
111.563
110.391
109.138
107.81
106.407
104.934
103.396
101.795
100.138
98.4283
96.6728
94.8769
93.0464
91.1874
89.3062
87.4087
85.5009
83.5888
81.682
117.951
117.849
117.613
117.255
116.793
116.234
115.58
114.834
113.998
113.075
112.068
110.979
109.81
108.565
107.247
105.859
104.405
102.889
101.316
99.6898
98.0164
96.3008
94.5485
92.765
90.9561
89.1273
87.2844
85.4328
83.5779
81.7279
117.516
117.411
117.167
116.802
116.333
115.767
115.108
114.357
113.518
112.593
111.585
110.497
109.333
108.094
106.786
105.411
103.973
102.476
100.926
99.3265
97.6826
95.9996
94.2826
92.537
90.7681
88.9814
87.1818
85.3746
83.5647
81.7588
117.19
117.079
116.826
116.454
115.98
115.411
114.747
113.993
113.151
112.225
111.217
110.131
108.97
107.738
106.438
105.073
103.648
102.168
100.636
99.0568
97.4362
95.7787
94.0893
92.3733
90.6356
88.8814
87.1155
85.3429
83.5682
81.7975
116.988
116.854
116.584
116.206
115.73
115.157
114.492
113.735
112.892
111.966
110.959
109.875
108.718
107.49
106.196
104.839
103.424
101.954
100.435
98.8704
97.2655
95.6252
93.9543
92.2579
90.5408
88.8079
87.064
85.3135
83.5611
81.8116
116.97
116.771
116.473
116.089
115.61
115.034
114.366
113.608
112.764
111.837
110.831
109.749
108.594
107.37
106.081
104.73
103.321
101.859
100.348
98.7933
97.1988
95.5696
93.9105
92.2265
90.5222
88.8026
87.0721
85.3353
83.5965
81.8599
-50.362
-30.0853
-11.0681
35.3954
27.8739
15.6803
50.7773
38.6459
27.3736
52.2181
41.7744
33.7032
56.5631
48.2568
41.4795
60.9539
54.0304
48.125
64.2347
58.3425
53.2837
66.8395
61.8064
57.4902
69.0363
64.6977
60.9835
70.8913
67.1078
63.8768
72.4518
69.1179
66.2781
73.7671
70.802
68.2814
74.8779
72.2182
69.9605
75.8164
73.4119
71.373
76.609
74.4198
72.5646
77.2779
75.2715
73.5718
77.8412
75.9911
74.4236
78.3141
76.5982
75.1439
78.7097
77.1094
75.7521
79.0391
77.5385
76.2645
79.3117
77.8972
76.6947
79.5363
78.1958
77.0547
79.7195
78.4425
77.3537
79.8694
78.6464
77.6019
79.9885
78.8109
77.8035
80.0887
78.9484
77.9711
80.1611
79.0508
78.0983
80.2345
79.1469
78.2116
80.2689
79.1977
78.2764
80.3382
79.281
78.3663
-3.08529
-3.0193
-1.57699
-0.440721
-0.396782
-0.289406
-0.232754
-0.269782
-0.249885
-0.183128
-0.168581
-0.18925
-0.180914
-0.134673
-0.0957184
-0.0984401
-0.120187
-0.124033
-0.0956352
-0.0556349
-0.0360035
-0.0495213
-0.0844754
-0.115637
-0.116992
-0.0824667
-0.0371205
-0.0126216
-0.0093112
-0.00359983
1.89278
-0.935209
0.669604
0.138391
-1.25366
-0.97894
-0.283959
-0.282603
-0.253602
-0.148531
-0.176769
-0.262489
-0.263175
-0.154221
-0.0569959
-0.0736369
-0.13258
-0.158255
-0.119669
-0.0516032
-0.0179682
-0.0418827
-0.100795
-0.155143
-0.162844
-0.110006
-0.036517
-0.00115649
-0.0059855
-0.00363131
13.082
4.73414
1.88307
-0.586517
-0.855056
0.831817
0.948774
-0.563248
-0.88898
-0.485399
-0.153385
-0.252495
-0.259733
-0.0628244
0.0417474
-0.0470276
-0.182061
-0.244359
-0.174084
-0.0363031
0.0297836
-0.0132708
-0.110222
-0.201865
-0.223621
-0.146749
-0.0285648
0.0247816
0.00313447
-0.00377036
22.9087
13.0006
7.08984
3.32424
1.65093
1.19284
-0.12643
-0.804474
-0.292274
0.881468
0.670167
-0.438997
-0.798551
-0.505504
0.0479878
0.0583989
-0.182905
-0.300859
-0.182603
0.0380311
0.111339
0.0206089
-0.137321
-0.287534
-0.335363
-0.226128
-0.0112826
0.0750662
0.0241383
-0.00429856
32.1046
22.3127
14.9779
9.69327
6.07643
3.61514
1.72615
0.754241
0.541834
0.478644
-0.0631348
-0.676623
-0.684231
0.489855
0.996483
0.22158
-0.36138
-0.65693
-0.553425
-0.0527611
0.214737
0.095988
-0.137867
-0.358679
-0.431723
-0.238839
0.0380022
0.16409
0.0642125
-0.00597646
40.1044
31.158
23.2572
16.8212
11.8989
8.26422
5.60101
3.72779
2.46214
1.53329
0.760262
0.173984
0.0178999
0.415608
0.405545
0.0757012
-0.403584
-0.656854
-0.278232
0.502859
0.612462
0.159198
-0.19863
-0.522723
-0.70975
-0.552877
0.0373537
0.291433
0.127187
-0.0111389
46.635
38.8128
31.0222
24.1233
18.4984
14.0465
10.5295
7.77719
5.6846
4.11166
2.8945
1.95242
1.35856
1.0965
0.83852
0.464423
-0.0182407
-0.282886
-0.107294
0.239616
0.369087
0.168138
-0.178258
-0.558035
-0.740698
-0.341078
0.406121
0.534086
0.20471
-0.0242541
51.9538
45.2093
37.9388
31.1003
25.215
20.2717
16.1337
12.7138
9.94909
7.7397
5.95855
4.53143
3.46164
2.71377
2.11514
1.50773
0.917302
0.533561
0.455648
0.543389
0.554227
0.326348
-0.0514792
-0.411608
-0.54558
-0.265205
0.188374
0.400222
0.306332
-0.0633521
56.2925
50.4659
43.8714
37.3901
31.5684
26.4564
21.9886
18.1301
14.8523
12.0986
9.79473
7.88614
6.34531
5.12543
4.11486
3.2121
2.42412
1.83561
1.49003
1.30405
1.10186
0.765031
0.350138
-0.00540284
-0.156683
-0.0206076
0.260434
0.400204
0.261715
-0.303068
59.8335
54.7587
48.8482
42.8569
37.2995
32.2539
27.6908
23.606
20.0012
16.8582
14.141
11.8125
9.84069
8.1834
6.77277
5.54751
4.4945
3.64065
2.99712
2.50658
2.05795
1.57545
1.08343
0.668649
0.423267
0.386889
0.46272
0.439917
0.173019
-0.51806
62.7421
58.2775
52.9915
47.5184
42.3194
37.4779
32.9813
28.841
25.0784
21.6993
18.6923
16.0374
13.7121
11.6869
9.92136
8.37579
7.03047
5.88594
4.9367
4.14291
3.43693
2.76792
2.13949
1.59933
1.20116
0.959441
0.801755
0.580854
0.171943
-0.592567
65.1515
61.1842
56.4421
51.4597
46.6432
42.0715
37.7377
33.6591
29.8658
26.3764
23.1951
20.3161
17.7284
15.4154
13.3535
11.5174
9.88932
8.46019
7.21831
6.13537
5.1687
4.28298
3.47225
2.75852
2.16818
1.7007
1.30164
0.869388
0.307826
-0.521555
67.1617
63.6039
59.326
54.7848
50.3375
46.0549
41.931
37.983
34.243
30.7355
27.4735
24.461
21.6963
19.1727
16.8783
14.7983
12.9196
11.2319
9.72295
8.37229
7.152
6.03729
5.01856
4.10209
3.29659
2.59369
1.95241
1.30276
0.576455
-0.330762
68.8481
65.6308
61.7476
57.5938
53.4857
49.4857
45.5865
41.803
38.1656
34.7007
31.4255
28.3497
25.4781
22.811
20.3443
18.0712
15.9835
14.073
12.3295
10.7386
9.28141
7.94042
6.70517
5.57335
4.54362
3.60424
2.72426
1.85572
0.952883
-0.0560655
70.2686
67.3372
63.7898
59.9728
56.1688
52.4325
48.7548
45.1472
41.6374
38.2512
35.007
31.9177
28.9919
26.2346
23.6471
21.2277
18.9728
16.8773
14.9339
13.1328
11.4614
9.90674
8.45918
7.11243
5.86026
4.69012
3.57845
2.49233
1.40188
0.262679
71.4686
68.7786
65.5179
61.993
58.4582
54.9619
51.4933
48.0604
44.6876
41.3988
38.2126
35.1428
32.2002
29.3924
26.7244
24.1982
21.8134
19.568
17.4578
15.4763
13.6151
11.865
10.2175
8.66498
7.19944
5.80881
4.4748
3.17425
1.88714
0.590108
72.4839
69.9988
66.9835
63.7117
60.4138
57.133
53.8569
50.5907
47.355
44.1717
41.0583
38.0287
35.0945
32.2649
29.547
26.9451
24.4615
22.0966
19.8487
17.7142
15.6876
13.7623
11.9312
10.187
8.52133
6.92309
5.37759
3.86757
2.37818
0.900768
73.3431
71.0324
68.2279
65.1755
62.0854
58.9963
55.8951
52.7839
49.6803
46.6037
43.57
40.5928
37.6835
34.8521
32.1067
29.4533
26.8959
24.4368
22.0763
19.8128
17.6432
15.5629
13.5662
11.6464
9.79571
8.004
6.25888
4.54628
2.85331
1.18033
74.0698
71.9079
69.2846
66.4222
63.5138
60.5945
57.6503
54.6811
51.7015
48.7286
45.7766
42.8581
39.984
37.1645
34.408
31.7214
29.1101
26.5774
24.1252
21.7537
19.4613
17.245
15.1004
13.0217
11.0017
9.03113
7.099
5.19268
3.29934
1.42384
74.6833
72.6484
70.1809
67.4831
64.7332
61.9633
59.1591
56.3183
53.4531
50.5783
47.7065
44.849
42.0161
39.2174
36.4615
33.7557
31.1059
28.5164
25.9903
23.5287
21.1314
18.7967
16.5211
14.2997
12.1259
9.9913
7.88544
5.79616
3.70978
1.63262
75.1999
73.2732
70.9396
68.384
65.7718
63.1328
60.4522
57.7264
54.9653
52.1814
49.3861
46.5891
43.8
41.0277
38.2805
35.5657
32.8896
30.257
27.6716
25.1354
22.6491
20.2118
17.8211
15.4726
13.1604
10.8764
8.61068
6.35089
4.08228
1.81082
75.6333
73.7987
71.5798
69.1466
66.6535
64.1285
61.5564
58.9325
56.2646
53.5637
50.8395
48.1006
45.3555
42.6125
39.8793
37.163
34.4699
31.8051
29.1726
26.575
24.0137
21.4884
18.9972
16.5365
14.1007
11.6822
9.27092
6.85446
4.41706
1.96335
75.9947
74.2381
72.1169
69.7886
67.398
64.9712
62.4935
59.9588
57.3736
54.747
52.0876
49.4029
46.7003
43.9873
41.2711
38.5585
35.8554
33.167
30.4976
27.8499
25.2259
22.6256
20.0477
17.4888
14.9439
12.4054
9.86346
7.30523
4.71432
2.09359
76.2951
74.604
72.5655
70.3262
68.0228
65.6801
63.2834
60.8259
58.3127
55.7517
53.1502
50.5147
47.8517
45.168
42.4701
39.7642
37.0562
34.351
31.6529
28.9649
26.2889
23.6255
20.9735
18.33
15.6899
13.0461
10.3885
7.70417
4.97622
2.20526
76.5406
74.904
72.9346
70.7699
68.5396
66.2676
63.9394
61.5476
59.0961
56.5916
54.0406
51.4486
48.8213
46.1648
43.4849
40.7875
38.078
35.3611
32.641
29.9207
27.2024
24.4865
21.7722
19.0568
16.3353
13.6006
10.8426
8.04836
5.20067
2.29793
76.7432
75.1507
73.238
71.1347
68.9646
66.751
64.4795
62.1422
59.7422
57.2853
54.777
52.2223
49.6261
46.9937
44.3306
41.6421
38.9332
36.2085
33.4718
30.7263
27.9739
25.2154
22.4498
19.6746
16.885
14.0738
11.2309
8.34311
5.39328
2.37671
76.8995
75.3419
73.4741
71.4193
69.2971
67.13
64.9037
62.6101
60.2515
57.833
55.3595
52.8352
50.2647
47.6527
45.004
42.3237
39.6164
36.8865
34.1376
31.3727
28.5938
25.8016
22.9952
20.1721
17.3274
14.454
11.5418
8.57758
5.54413
2.43458
77.0319
75.5
73.6663
71.6484
69.5623
67.4303
65.2383
62.9779
60.6508
58.2616
55.8148
53.314
50.7634
48.1673
45.5302
42.8567
40.1512
37.4178
34.6601
31.8809
29.0821
26.2644
23.4269
20.5671
17.6802
14.7588
11.7928
8.76882
5.66945
2.48406
77.1133
75.5976
73.7862
71.7934
69.7318
67.6232
65.4541
63.216
60.91
58.5406
56.1116
53.6268
51.0897
48.5044
45.8752
43.2065
40.5024
37.767
35.0035
32.2149
29.403
26.5683
23.7099
20.8254
17.9097
14.9556
11.9527
8.88717
5.74168
2.50399
77.2025
75.6879
73.8887
71.9109
69.863
67.7669
65.61
63.3836
61.0886
58.7292
56.3093
53.8322
51.3015
48.7211
46.0952
43.428
40.7237
37.986
35.2184
32.4237
29.6036
26.7587
23.8883
20.9895
18.0577
15.0852
12.0614
8.97152
5.79579
2.51035
)
;

boundaryField
{
    inlet
    {
        type            zeroGradient;
    }
    outlet
    {
        type            fixedValue;
        value           uniform 0;
    }
    flap
    {
        type            zeroGradient;
    }
    upperWall
    {
        type            zeroGradient;
    }
    lowerWall
    {
        type            zeroGradient;
    }
    frontAndBack
    {
        type            empty;
    }
}


// ************************************************************************* //
