/*--------------------------------*- C++ -*----------------------------------*\
  =========                 |
  \\      /  F ield         | OpenFOAM: The Open Source CFD Toolbox
   \\    /   O peration     | Website:  https://openfoam.org
    \\  /    A nd           | Version:  dev
     \\/     M anipulation  |
\*---------------------------------------------------------------------------*/
FoamFile
{
    version     2.0;
    format      ascii;
    class       volVectorField;
    location    "9.7";
    object      U;
}
// * * * * * * * * * * * * * * * * * * * * * * * * * * * * * * * * * * * * * //

dimensions      [0 1 -1 0 0 0 0];

internalField   nonuniform List<vector> 
2790
(
(9.94399 0 0.0205236)
(9.87572 0 0.0295885)
(9.7752 0 0.0359908)
(9.64942 0 0.0425579)
(9.50407 0 0.0493877)
(9.34004 0 0.0564312)
(9.15651 0 0.0638194)
(8.95257 0 0.0717159)
(8.7274 0 0.0802603)
(8.48 0 0.0895796)
(8.20917 0 0.0998006)
(7.91353 0 0.111054)
(7.59154 0 0.12347)
(7.24162 0 0.137176)
(6.86214 0 0.152285)
(6.45158 0 0.168883)
(6.00864 0 0.187011)
(5.53241 0 0.206633)
(5.02268 0 0.227605)
(4.48014 0 0.249624)
(3.90683 0 0.272188)
(3.3065 0 0.294534)
(2.68496 0 0.315624)
(2.0503 0 0.334289)
(1.4115 0 0.350602)
(0.797781 0 0.372883)
(0.110357 0 0.324922)
(-0.469578 0 -0.114923)
(-0.453816 0 -0.2971)
(-0.231165 0 -0.423837)
(9.9985 0 0.0407043)
(9.98145 0 0.0623853)
(9.93574 0 0.0791439)
(9.86415 0 0.0966299)
(9.77095 0 0.11513)
(9.65712 0 0.134496)
(9.52202 0 0.154985)
(9.3648 0 0.176955)
(9.18465 0 0.200722)
(8.98059 0 0.226566)
(8.75143 0 0.254763)
(8.49577 0 0.285582)
(8.21206 0 0.319274)
(7.89866 0 0.35605)
(7.55385 0 0.39605)
(7.17598 0 0.439294)
(6.76354 0 0.485625)
(6.31539 0 0.534619)
(5.83096 0 0.585491)
(5.31057 0 0.63698)
(4.75583 0 0.687223)
(4.17008 0 0.733657)
(3.55897 0 0.772952)
(2.93123 0 0.80108)
(2.29965 0 0.813723)
(1.69269 0 0.807217)
(1.10691 0 0.747172)
(0.658743 0 0.547834)
(0.1862 0 0.224467)
(-0.00819676 0 -0.453792)
(9.99559 0 0.043209)
(9.97556 0 0.0752758)
(9.9318 0 0.103352)
(9.86488 0 0.13238)
(9.77776 0 0.16307)
(9.67152 0 0.195412)
(9.54584 0 0.229759)
(9.40009 0 0.266622)
(9.23359 0 0.306493)
(9.04556 0 0.349834)
(8.835 0 0.397103)
(8.6007 0 0.448757)
(8.34131 0 0.505231)
(8.05534 0 0.566907)
(7.7412 0 0.634057)
(7.39724 0 0.70678)
(7.02188 0 0.784886)
(6.6137 0 0.867772)
(6.17166 0 0.954239)
(5.69534 0 1.04229)
(5.18532 0 1.12891)
(4.64364 0 1.2098)
(4.07447 0 1.27915)
(3.48506 0 1.32931)
(2.88655 0 1.35004)
(2.29921 0 1.32636)
(1.73162 0 1.22066)
(1.21609 0 0.972874)
(0.701027 0 0.570001)
(0.357968 0 -0.156761)
(9.99403 0 0.0495021)
(9.97181 0 0.093212)
(9.92787 0 0.133581)
(9.86223 0 0.174221)
(9.77691 0 0.216448)
(9.67296 0 0.26068)
(9.55028 0 0.307452)
(9.40844 0 0.357442)
(9.24696 0 0.411322)
(9.06526 0 0.469742)
(8.86259 0 0.533344)
(8.63808 0 0.60277)
(8.39072 0 0.678644)
(8.11937 0 0.761532)
(7.82283 0 0.851882)
(7.49981 0 0.949939)
(7.14902 0 1.05561)
(6.7692 0 1.1683)
(6.35923 0 1.28666)
(5.91831 0 1.40831)
(5.44622 0 1.5295)
(4.94369 0 1.6447)
(4.41285 0 1.74613)
(3.85796 0 1.82318)
(3.28553 0 1.86129)
(2.70614 0 1.84022)
(2.12543 0 1.72586)
(1.55409 0 1.47768)
(0.957843 0 1.08349)
(0.509389 0 0.50211)
(9.99331 0 0.0572173)
(9.96994 0 0.110966)
(9.92592 0 0.162115)
(9.86145 0 0.213363)
(9.77797 0 0.266376)
(9.67632 0 0.321938)
(9.5565 0 0.38073)
(9.41817 0 0.443522)
(9.26091 0 0.511096)
(9.08426 0 0.584216)
(8.88761 0 0.66364)
(8.67028 0 0.750122)
(8.43146 0 0.8444)
(8.17031 0 0.947155)
(7.8859 0 1.05895)
(7.57728 0 1.18015)
(7.24344 0 1.31076)
(6.88336 0 1.45026)
(6.49601 0 1.59729)
(6.08044 0 1.74938)
(5.63585 0 1.90246)
(5.1618 0 2.05034)
(4.65845 0 2.18416)
(4.12689 0 2.29169)
(3.5691 0 2.35647)
(2.98861 0 2.35718)
(2.3866 0 2.26477)
(1.76621 0 2.04741)
(1.08988 0 1.69113)
(0.536603 0 1.15386)
(9.99302 0 0.065543)
(9.96923 0 0.12871)
(9.92556 0 0.190127)
(9.86252 0 0.251861)
(9.78127 0 0.315601)
(9.68242 0 0.382347)
(9.56597 0 0.452909)
(9.43167 0 0.528142)
(9.27915 0 0.608928)
(9.10799 0 0.696139)
(8.91769 0 0.790642)
(8.70763 0 0.893294)
(8.47716 0 1.00493)
(8.22553 0 1.12634)
(7.95198 0 1.25818)
(7.65569 0 1.40091)
(7.33581 0 1.55464)
(6.99139 0 1.71896)
(6.62141 0 1.89264)
(6.22471 0 2.0733)
(5.79996 0 2.2569)
(5.34571 0 2.43723)
(4.86036 0 2.60519)
(4.34236 0 2.74816)
(3.79006 0 2.84943)
(3.20227 0 2.88802)
(2.57631 0 2.83799)
(1.91326 0 2.67131)
(1.17262 0 2.37365)
(0.549909 0 1.89403)
(9.99297 0 0.0740799)
(9.96926 0 0.146324)
(9.92637 0 0.217499)
(9.86507 0 0.289313)
(9.78641 0 0.363382)
(9.69082 0 0.44086)
(9.57831 0 0.5227)
(9.44867 0 0.609858)
(9.30159 0 0.703311)
(9.13671 0 0.804029)
(8.95356 0 0.912973)
(8.7516 0 1.03109)
(8.53021 0 1.15931)
(8.28873 0 1.2985)
(8.02642 0 1.44941)
(7.74249 0 1.61259)
(7.43607 0 1.7883)
(7.10615 0 1.97628)
(6.75153 0 2.17551)
(6.3707 0 2.38391)
(5.96177 0 2.59781)
(5.52228 0 2.81142)
(5.04915 0 3.01615)
(4.53863 0 3.1999)
(3.98629 0 3.34655)
(3.38756 0 3.43576)
(2.73694 0 3.44302)
(2.03599 0 3.34113)
(1.24159 0 3.11314)
(0.563443 0 2.69268)
(9.99306 0 0.0825938)
(9.96981 0 0.163618)
(9.92806 0 0.244067)
(9.86884 0 0.325503)
(9.79311 0 0.409476)
(9.70124 0 0.497244)
(9.5932 0 0.589884)
(9.46884 0 0.68845)
(9.32791 0 0.794003)
(9.17008 0 0.907602)
(8.99494 0 1.0303)
(8.80201 0 1.16313)
(8.5907 0 1.30711)
(8.36036 0 1.4632)
(8.11028 0 1.63227)
(7.83961 0 1.815)
(7.54739 0 2.0118)
(7.23242 0 2.22265)
(6.89322 0 2.44686)
(6.52784 0 2.68281)
(6.13374 0 2.92745)
(5.70747 0 3.17583)
(5.24456 0 3.42037)
(4.73935 0 3.65014)
(4.18505 0 3.8501)
(3.57434 0 4.00066)
(2.89914 0 4.07756)
(2.1618 0 4.05194)
(1.31592 0 3.90116)
(0.583128 0 3.53957)
(9.99326 0 0.0909346)
(9.97072 0 0.180421)
(9.93045 0 0.269687)
(9.87361 0 0.360267)
(9.80116 0 0.45368)
(9.71342 0 0.551251)
(9.61035 0 0.654162)
(9.49185 0 0.763555)
(9.35771 0 0.880575)
(9.20767 0 1.00636)
(9.04138 0 1.14205)
(8.85838 0 1.28877)
(8.65816 0 1.44764)
(8.44008 0 1.61972)
(8.20341 0 1.80601)
(7.94727 0 2.00736)
(7.67056 0 2.2244)
(7.37191 0 2.45744)
(7.0495 0 2.70621)
(6.70094 0 2.96971)
(6.32297 0 3.24578)
(5.91123 0 3.53062)
(5.4599 0 3.8181)
(4.96152 0 4.09894)
(4.4069 0 4.35972)
(3.78589 0 4.58184)
(3.08709 0 4.74068)
(2.31231 0 4.80392)
(1.41037 0 4.74042)
(0.614186 0 4.44118)
(9.99352 0 0.0989991)
(9.9719 0 0.196593)
(9.9334 0 0.294216)
(9.87923 0 0.393445)
(9.81039 0 0.495792)
(9.72715 0 0.602633)
(9.62951 0 0.715237)
(9.51738 0 0.834826)
(9.39064 0 0.96262)
(9.24907 0 1.09984)
(9.09238 0 1.24769)
(8.92019 0 1.40741)
(8.73202 0 1.5802)
(8.52729 0 1.76725)
(8.30528 0 1.96972)
(8.06507 0 2.18865)
(7.80551 0 2.42497)
(7.52504 0 2.67936)
(7.22161 0 2.95211)
(6.89242 0 3.243)
(6.53363 0 3.55095)
(6.14001 0 3.87362)
(5.70453 0 4.20677)
(5.21791 0 4.54337)
(4.66838 0 4.87231)
(4.04223 0 5.17669)
(3.32308 0 5.43186)
(2.50923 0 5.60132)
(1.54149 0 5.64267)
(0.663884 0 5.41709)
(9.99384 0 0.106711)
(9.9733 0 0.212015)
(9.93679 0 0.317524)
(9.88557 0 0.424886)
(9.82062 0 0.535627)
(9.74224 0 0.651169)
(9.65042 0 0.772846)
(9.54515 0 0.901955)
(9.42634 0 1.03978)
(9.29385 0 1.18761)
(9.14746 0 1.34674)
(8.98686 0 1.51848)
(8.81165 0 1.70413)
(8.62131 0 1.90503)
(8.41517 0 2.12249)
(8.19235 0 2.35779)
(7.95167 0 2.61217)
(7.69153 0 2.88676)
(7.40974 0 3.18251)
(7.10327 0 3.50008)
(6.76792 0 3.83968)
(6.39783 0 4.20072)
(5.98497 0 4.5813)
(5.51842 0 4.97737)
(4.98364 0 5.38123)
(4.36247 0 5.77929)
(3.63109 0 6.14864)
(2.77938 0 6.4499)
(1.73291 0 6.62746)
(0.744574 0 6.50184)
(9.9942 0 0.114014)
(9.97487 0 0.22659)
(9.94055 0 0.339496)
(9.89251 0 0.454455)
(9.83172 0 0.573024)
(9.75849 0 0.69666)
(9.67287 0 0.826755)
(9.57485 0 0.964667)
(9.46445 0 1.11174)
(9.34158 0 1.26932)
(9.2061 0 1.43877)
(9.05779 0 1.62147)
(8.89636 0 1.81884)
(8.72136 0 2.03233)
(8.53224 0 2.26343)
(8.3282 0 2.51366)
(8.10814 0 2.78458)
(7.87056 0 3.07782)
(7.6133 0 3.39499)
(7.33335 0 3.73776)
(7.02646 0 4.10772)
(6.6866 0 4.50628)
(6.30523 0 4.93431)
(5.8703 0 5.39157)
(5.36487 0 5.87534)
(4.76588 0 6.37802)
(4.03963 0 6.88271)
(3.16041 0 7.35261)
(2.02392 0 7.72186)
(0.880317 0 7.75538)
(9.99459 0 0.120861)
(9.97657 0 0.24024)
(9.94461 0 0.360032)
(9.89995 0 0.482034)
(9.84355 0 0.607838)
(9.77574 0 0.738935)
(9.69661 0 0.876762)
(9.60621 0 1.02272)
(9.50461 0 1.17821)
(9.39181 0 1.34462)
(9.26777 0 1.52338)
(9.13236 0 1.71593)
(8.9854 0 1.92377)
(8.82659 0 2.14848)
(8.6555 0 2.3917)
(8.47152 0 2.65517)
(8.27373 0 2.9408)
(8.06083 0 3.25064)
(7.83096 0 3.587)
(7.58141 0 3.95251)
(7.30831 0 4.35018)
(7.00605 0 4.7835)
(6.66647 0 5.25641)
(6.27757 0 5.77319)
(5.82136 0 6.3378)
(5.27118 0 6.9523)
(4.58306 0 7.61318)
(3.70842 0 8.29993)
(2.48686 0 8.95651)
(1.12375 0 9.29074)
(9.99501 0 0.127219)
(9.97838 0 0.252901)
(9.94891 0 0.379046)
(9.90779 0 0.507521)
(9.85598 0 0.639952)
(9.79381 0 0.777856)
(9.72141 0 0.922705)
(9.63892 0 1.07594)
(9.54645 0 1.23899)
(9.4441 0 1.41328)
(9.33192 0 1.60029)
(9.2099 0 1.80151)
(9.07799 0 2.01851)
(8.93606 0 2.25296)
(8.78387 0 2.50662)
(8.62103 0 2.78144)
(8.44691 0 3.07959)
(8.26058 0 3.40353)
(8.06065 0 3.75614)
(7.84507 0 4.14091)
(7.61082 0 4.56211)
(7.35345 0 5.02516)
(7.06634 0 5.53699)
(6.73938 0 6.10657)
(6.35662 0 6.74557)
(5.89245 0 7.46904)
(5.29881 0 8.29606)
(4.50659 0 9.24702)
(3.26659 0 10.3397)
(1.6036 0 11.3552)
(9.99545 0 0.133059)
(9.98026 0 0.264521)
(9.95339 0 0.396468)
(9.91596 0 0.530823)
(9.86888 0 0.669244)
(9.81252 0 0.813268)
(9.74707 0 0.96439)
(9.6727 0 1.12408)
(9.58962 0 1.29378)
(9.498 0 1.47496)
(9.398 0 1.66909)
(9.28974 0 1.87773)
(9.17332 0 2.10248)
(9.0488 0 2.34506)
(8.91615 0 2.60734)
(8.77527 0 2.8914)
(8.62591 0 3.1996)
(8.46762 0 3.53469)
(8.29967 0 3.89997)
(8.12093 0 4.29954)
(7.92966 0 4.73862)
(7.72332 0 5.22405)
(7.49805 0 5.76504)
(7.24794 0 6.3744)
(6.96348 0 7.07054)
(6.6291 0 7.88125)
(6.21198 0 8.85187)
(5.66265 0 10.0652)
(4.68628 0 11.7287)
(2.68448 0 14.5851)
(0.121946 0 -0.120697)
(0.285737 0 -0.109575)
(0.452564 0 -0.0857631)
(0.59099 0 -0.0627275)
(0.695377 0 -0.0431426)
(0.769439 0 -0.0269354)
(0.817971 0 -0.0135186)
(0.844697 0 -0.00236344)
(0.852612 0 0.00671743)
(0.844442 0 0.0128189)
(0.822468 0 0.0170865)
(0.789746 0 0.019962)
(0.749105 0 0.0215448)
(0.703266 0 0.0218986)
(0.654952 0 0.0211298)
(0.606804 0 0.0194063)
(0.561173 0 0.0169685)
(0.51992 0 0.014139)
(0.484248 0 0.0112761)
(0.454596 0 0.00870421)
(0.430633 0 0.00663819)
(0.411451 0 0.0051358)
(0.395901 0 0.00410753)
(0.382985 0 0.00338528)
(0.372056 0 0.00282643)
(0.362772 0 0.00236273)
(0.354915 0 0.00198296)
(0.348259 0 0.00169946)
(0.34251 0 0.00149729)
(0.336657 0 0.00117499)
(0.105934 0 -0.284594)
(0.26728 0 -0.26605)
(0.424712 0 -0.215141)
(0.558511 0 -0.164643)
(0.664756 0 -0.121328)
(0.747034 0 -0.0851756)
(0.809523 0 -0.0549236)
(0.855343 0 -0.0293652)
(0.886475 0 -0.00761856)
(0.904039 0 0.0103402)
(0.907347 0 0.0244701)
(0.898813 0 0.0350162)
(0.881088 0 0.04209)
(0.856946 0 0.0458382)
(0.829185 0 0.0465364)
(0.800484 0 0.0446133)
(0.773215 0 0.0406442)
(0.749232 0 0.0353182)
(0.729693 0 0.0294007)
(0.714958 0 0.0236471)
(0.70463 0 0.0186571)
(0.69778 0 0.01473)
(0.693346 0 0.0118224)
(0.690496 0 0.00965213)
(0.688768 0 0.00793229)
(0.687948 0 0.00650346)
(0.687885 0 0.00532118)
(0.688367 0 0.00440171)
(0.689048 0 0.00374746)
(0.689579 0 0.00322118)
(0.0855417 0 -0.452358)
(0.227062 0 -0.42228)
(0.355203 0 -0.344161)
(0.463997 0 -0.267508)
(0.550559 0 -0.20221)
(0.618616 0 -0.147882)
(0.671464 0 -0.102626)
(0.71148 0 -0.0646681)
(0.740401 0 -0.0324767)
(0.760396 0 -0.00434571)
(0.772014 0 0.0191615)
(0.774554 0 0.0372925)
(0.77018 0 0.0498643)
(0.760993 0 0.0569988)
(0.749114 0 0.059135)
(0.736561 0 0.0569819)
(0.725081 0 0.0514734)
(0.715992 0 0.0437201)
(0.710064 0 0.0349703)
(0.707424 0 0.0264825)
(0.707555 0 0.019266)
(0.709522 0 0.0138088)
(0.712333 0 0.0100022)
(0.715313 0 0.00732858)
(0.718196 0 0.00530906)
(0.720936 0 0.0037081)
(0.723497 0 0.00247869)
(0.725759 0 0.00166787)
(0.727481 0 0.00134281)
(0.728205 0 0.00166197)
(0.0657436 0 -0.588172)
(0.181738 0 -0.541535)
(0.273869 0 -0.438705)
(0.352967 0 -0.341352)
(0.414904 0 -0.259766)
(0.464218 0 -0.192185)
(0.503081 0 -0.135925)
(0.532926 0 -0.0886771)
(0.554892 0 -0.0486851)
(0.56971 0 -0.0146159)
(0.580496 0 0.0140967)
(0.584262 0 0.0367151)
(0.583357 0 0.0524632)
(0.579797 0 0.0613505)
(0.575295 0 0.0639839)
(0.571218 0 0.0613026)
(0.568568 0 0.0545058)
(0.567954 0 0.0450559)
(0.569546 0 0.0346035)
(0.573007 0 0.024807)
(0.577477 0 0.0169235)
(0.581799 0 0.0114288)
(0.584898 0 0.00801102)
(0.586223 0 0.00582224)
(0.585836 0 0.00424782)
(0.58402 0 0.00303149)
(0.581018 0 0.00217967)
(0.576999 0 0.00177993)
(0.572108 0 0.00188375)
(0.565527 0 0.00272624)
(0.0452546 0 -0.693846)
(0.130552 0 -0.625972)
(0.181253 0 -0.501725)
(0.228478 0 -0.390142)
(0.262619 0 -0.298335)
(0.290322 0 -0.222603)
(0.312262 0 -0.159614)
(0.329161 0 -0.106659)
(0.341667 0 -0.0617536)
(0.349824 0 -0.0236514)
(0.356453 0 0.00901004)
(0.357431 0 0.0350887)
(0.355443 0 0.0528985)
(0.353013 0 0.0625352)
(0.351529 0 0.0649265)
(0.351494 0 0.0613678)
(0.352899 0 0.0533914)
(0.355352 0 0.0427461)
(0.358159 0 0.0313007)
(0.360361 0 0.020999)
(0.360762 0 0.0133577)
(0.358224 0 0.00893302)
(0.351953 0 0.00718591)
(0.342113 0 0.0067023)
(0.329731 0 0.00665191)
(0.315853 0 0.00662212)
(0.301176 0 0.00658801)
(0.286068 0 0.00671797)
(0.270913 0 0.00723613)
(0.253979 0 0.00755221)
(0.0235686 0 -0.764418)
(0.0730131 0 -0.671555)
(0.0782399 0 -0.529389)
(0.0920314 0 -0.409775)
(0.0953414 0 -0.312683)
(0.0982811 0 -0.233087)
(0.0996723 0 -0.16714)
(0.100192 0 -0.111889)
(0.100239 0 -0.0652231)
(0.0996489 0 -0.0261285)
(0.0973407 0 0.00858685)
(0.0933823 0 0.0382147)
(0.0892628 0 0.0564563)
(0.0869574 0 0.0647991)
(0.0861863 0 0.0654323)
(0.0856857 0 0.0604309)
(0.0837731 0 0.051767)
(0.078515 0 0.0414)
(0.0682992 0 0.0313907)
(0.053037 0 0.023596)
(0.0340426 0 0.0191239)
(0.0132601 0 0.0178585)
(-0.00761049 0 0.0182993)
(-0.0269534 0 0.0186552)
(-0.0452419 0 0.0183885)
(-0.0624015 0 0.0176759)
(-0.0784197 0 0.0170267)
(-0.093605 0 0.0168343)
(-0.108671 0 0.0164374)
(-0.123052 0 0.0139348)
(-0.000666873 0 -0.793723)
(0.00773381 0 -0.673533)
(-0.0339175 0 -0.517899)
(-0.0568263 0 -0.396345)
(-0.0869644 0 -0.298769)
(-0.112878 0 -0.220071)
(-0.136397 0 -0.155687)
(-0.156802 0 -0.102377)
(-0.1741 0 -0.0569444)
(-0.190181 0 -0.0166014)
(-0.211036 0 0.0183936)
(-0.215846 0 0.0434451)
(-0.222049 0 0.0584501)
(-0.227541 0 0.0653334)
(-0.234235 0 0.066204)
(-0.243568 0 0.0629961)
(-0.256388 0 0.057385)
(-0.272736 0 0.0508503)
(-0.292037 0 0.0446023)
(-0.313254 0 0.0393361)
(-0.335073 0 0.0353641)
(-0.356341 0 0.0326729)
(-0.376314 0 0.030759)
(-0.394462 0 0.0290943)
(-0.41054 0 0.0272169)
(-0.424418 0 0.0252741)
(-0.436305 0 0.0236424)
(-0.446736 0 0.02243)
(-0.45629 0 0.0209985)
(-0.463523 0 0.0188414)
(-0.0303052 0 -0.77416)
(-0.0679711 0 -0.626921)
(-0.154005 0 -0.469504)
(-0.219422 0 -0.350233)
(-0.285099 0 -0.257183)
(-0.343279 0 -0.183784)
(-0.394527 0 -0.124351)
(-0.438888 0 -0.0750971)
(-0.476816 0 -0.033002)
(-0.510282 0 0.00273061)
(-0.530962 0 0.0300097)
(-0.543733 0 0.049991)
(-0.554321 0 0.0637933)
(-0.563985 0 0.0713146)
(-0.574534 0 0.0738224)
(-0.586931 0 0.0725827)
(-0.601419 0 0.0686879)
(-0.617711 0 0.063218)
(-0.63533 0 0.0572628)
(-0.653801 0 0.0517778)
(-0.672573 0 0.0473498)
(-0.690992 0 0.0439454)
(-0.70837 0 0.0409752)
(-0.72398 0 0.0378995)
(-0.737276 0 0.0344989)
(-0.748085 0 0.0311284)
(-0.756729 0 0.0283318)
(-0.763952 0 0.0262468)
(-0.770278 0 0.0243853)
(-0.774315 0 0.0226473)
(-0.0666057 0 -0.702521)
(-0.151543 0 -0.533788)
(-0.286161 0 -0.379155)
(-0.396397 0 -0.267433)
(-0.498962 0 -0.184945)
(-0.587586 0 -0.122563)
(-0.662489 0 -0.0730403)
(-0.724806 0 -0.0326143)
(-0.776563 0 0.000194701)
(-0.81218 0 0.0254865)
(-0.835731 0 0.0452861)
(-0.8538 0 0.0610586)
(-0.867469 0 0.0724954)
(-0.878864 0 0.0793478)
(-0.88976 0 0.0821552)
(-0.901295 0 0.081595)
(-0.91392 0 0.0783663)
(-0.927576 0 0.0733499)
(-0.942041 0 0.0676185)
(-0.957148 0 0.062174)
(-0.972732 0 0.0575705)
(-0.988435 0 0.0536677)
(-1.0036 0 0.0498073)
(-1.01733 0 0.0454206)
(-1.02879 0 0.0404979)
(-1.03765 0 0.0356815)
(-1.04429 0 0.0317462)
(-1.04961 0 0.0289303)
(-1.05412 0 0.0268862)
(-1.05669 0 0.025575)
(-0.112636 0 -0.57249)
(-0.25059 0 -0.389835)
(-0.439781 0 -0.247107)
(-0.593175 0 -0.152477)
(-0.728412 0 -0.0864793)
(-0.841495 0 -0.0402424)
(-0.932712 0 -0.00724522)
(-1.00001 0 0.0164239)
(-1.04761 0 0.0345301)
(-1.08333 0 0.0496433)
(-1.11077 0 0.0628824)
(-1.13138 0 0.0739374)
(-1.14672 0 0.0821124)
(-1.1587 0 0.0872563)
(-1.16918 0 0.0895695)
(-1.17957 0 0.0892117)
(-1.19053 0 0.0863802)
(-1.20205 0 0.0816576)
(-1.214 0 0.0760886)
(-1.2264 0 0.0707675)
(-1.23944 0 0.0662364)
(-1.2531 0 0.062184)
(-1.26679 0 0.0577389)
(-1.2794 0 0.0522157)
(-1.28974 0 0.0457674)
(-1.29727 0 0.0394215)
(-1.30244 0 0.0343263)
(-1.30633 0 0.0308873)
(-1.30956 0 0.0287875)
(-1.31127 0 0.0278049)
(-0.17868 0 -0.379579)
(-0.386673 0 -0.198786)
(-0.650214 0 -0.0636119)
(-0.842429 0 0.00359308)
(-0.988309 0 0.0342471)
(-1.09701 0 0.0486759)
(-1.1776 0 0.0563521)
(-1.24045 0 0.0625252)
(-1.28918 0 0.0686964)
(-1.32689 0 0.0753573)
(-1.3558 0 0.0820692)
(-1.37752 0 0.087929)
(-1.39348 0 0.0922623)
(-1.40542 0 0.0950574)
(-1.41536 0 0.0964207)
(-1.42496 0 0.0960209)
(-1.43493 0 0.0934008)
(-1.44509 0 0.0887428)
(-1.45517 0 0.0831242)
(-1.46539 0 0.077883)
(-1.47637 0 0.0736326)
(-1.48852 0 0.0698085)
(-1.50137 0 0.0651247)
(-1.51348 0 0.0586155)
(-1.52319 0 0.0505555)
(-1.52964 0 0.0424984)
(-1.5334 0 0.0361787)
(-1.53592 0 0.0322321)
(-1.53804 0 0.0301849)
(-1.53915 0 0.0294475)
(-0.297346 0 -0.0722755)
(-0.587058 0 0.126102)
(-0.862575 0 0.162307)
(-1.05693 0 0.159552)
(-1.2036 0 0.145507)
(-1.31369 0 0.130009)
(-1.39704 0 0.11777)
(-1.46069 0 0.109199)
(-1.50924 0 0.10376)
(-1.54629 0 0.101517)
(-1.5747 0 0.101609)
(-1.59622 0 0.102293)
(-1.61185 0 0.102514)
(-1.62302 0 0.102566)
(-1.63203 0 0.102797)
(-1.64095 0 0.102379)
(-1.65043 0 0.0999314)
(-1.65981 0 0.0950757)
(-1.66844 0 0.0890555)
(-1.67666 0 0.0837417)
(-1.68576 0 0.0799744)
(-1.69674 0 0.0768182)
(-1.70929 0 0.0722936)
(-1.72151 0 0.0649152)
(-1.73098 0 0.0550271)
(-1.7364 0 0.0449196)
(-1.73858 0 0.0372368)
(-1.73955 0 0.032934)
(-1.74058 0 0.0311032)
(-1.74121 0 0.0305708)
(-0.395011 0 0.419071)
(-0.731579 0 0.459025)
(-1.05651 0 0.393607)
(-1.27098 0 0.32283)
(-1.42208 0 0.262657)
(-1.52936 0 0.213313)
(-1.60754 0 0.177968)
(-1.66646 0 0.153884)
(-1.7109 0 0.136828)
(-1.74426 0 0.125992)
(-1.77011 0 0.120172)
(-1.79026 0 0.116198)
(-1.80471 0 0.112114)
(-1.81418 0 0.108998)
(-1.82146 0 0.108135)
(-1.82949 0 0.108151)
(-1.83887 0 0.10616)
(-1.848 0 0.100877)
(-1.85536 0 0.0939413)
(-1.86143 0 0.0882913)
(-1.86845 0 0.0852806)
(-1.87842 0 0.0834087)
(-1.89121 0 0.0795766)
(-1.90422 0 0.0714387)
(-1.91389 0 0.0593365)
(-1.91821 0 0.0466027)
(-1.91834 0 0.0373)
(-1.9174 0 0.0328746)
(-1.9173 0 0.0315646)
(-1.91755 0 0.031244)
(-0.522457 0 0.945954)
(-0.955578 0 0.870552)
(-1.32258 0 0.659302)
(-1.52544 0 0.488077)
(-1.65848 0 0.373267)
(-1.7485 0 0.285314)
(-1.81043 0 0.229221)
(-1.858 0 0.194825)
(-1.89459 0 0.167811)
(-1.92126 0 0.147966)
(-1.94248 0 0.136793)
(-1.96052 0 0.129024)
(-1.9733 0 0.120546)
(-1.97984 0 0.113832)
(-1.98397 0 0.112293)
(-1.99056 0 0.113914)
(-2.00034 0 0.113087)
(-2.00992 0 0.106989)
(-2.0161 0 0.0981157)
(-2.01941 0 0.0914871)
(-2.02373 0 0.0895111)
(-2.03264 0 0.0897741)
(-2.04628 0 0.0873639)
(-2.06097 0 0.0785847)
(-2.07139 0 0.0636554)
(-2.07438 0 0.0473676)
(-2.07166 0 0.0359979)
(-2.06815 0 0.0318401)
(-2.06687 0 0.0316313)
(-2.06691 0 0.0316022)
(-0.765822 0 2.01202)
(-1.307 0 1.56626)
(-1.7027 0 0.960745)
(-1.84005 0 0.572463)
(-1.917 0 0.44006)
(-1.97044 0 0.336168)
(-1.99958 0 0.271515)
(-2.03027 0 0.232054)
(-2.0594 0 0.189989)
(-2.07723 0 0.156805)
(-2.09068 0 0.14455)
(-2.10576 0 0.139031)
(-2.11676 0 0.128287)
(-2.11878 0 0.11692)
(-2.11747 0 0.114002)
(-2.12181 0 0.118524)
(-2.13301 0 0.119776)
(-2.1443 0 0.112241)
(-2.1493 0 0.0999336)
(-2.14857 0 0.0915506)
(-2.14883 0 0.091423)
(-2.15629 0 0.0955311)
(-2.17149 0 0.0959003)
(-2.18902 0 0.0868078)
(-2.20093 0 0.0682114)
(-2.20219 0 0.0469282)
(-2.19529 0 0.0327125)
(-2.18811 0 0.0294708)
(-2.18561 0 0.0314493)
(-2.18572 0 0.031969)
(9.9959 0 0.138454)
(9.98225 0 0.275255)
(9.9581 0 0.412551)
(9.92453 0 0.552308)
(9.88242 0 0.696206)
(9.83216 0 0.845796)
(9.77398 0 1.00259)
(9.70814 0 1.16805)
(9.63491 0 1.34366)
(9.55457 0 1.53086)
(9.46738 0 1.73117)
(9.37361 0 1.94612)
(9.27352 0 2.17734)
(9.16737 0 2.42658)
(9.05542 0 2.69575)
(8.93787 0 2.98698)
(8.81491 0 3.30274)
(8.68669 0 3.64591)
(8.55327 0 4.02)
(8.41464 0 4.42939)
(8.27072 0 4.87973)
(8.12139 0 5.37848)
(7.96658 0 5.9358)
(7.80653 0 6.56604)
(7.64242 0 7.29027)
(7.47914 0 8.14106)
(7.32983 0 9.1723)
(7.28419 0 10.4774)
(7.73874 0 12.2011)
(7.91363 0 14.9174)
(9.99638 0 0.143414)
(9.98434 0 0.28511)
(9.96305 0 0.427279)
(9.93351 0 0.571918)
(9.89656 0 0.720721)
(9.85262 0 0.875245)
(9.80197 0 1.037)
(9.74492 0 1.20746)
(9.68183 0 1.38808)
(9.61308 0 1.58032)
(9.53906 0 1.78566)
(9.46017 0 2.00563)
(9.37686 0 2.24183)
(9.2896 0 2.49601)
(9.19892 0 2.77004)
(9.10539 0 3.06604)
(9.00965 0 3.38644)
(8.91247 0 3.73408)
(8.81476 0 4.11243)
(8.71767 0 4.52574)
(8.62282 0 4.97944)
(8.53256 0 5.48055)
(8.45059 0 6.03841)
(8.38314 0 6.66561)
(8.34135 0 7.37937)
(8.34721 0 8.20315)
(8.43944 0 9.16711)
(8.67377 0 10.3046)
(9.31862 0 11.5609)
(9.80541 0 12.6533)
(9.99688 0 0.147851)
(9.98651 0 0.293922)
(9.96819 0 0.440429)
(9.94283 0 0.589388)
(9.91121 0 0.742494)
(9.87377 0 0.901299)
(9.83086 0 1.0673)
(9.78283 0 1.24195)
(9.73013 0 1.4267)
(9.67323 0 1.62296)
(9.61262 0 1.83217)
(9.54888 0 2.05583)
(9.4826 0 2.2955)
(9.4145 0 2.55281)
(9.34537 0 2.82959)
(9.27613 0 3.12783)
(9.20787 0 3.44981)
(9.14194 0 3.79815)
(9.08001 0 4.176)
(9.0243 0 4.5871)
(8.97782 0 5.03606)
(8.94484 0 5.52857)
(8.93164 0 6.07162)
(8.94772 0 6.67363)
(9.00755 0 7.34406)
(9.13324 0 8.09161)
(9.35578 0 8.91826)
(9.6847 0 9.81311)
(10.2501 0 10.7251)
(10.9373 0 11.4451)
(9.9974 0 0.151712)
(9.98874 0 0.301583)
(9.97347 0 0.451835)
(9.95239 0 0.604486)
(9.92623 0 0.761224)
(9.89545 0 0.923582)
(9.86042 0 1.09303)
(9.82158 0 1.27101)
(9.77942 0 1.4589)
(9.73452 0 1.65808)
(9.68748 0 1.86994)
(9.63899 0 2.09588)
(9.58983 0 2.33737)
(9.54091 0 2.59595)
(9.49328 0 2.87328)
(9.44816 0 3.17114)
(9.40704 0 3.49157)
(9.37175 0 3.8368)
(9.34458 0 4.20944)
(9.32851 0 4.61246)
(9.32745 0 5.04927)
(9.34671 0 5.52372)
(9.39352 0 6.03994)
(9.4778 0 6.60194)
(9.61274 0 7.2125)
(9.81519 0 7.87136)
(10.1079 0 8.57149)
(10.4997 0 9.29834)
(11.0576 0 10.0418)
(11.8513 0 10.6889)
(9.99792 0 0.154952)
(9.99101 0 0.308001)
(9.97884 0 0.461362)
(9.96212 0 0.617037)
(9.9415 0 0.776692)
(9.91746 0 0.941836)
(9.8904 0 1.1139)
(9.86082 0 1.29427)
(9.82928 0 1.48429)
(9.79641 0 1.68526)
(9.76293 0 1.89847)
(9.72964 0 2.12524)
(9.69747 0 2.3669)
(9.6675 0 2.62483)
(9.64097 0 2.90048)
(9.61937 0 3.19539)
(9.60448 0 3.51121)
(9.59847 0 3.84972)
(9.60404 0 4.21285)
(9.62459 0 4.60264)
(9.66441 0 5.0212)
(9.72905 0 5.47057)
(9.82557 0 5.95236)
(9.96295 0 6.46729)
(10.1523 0 7.0143)
(10.4066 0 7.58955)
(10.7433 0 8.18495)
(11.174 0 8.78583)
(11.7219 0 9.38064)
(12.4761 0 9.89444)
(9.99845 0 0.157525)
(9.9933 0 0.313092)
(9.98427 0 0.468882)
(9.97194 0 0.626872)
(9.9569 0 0.788696)
(9.93962 0 0.955819)
(9.92055 0 1.12963)
(9.90022 0 1.31144)
(9.87925 0 1.50253)
(9.85834 0 1.70412)
(9.83826 0 1.91739)
(9.81994 0 2.14353)
(9.8044 0 2.38371)
(9.79286 0 2.63912)
(9.78671 0 2.91096)
(9.7876 0 3.20046)
(9.79752 0 3.50886)
(9.81882 0 3.83741)
(9.85437 0 4.18734)
(9.90766 0 4.55977)
(9.98297 0 4.95562)
(10.0855 0 5.37536)
(10.2217 0 5.81873)
(10.399 0 6.2843)
(10.6263 0 6.76882)
(10.9133 0 7.26654)
(11.2713 0 7.76823)
(11.7082 0 8.25835)
(12.225 0 8.7202)
(12.9021 0 9.1122)
(9.99898 0 0.159394)
(9.9956 0 0.316777)
(9.98971 0 0.474284)
(9.98176 0 0.633846)
(9.97229 0 0.797054)
(9.96174 0 0.965321)
(9.9506 0 1.13997)
(9.93943 0 1.32225)
(9.92888 0 1.51335)
(9.9197 0 1.71438)
(9.91273 0 1.92641)
(9.90895 0 2.15048)
(9.90948 0 2.38759)
(9.91559 0 2.63869)
(9.92879 0 2.90473)
(9.95081 0 3.18659)
(9.9837 0 3.4851)
(10.0299 0 3.80097)
(10.0921 0 4.13477)
(10.1738 0 4.48681)
(10.2789 0 4.85698)
(10.4121 0 5.2446)
(10.5786 0 5.64809)
(10.7843 0 6.06464)
(11.0357 0 6.48978)
(11.3393 0 6.91683)
(11.7012 0 7.33641)
(12.1255 0 7.73512)
(12.6062 0 8.09835)
(13.2128 0 8.40552)
(9.99951 0 0.160525)
(9.99789 0 0.31899)
(9.9951 0 0.477468)
(9.99151 0 0.637833)
(9.98753 0 0.801616)
(9.98362 0 0.97017)
(9.98028 0 1.14475)
(9.97808 0 1.32651)
(9.97769 0 1.51655)
(9.97991 0 1.71586)
(9.98559 0 1.92539)
(9.99577 0 2.146)
(10.0116 0 2.37851)
(10.0344 0 2.62366)
(10.0656 0 2.88209)
(10.1071 0 3.15437)
(10.1608 0 3.44091)
(10.2291 0 3.74195)
(10.3145 0 4.05747)
(10.4202 0 4.3871)
(10.5495 0 4.72999)
(10.7063 0 5.0846)
(10.8948 0 5.44856)
(11.1192 0 5.81835)
(11.3839 0 6.18906)
(11.6927 0 6.55413)
(12.0484 0 6.90528)
(12.4525 0 7.23216)
(12.8976 0 7.5236)
(13.4417 0 7.76823)
(10 0 0.160889)
(10.0001 0 0.319676)
(10.0004 0 0.478356)
(10.0011 0 0.638731)
(10.0025 0 0.802264)
(10.0051 0 0.970236)
(10.0093 0 1.14382)
(10.0158 0 1.32408)
(10.0252 0 1.512)
(10.0384 0 1.70847)
(10.0561 0 1.91428)
(10.0795 0 2.13014)
(10.1097 0 2.35666)
(10.1479 0 2.59435)
(10.1958 0 2.84361)
(10.2548 0 3.10468)
(10.327 0 3.37761)
(10.4144 0 3.66223)
(10.5195 0 3.95805)
(10.6448 0 4.26419)
(10.7931 0 4.57926)
(10.9674 0 4.90125)
(11.1708 0 5.22737)
(11.4062 0 5.55389)
(11.6762 0 5.87608)
(11.9827 0 6.18806)
(12.3266 0 6.48296)
(12.7075 0 6.75292)
(13.1179 0 6.98957)
(13.6066 0 7.18602)
(10.0005 0 0.160465)
(10.0023 0 0.318794)
(10.0056 0 0.476889)
(10.0104 0 0.636467)
(10.0171 0 0.798916)
(10.0259 0 0.965436)
(10.0375 0 1.13711)
(10.0523 0 1.31491)
(10.0711 0 1.4997)
(10.0946 0 1.69224)
(10.1237 0 1.89319)
(10.1594 0 2.10309)
(10.2028 0 2.32236)
(10.2552 0 2.55132)
(10.318 0 2.79009)
(10.3926 0 3.03866)
(10.4808 0 3.29677)
(10.5845 0 3.56391)
(10.7057 0 3.83925)
(10.8465 0 4.12158)
(11.009 0 4.40917)
(11.1956 0 4.6998)
(11.4082 0 4.99057)
(11.6487 0 5.2779)
(11.9184 0 5.55749)
(12.2178 0 5.82436)
(12.5466 0 6.07295)
(12.9035 0 6.29736)
(13.2812 0 6.49153)
(13.7219 0 6.65126)
(10.001 0 0.159239)
(10.0044 0 0.316315)
(10.0106 0 0.473025)
(10.0194 0 0.630994)
(10.0311 0 0.791525)
(10.0459 0 0.955729)
(10.0645 0 1.1246)
(10.0872 0 1.299)
(10.1148 0 1.47968)
(10.1481 0 1.66729)
(10.1877 0 1.86233)
(10.2348 0 2.06519)
(10.2903 0 2.27613)
(10.3553 0 2.49525)
(10.4313 0 2.72249)
(10.5194 0 2.95759)
(10.6213 0 3.20006)
(10.7384 0 3.44916)
(10.8724 0 3.70381)
(11.025 0 3.9626)
(11.1977 0 4.22368)
(11.3921 0 4.48476)
(11.6094 0 4.74309)
(11.8506 0 4.99538)
(12.116 0 5.23793)
(12.4054 0 5.46661)
(12.7176 0 5.6771)
(13.0509 0 5.86502)
(13.3989 0 6.02612)
(13.7983 0 6.15787)
(10.0015 0 0.157202)
(10.0065 0 0.312223)
(10.0154 0 0.466747)
(10.028 0 0.622297)
(10.0445 0 0.780083)
(10.065 0 0.941126)
(10.0901 0 1.10632)
(10.1203 0 1.27643)
(10.1561 0 1.45209)
(10.1983 0 1.63382)
(10.2477 0 1.82201)
(10.305 0 2.01689)
(10.3713 0 2.21857)
(10.4476 0 2.42698)
(10.5349 0 2.6419)
(10.6345 0 2.86288)
(10.7477 0 3.08927)
(10.8756 0 3.32016)
(11.0195 0 3.55434)
(11.1806 0 3.79031)
(11.36 0 4.02623)
(11.5587 0 4.25991)
(11.7772 0 4.48882)
(12.0158 0 4.71008)
(12.2744 0 4.9206)
(12.552 0 5.11707)
(12.8473 0 5.29617)
(13.1583 0 5.45474)
(13.4795 0 5.58983)
(13.8435 0 5.69994)
(10.0019 0 0.154354)
(10.0084 0 0.306519)
(10.0199 0 0.458059)
(10.0362 0 0.610387)
(10.0571 0 0.764619)
(10.083 0 0.921681)
(10.1142 0 1.08237)
(10.1513 0 1.24734)
(10.1947 0 1.41714)
(10.2451 0 1.59216)
(10.3031 0 1.77265)
(10.3696 0 1.95875)
(10.4454 0 2.15042)
(10.5314 0 2.34746)
(10.6285 0 2.5495)
(10.7376 0 2.75599)
(10.8598 0 2.96616)
(10.9961 0 3.17899)
(11.1472 0 3.39326)
(11.314 0 3.60745)
(11.4973 0 3.81982)
(11.6974 0 4.02835)
(11.9144 0 4.23081)
(12.1483 0 4.42477)
(12.3984 0 4.60767)
(12.6635 0 4.77695)
(12.9423 0 4.9301)
(13.2325 0 5.06484)
(13.5298 0 5.17919)
(13.8632 0 5.27229)
(10.0024 0 0.150699)
(10.0102 0 0.299215)
(10.0241 0 0.446984)
(10.0438 0 0.595306)
(10.0689 0 0.745198)
(10.0998 0 0.897493)
(10.1366 0 1.05289)
(10.18 0 1.21195)
(10.2303 0 1.37511)
(10.288 0 1.54265)
(10.3538 0 1.71475)
(10.4284 0 1.8914)
(10.5124 0 2.07247)
(10.6066 0 2.25766)
(10.7118 0 2.44651)
(10.8286 0 2.63837)
(10.9578 0 2.83242)
(11.1002 0 3.02762)
(11.2563 0 3.22276)
(11.4265 0 3.4164)
(11.6112 0 3.60694)
(11.8105 0 3.79257)
(12.0242 0 3.97139)
(12.2518 0 4.14138)
(12.4925 0 4.3005)
(12.745 0 4.44676)
(13.0079 0 4.57831)
(13.2792 0 4.69354)
(13.5551 0 4.79113)
(13.862 0 4.87062)
(10.0027 0 0.146252)
(10.0119 0 0.290339)
(10.0281 0 0.433566)
(10.0508 0 0.57712)
(10.0798 0 0.721918)
(10.1152 0 0.8687)
(10.1572 0 1.01807)
(10.2063 0 1.1705)
(10.2627 0 1.32633)
(10.327 0 1.48575)
(10.3996 0 1.64884)
(10.4811 0 1.81552)
(10.5721 0 1.98557)
(10.6731 0 2.15861)
(10.7848 0 2.33412)
(10.9076 0 2.51142)
(11.0421 0 2.68966)
(11.1887 0 2.86784)
(11.3478 0 3.0448)
(11.5194 0 3.21921)
(11.7038 0 3.38964)
(11.9007 0 3.55455)
(12.1096 0 3.71231)
(12.33 0 3.86129)
(12.5609 0 3.99989)
(12.801 0 4.12659)
(13.0489 0 4.24003)
(13.3029 0 4.33911)
(13.5597 0 4.42295)
(13.8436 0 4.49139)
(10.0031 0 0.14103)
(10.0134 0 0.279927)
(10.0317 0 0.417866)
(10.0573 0 0.555919)
(10.0898 0 0.694904)
(10.1293 0 0.835472)
(10.176 0 0.978138)
(10.2301 0 1.12329)
(10.2919 0 1.27118)
(10.3619 0 1.42193)
(10.4404 0 1.57553)
(10.5278 0 1.73183)
(10.6246 0 1.89056)
(10.7311 0 2.0513)
(10.8478 0 2.2135)
(10.9751 0 2.37646)
(11.1132 0 2.53936)
(11.2625 0 2.70125)
(11.4229 0 2.86105)
(11.5945 0 3.01759)
(11.7771 0 3.16961)
(11.9703 0 3.3158)
(12.1736 0 3.45482)
(12.3863 0 3.58537)
(12.6072 0 3.70621)
(12.8354 0 3.81619)
(13.0693 0 3.91434)
(13.3076 0 3.99991)
(13.5474 0 4.07234)
(13.8112 0 4.13162)
(10.0034 0 0.135058)
(10.0148 0 0.268028)
(10.035 0 0.399961)
(10.0632 0 0.531813)
(10.0988 0 0.664309)
(10.142 0 0.798012)
(10.1928 0 0.933355)
(10.2513 0 1.07065)