/*--------------------------------*- C++ -*----------------------------------*\
  =========                 |
  \\      /  F ield         | OpenFOAM: The Open Source CFD Toolbox
   \\    /   O peration     | Website:  https://openfoam.org
    \\  /    A nd           | Version:  dev
     \\/     M anipulation  |
\*---------------------------------------------------------------------------*/
FoamFile
{
    version     2.0;
    format      ascii;
    class       volScalarField;
    location    "7.7";
    object      p;
}
// * * * * * * * * * * * * * * * * * * * * * * * * * * * * * * * * * * * * * //

dimensions      [0 2 -2 0 0 0 0];

internalField   nonuniform List<scalar> 
2790
(
146.752
146.66
146.927
147.498
148.278
149.235
150.368
151.674
153.151
154.792
156.591
158.542
160.636
162.861
165.202
167.637
170.142
172.681
175.213
177.687
180.045
182.223
184.153
185.774
187.033
187.907
188.343
188.399
188.45
188.662
146.55
146.567
146.86
147.428
148.204
149.158
150.286
151.587
153.056
154.689
156.479
158.419
160.502
162.716
165.046
167.471
169.967
172.5
175.031
177.509
179.877
182.072
184.027
185.675
186.96
187.834
188.231
188.285
188.418
188.703
146.351
146.439
146.75
147.308
148.071
149.012
150.125
151.408
152.856
154.464
156.226
158.135
160.183
162.358
164.647
167.029
169.481
171.972
174.464
176.911
179.261
181.454
183.426
185.116
186.467
187.442
188.035
188.391
188.706
189.005
146.126
146.244
146.568
147.118
147.866
148.791
149.884
151.143
152.562
154.136
155.86
157.725
159.724
161.845
164.073
166.391
168.775
171.198
173.626
176.016
178.323
180.495
182.477
184.216
185.671
186.823
187.691
188.362
188.914
189.433
145.865
145.998
146.33
146.872
147.604
148.508
149.575
150.802
152.184
153.716
155.39
157.199
159.135
161.185
163.337
165.573
167.871
170.206
172.548
174.861
177.106
179.241
181.223
183.014
184.584
185.927
187.057
188.019
188.83
189.577
145.564
145.703
146.037
146.569
147.281
148.159
149.195
150.384
151.721
153.201
154.816
156.559
158.42
160.388
162.449
164.587
166.782
169.011
171.248
173.464
175.626
177.704
179.666
181.486
183.15
184.651
185.997
187.203
188.223
189.141
145.222
145.361
145.692
146.211
146.9
147.748
148.747
149.893
151.179
152.599
154.146
155.811
157.586
159.459
161.416
163.442
165.518
167.624
169.737
171.833
173.888
175.879
177.787
179.597
181.303
182.904
184.398
185.777
186.941
187.988
144.837
144.974
145.299
145.801
146.464
147.278
148.236
149.331
150.559
151.912
153.382
154.962
156.64
158.406
160.246
162.146
164.087
166.051
168.019
169.971
171.888
173.756
175.563
177.305
178.984
180.603
182.158
183.63
184.88
186.03
144.411
144.544
144.858
145.341
145.975
146.751
147.662
148.703
149.866
151.145
152.532
154.016
155.588
157.236
158.947
160.706
162.495
164.299
166.098
167.877
169.621
171.319
172.967
174.567
176.129
177.664
179.173
180.643
181.915
183.153
143.944
144.072
144.373
144.833
145.436
146.171
147.032
148.013
149.106
150.305
151.6
152.981
154.438
155.958
157.528
159.131
160.753
162.375
163.981
165.555
167.084
168.558
169.976
171.344
172.677
173.996
175.317
176.655
177.855
179.16
143.439
143.561
143.846
144.282
144.85
145.54
146.347
147.264
148.283
149.396
150.593
151.864
153.197
154.58
155.997
157.433
158.871
160.292
161.679
163.014
164.282
165.472
166.579
167.607
168.572
169.501
170.432
171.431
172.394
173.712
142.897
143.012
143.28
143.688
144.219
144.863
145.612
146.461
147.402
148.424
149.518
150.672
151.875
153.112
154.368
155.624
156.863
158.064
159.206
160.268
161.23
162.072
162.781
163.347
163.774
164.084
164.328
164.637
165.02
166.193
142.32
142.427
142.677
143.056
143.548
144.142
144.832
145.61
146.468
147.395
148.382
149.415
150.482
151.566
152.651
153.718
154.745
155.708
156.584
157.343
157.956
158.391
158.613
158.588
158.286
157.689
156.816
155.826
154.88
155.386
141.711
141.809
142.04
142.389
142.84
143.383
144.01
144.715
145.488
146.317
147.193
148.101
149.026
149.953
150.861
151.73
152.536
153.25
153.841
154.273
154.503
154.48
154.142
153.41
152.188
150.36
147.8
144.502
140.56
138.529
141.072
141.161
141.371
141.689
142.098
142.588
143.152
143.781
144.467
145.196
145.958
146.738
147.52
148.285
149.013
149.679
150.257
150.713
151.009
151.099
150.926
150.416
149.471
147.957
145.679
142.348
137.509
130.499
120.05
107.848
0.686552
0.666659
0.597765
0.502652
0.404489
0.315309
0.239727
0.178804
0.131816
0.0968646
0.072325
0.0557391
0.0448241
0.0378572
0.033558
0.030935
0.0292113
0.0277974
0.0262665
0.0243357
0.0218608
0.0188251
0.0153428
0.0116349
0.00804876
0.00492894
0.00252783
0.00090245
-6.07273e-05
-0.000563733
0.638537
0.616134
0.551382
0.463753
0.373356
0.290801
0.220468
0.163641
0.12003
0.0885925
0.0666884
0.0518699
0.0422375
0.036214
0.0326196
0.0305184
0.0291614
0.027983
0.0265773
0.0246793
0.0221637
0.0190194
0.0153927
0.0115639
0.00787705
0.00470523
0.00232465
0.000767533
-0.000110492
-0.000262304
0.584973
0.558256
0.496105
0.415494
0.333443
0.258552
0.194723
0.143327
0.104181
0.0759346
0.0567719
0.0445418
0.0371631
0.0329524
0.0308375
0.0299287
0.0294893
0.0289557
0.0279333
0.0261739
0.023594
0.0202358
0.0161942
0.011868
0.00774101
0.00429634
0.00187296
0.00042963
-0.000245547
-0.000101208
0.532737
0.501587
0.44116
0.366506
0.292192
0.224644
0.167231
0.121321
0.086864
0.0626697
0.0465564
0.0365887
0.03131
0.0288544
0.0282713
0.0286241
0.0291618
0.0293321
0.0287545
0.0271992
0.02461
0.0208519
0.0164033
0.0117032
0.00727742
0.00361259
0.00108084
-0.000225972
-0.000799039
-0.000694929
0.495296
0.459925
0.401011
0.330581
0.261871
0.199511
0.146632
0.104612
0.0735779
0.0525029
0.0392166
0.0312029
0.0265216
0.0250351
0.0254489
0.0267224
0.0280666
0.0288853
0.0287557
0.0273788
0.0245286
0.0206384
0.0161076
0.0112873
0.00678396
0.0033532
0.00114727
-0.000177652
-0.000792727
-0.00088038
0.484912
0.444374
0.386431
0.317402
0.250752
0.19004
0.138499
0.0975662
0.0676114
0.0476227
0.0346023
0.0264925
0.0229135
0.0219559
0.0228776
0.0246644
0.0266035
0.0280674
0.0285285
0.0276341
0.0251512
0.0211764
0.0162017
0.0108458
0.00591359
0.00224835
0.000144932
-0.000882447
-0.00137831
-0.00109095
0.512341
0.464112
0.40474
0.332704
0.262891
0.199239
0.145099
0.10205
0.0706235
0.0500738
0.0377118
0.0287778
0.0224484
0.0202973
0.0207967
0.0223992
0.0243058
0.0259206
0.0266801
0.0261194
0.0239638
0.0203116
0.0155625
0.0103489
0.00558173
0.00205289
-4.60318e-05
-0.00126306
-0.00202989
-0.00131577
0.582203
0.524902
0.456415
0.375403
0.296755
0.225871
0.166041
0.118526
0.0832417
0.0585359
0.0414734
0.0303742
0.0237916
0.0206047
0.0199493
0.0207444
0.0221753
0.0236171
0.0244616
0.0241273
0.0222191
0.018736
0.0140824
0.00899041
0.00441263
0.00110553
-0.000894704
-0.00225986
-0.00310568
-0.00159398
0.694424
0.618729
0.531708
0.434692
0.342271
0.260603
0.192866
0.139432
0.0986183
0.0686511
0.0480036
0.0344006
0.0259688
0.0213875
0.0194603
0.0191605
0.0197781
0.0207735
0.0215311
0.0213228
0.0195498
0.016071
0.0113475
0.00633654
0.00212689
-0.00064984
-0.0022685
-0.00355115
-0.00421163
-0.00187518
0.83156
0.724773
0.608861
0.491034
0.384199
0.291618
0.214676
0.154077
0.108729
0.0759211
0.0528231
0.0372908
0.0274858
0.0218072
0.0187766
0.017328
0.0169579
0.0173889
0.0180643
0.0180157
0.0162717
0.0124759
0.00724412
0.00198549
-0.00185294
-0.00374976
-0.00448024
-0.00518294
-0.0052836
-0.0021424
0.961093
0.813605
0.669835
0.527613
0.404115
0.303244
0.222953
0.160336
0.113176
0.078739
0.0541785
0.0374973
0.0270721
0.0210117
0.0173247
0.0147784
0.0132652
0.0130972
0.013912
0.0143178
0.0126515
0.00817051
0.00177176
-0.00430868
-0.00788321
-0.00846735
-0.00761926
-0.00711332
-0.00628815
-0.00238846
1.06784
0.866107
0.685978
0.526895
0.395807
0.292324
0.212324
0.151552
0.106689
0.0739144
0.0499676
0.0334753
0.0236702
0.0184766
0.0149258
0.0113408
0.00835252
0.00749452
0.0088848
0.010387
0.00906128
0.003452
-0.0050948
-0.0129261
-0.0164654
-0.0151058
-0.0116879
-0.00923135
-0.00719467
-0.00260739
1.09165
0.821432
0.614922
0.453902
0.332697
0.243136
0.175068
0.123429
0.086576
0.059964
0.0391378
0.0240369
0.0162775
0.0138605
0.0117408
0.00708206
0.0018375
-2.66097e-05
0.00267769
0.00649458
0.00613679
-0.00114407
-0.0133052
-0.0243696
-0.0283052
-0.0240503
-0.0165864
-0.0113078
-0.00796478
-0.00279499
0.867763
0.523738
0.373197
0.27527
0.19751
0.147972
0.109148
0.074911
0.0522401
0.0373235
0.0219644
0.00827789
0.00382664
0.00728141
0.00889152
0.00287346
-0.0064423
-0.0102775
-0.00515621
0.00312169
0.00493777
-0.00473018
-0.0227119
-0.039349
-0.0444624
-0.0358583
-0.0220504
-0.0128709
-0.0085211
-0.00294866
0.193511
-0.218261
-0.141754
-0.0295445
-0.0204494
0.0139077
0.027103
0.00810784
0.000103784
0.00573729
0.000131198
-0.0137621
-0.0144564
-0.000487554
0.00865216
4.48713e-05
-0.0173873
-0.0254853
-0.0161167
0.000593163
0.00692499
-0.00601542
-0.0330553
-0.0588729
-0.0665533
-0.0514062
-0.0275559
-0.0129945
-0.00868471
-0.00306701
140.392
140.473
140.662
140.946
141.311
141.746
142.244
142.796
143.391
144.017
144.662
145.31
145.944
146.544
147.086
147.545
147.889
148.08
148.074
147.813
147.227
146.218
144.654
142.34
138.978
134.073
126.706
114.963
92.8252
33.1264
139.665
139.737
139.903
140.152
140.471
140.849
141.278
141.749
142.251
142.771
143.295
143.807
144.289
144.719
145.071
145.318
145.424
145.348
145.037
144.427
143.433
141.943
139.797
136.764
132.486
126.379
117.411
103.849
84.3265
55.8598
138.896
138.957
139.1
139.314
139.585
139.904
140.263
140.651
141.057
141.468
141.869
142.244
142.572
142.83
142.993
143.028
142.899
142.559
141.952
141.01
139.638
137.718
135.085
131.508
126.662
120.091
111.204
99.3619
85.1089
68.4455
138.085
138.136
138.255
138.432
138.655
138.914
139.2
139.504
139.814
140.115
140.393
140.63
140.805
140.893
140.868
140.696
140.339
139.748
138.865
137.619
135.917
133.643
130.644
126.723
121.634
115.083
106.772
96.3667
83.8027
68.6379
137.236
137.276
137.371
137.51
137.684
137.882
138.096
138.315
138.528
138.72
138.875
138.975
138.999
138.922
138.715
138.345
137.772
136.948
135.816
134.305
132.33
129.784
126.537
122.434
117.293
110.915
103.099
93.6003
82.251
69.257
136.349
136.379
136.449
136.551
136.675
136.812
136.953
137.088
137.205
137.288
137.323
137.289
137.167
136.93
136.551
135.995
135.223
134.19
132.841
131.109
128.919
126.179
122.785
118.616
113.542
107.428
100.151
91.6117
81.7992
71.1258
135.428
135.448
135.493
135.557
135.631
135.708
135.777
135.829
135.851
135.829
135.746
135.584
135.321
134.934
134.393
133.666
132.717
131.501
129.968
128.06
125.712
122.849
119.389
115.244
110.328
104.56
97.887
90.2966
81.832
72.8289
134.476
134.485
134.506
134.532
134.558
134.575
134.574
134.544
134.474
134.35
134.154
133.869
133.475
132.947
132.258
131.378
130.272
128.901
127.22
125.179
122.725
119.798
116.339
112.286
107.588
102.203
96.118
89.3528
81.957
74.2031
133.496
133.495
133.492
133.482
133.46
133.418
133.349
133.24
133.082
132.859
132.557
132.157
131.64
130.983
130.162
129.147
127.908
126.409
124.613
122.479
119.963
117.022
113.613
109.698
105.248
100.247
94.7027
88.6482
82.1372
75.3976
132.493
132.482
132.455
132.41
132.341
132.243
132.108
131.924
131.681
131.366
130.964
130.457
129.829
129.056
128.117
126.987
125.637
124.037
122.158
119.964
117.425
114.508
111.185
107.434
103.243
98.6122
93.5593
88.1237
82.3585
76.4488
131.471
131.45
131.401
131.321
131.208
131.056
130.858
130.603
130.28
129.879
129.384
128.781
128.051
127.177
126.136
124.909
123.47
121.795
119.859
117.636
115.103
112.239
109.026
105.453
101.521
97.2371
92.6264
87.7276
82.5891
77.3591
130.435
130.405
130.334
130.221
130.066
129.863
129.605
129.283
128.887
128.406
127.827
127.136
126.318
125.354
124.229
122.922
121.415
119.686
117.717
115.49
112.987
110.195
107.106
103.717
100.034
96.0712
91.8542
87.4193
82.8083
78.1405
129.391
129.352
129.261
129.117
128.921
128.67
128.357
127.973
127.51
126.956
126.302
125.533
124.637
123.598
122.402
121.033
119.475
117.713
115.732
113.518
111.062
108.356
105.398
102.191
98.744
95.074
91.2056
87.1712
83.0067
78.8085
128.343
128.297
128.186
128.013
127.78
127.485
127.12
126.68
126.155
125.537
124.815
123.979
123.016
121.915
120.663
119.247
117.655
115.875
113.897
111.712
109.316
106.704
103.879
100.847
97.6193
94.2136
90.6526
86.9646
83.1799
79.3765
127.299
127.245
127.116
126.917
126.65
126.313
125.902
125.41
124.83
124.155
123.374
122.48
121.462
120.311
119.015
117.566
115.953
114.17
112.208
110.063
107.733
105.219
102.525
99.6589
96.6334
93.4651
90.1746
86.7864
83.3259
79.8566
126.265
126.204
126.059
125.834
125.536
125.162
124.71
124.172
123.543
122.817
121.987
121.044
119.981
118.79
117.462
115.991
114.37
112.593
110.657
108.56
106.301
103.885
101.317
98.6062
95.7649
92.8086
89.7559
86.6275
83.445
80.26
125.247
125.179
125.019
124.773
124.446
124.039
123.549
122.971
122.3
121.531
120.659
119.676
118.577
117.355
116.006
114.523
112.902
111.141
109.238
107.193
105.008
102.687
100.239
97.671
94.9964
92.229
89.3849
86.4821
83.5384
80.5963
124.252
124.179
124.005
123.739
123.387
122.951
122.428
121.815
121.108
120.303
119.395
118.38
117.253
116.01
114.647
113.161
111.548
109.809
107.943
105.952
103.84
101.612
99.2749
96.8386
94.3141
91.7143
89.0532
86.3461
83.6082
80.8745
123.288
123.209
123.024
122.74
122.366
121.904
121.353
120.71
119.972
119.137
118.201
117.161
116.013
114.756
113.387
111.903
110.305
108.592
106.766
104.83
102.789
100.648
98.4139
96.0969
93.7069
91.2553
88.7544
86.2174
83.6571
81.1024
122.362
122.278
122.083
121.783
121.39
120.906
120.331
119.662
118.899
118.039
117.08
116.022
114.86
113.595
112.225
110.75
109.169
107.485
105.701
103.819
101.845
99.7847
97.6457
95.4364
93.1661
90.8451
88.4843
86.0948
83.6878
81.2872
121.481
121.393
121.189
120.876
120.466
119.963
119.367
118.678
117.894
117.014
116.039
114.967
113.797
112.528
111.162
109.698
108.138
106.485
104.741
102.912
101.001
99.0153
96.9621
94.8491
92.6849
90.4787
88.2399
85.9783
83.7034
81.4351
120.653
120.562
120.35
120.025
119.601
119.082
118.47
117.763
116.962
116.068
115.08
113.999
112.824
111.556
110.197
108.747
107.21
105.587
103.883
102.102
100.25
98.3328
96.3567
94.3293
92.2585
90.1524
88.0195
85.8683
83.707
81.5524
119.887
119.793
119.574
119.239
118.803
118.271
117.644
116.924
116.11
115.205
114.208
113.121
111.945
110.681
109.331
107.897
106.382
104.789
103.122
101.387
99.5883
97.7319
95.8242
93.8721
91.8828
89.8636
87.8221
85.7656
83.7016
81.6438
119.19
119.093
118.868
118.525
118.079
117.536
116.898
116.167
115.343
114.43
113.427
112.338
111.163
109.904
108.565
107.146
105.653
104.089
102.457
100.763
99.0117
97.2093
95.3616
93.475
91.5561
89.6116
87.6481
85.6724
83.691
81.7154
118.571
118.472
118.241
117.89
117.435
116.883
116.237
115.497
114.666
113.747
112.741
111.651
110.479
109.227
107.898
106.495
105.023
103.484
101.883
100.226
98.5168
96.7613
94.9653
93.1347
91.2757
89.3943
87.4967
85.5887
83.6764
81.7693
118.039
117.937
117.701
117.343
116.881
116.322
115.668
114.922
114.086
113.163
112.156
111.067
109.898
108.653
107.335
105.947
104.493
102.977
101.404
99.7781
98.1047
96.389
94.6366
92.853
91.044
89.2151
87.372
85.5202
83.665
81.8147
117.604
117.499
117.255
116.89
116.421
115.855
115.196
114.445
113.606
112.681
111.673
110.585
109.421
108.183
106.874
105.499
104.061
102.565
101.014
99.4147
97.7707
96.0876
94.3705
92.6247
90.8557
89.0688
87.269
85.4616
83.6513
81.8451
117.278
117.167
116.914
116.542
116.068
115.499
114.835
114.081
113.239
112.313
111.305
110.219
109.058
107.826
106.526
105.161
103.736
102.256
100.724
99.1448
97.5241
95.8665
94.177
92.4608
90.723
88.9685
87.2024
85.4295
83.6545
81.8835
117.076
116.941
116.671
116.294
115.817
115.245
114.579
113.823
112.98
112.054
111.047
109.963
108.806
107.578
106.284
104.927
103.512
102.042
100.523
98.9583
97.3534
95.7129
94.0419
92.3453
90.628
88.8949
87.1507
85.4
83.6472
81.8973
117.058
116.859
116.561
116.176
115.698
115.122
114.454
113.696
112.852
111.925
110.919
109.837
108.683
107.459
106.169
104.818
103.409
101.947
100.436
98.8811
97.2865
95.6572
93.998
92.3138
90.6094
88.8895
87.1587
85.4216
83.6825
81.9456
-50.5317
-30.273
-11.1598
35.4771
28.0049
15.9141
50.9156
38.8085
27.5719
52.3482
41.9154
33.8598
56.6914
48.3948
41.6285
61.0815
54.1658
48.268
64.3591
58.4728
53.4193
66.9602
61.9315
57.6192
69.1533
64.8182
61.107
71.005
67.2241
63.9954
72.5623
69.2305
66.3924
73.8747
70.9112
68.3919
74.9828
72.3243
70.0676
75.9188
73.5152
71.4771
76.7092
74.5207
72.666
77.376
75.3701
73.6708
77.9375
76.0877
74.5205
78.4088
76.6931
75.2389
78.8028
77.2027
75.8454
79.1309
77.6303
76.3563
79.4023
77.9877
76.7852
79.6258
78.2853
77.144
79.8081
78.531
77.442
79.9572
78.734
77.6893
80.0756
78.8978
77.8902
80.1752
79.0347
78.0572
80.2472
79.1366
78.1838
80.3202
79.2324
78.2969
80.3544
79.2829
78.3614
80.4235
79.3661
78.4511
-2.95743
-2.86669
-1.40779
-0.267608
-0.231321
-0.133005
-0.0720404
-0.0988041
-0.0818965
-0.0199825
-0.00771121
-0.0365173
-0.042947
-0.0132876
0.0128372
0.000684583
-0.031572
-0.0479309
-0.0310508
0.0012249
0.0160825
-0.00200937
-0.0435882
-0.0846141
-0.0975623
-0.0725535
-0.0322857
-0.00987017
-0.00796267
-0.00315279
2.13638
-0.758303
0.83375
0.310208
-1.04477
-0.7963
-0.149221
-0.117223
-0.0971712
0.00423373
-0.0147986
-0.104148
-0.122641
-0.0380395
0.0427859
0.0218478
-0.0439929
-0.0823548
-0.0571488
0.00291408
0.0340757
0.00789792
-0.056187
-0.121036
-0.143245
-0.102818
-0.0345771
0.000332737
-0.00487996
-0.00322433
13.297
4.93392
2.12101
-0.330282
-0.642135
0.856418
1.02399
-0.339276
-0.703214
-0.33857
0.0057446
-0.093303
-0.128674
0.028117
0.123494
0.0458583
-0.089719
-0.16734
-0.117167
0.0110091
0.0809409
0.0392385
-0.060321
-0.162881
-0.20379
-0.144322
-0.0312491
0.0246124
0.00408345
-0.00336405
23.0882
13.197
7.31115
3.54132
1.82668
1.30271
0.0738946
-0.601125
-0.200444
0.969921
0.83965
-0.247664
-0.623927
-0.398848
0.106221
0.14752
-0.0867538
-0.225177
-0.136827
0.082203
0.165194
0.0773997
-0.0798141
-0.241089
-0.315458
-0.229483
-0.0216734
0.0734253
0.025207
-0.00384284
32.27
22.4921
15.1662
9.87735
6.24981
3.78304
1.91307
0.923027
0.668084
0.648391
0.129812
-0.465594
-0.517761
0.469083
0.988316
0.355937
-0.232846
-0.555933
-0.4958
-0.0402373
0.254483
0.155329
-0.0725289
-0.30125
-0.409893
-0.252467
0.0181041
0.162048
0.0660699
-0.00541088
40.258
31.3216
23.4279
16.9945
12.0712
8.43248
5.7664
3.89009
2.62142
1.70891
0.940379
0.351732
0.15068
0.452384
0.454458
0.189298
-0.274375
-0.567527
-0.293856
0.508895
0.685745
0.22321
-0.120435
-0.441155
-0.668994
-0.594023
-0.0149816
0.290056
0.130456
-0.0104965
46.778
38.9637
31.1804
24.286
18.6618
14.2074
10.6895
7.93881
5.84578
4.2736
3.05532
2.10321
1.47823
1.1721
0.909314
0.565091
0.0939863
-0.204088
-0.0829325
0.278983
0.41313
0.231554
-0.0927266
-0.467787
-0.717855
-0.426544
0.361213
0.557167
0.207878
-0.023502
52.0881
45.3497
38.0854
31.2514
25.3681
20.4252
16.288
12.8687
10.1024
7.89102
6.10654
4.6694
3.57874
2.8046
2.19666
1.60152
1.01463
0.608961
0.501982
0.584525
0.599985
0.392502
0.0291512
-0.339144
-0.530763
-0.312722
0.160613
0.39778
0.304792
-0.0641022
56.4198
50.5977
44.008
37.5308
31.7118
26.6012
22.1342
18.2757
14.9965
12.2404
9.93223
8.01483
6.45936
5.22238
4.20298
3.30215
2.5125
1.90941
1.54448
1.35045
1.15385
0.829179
0.419264
0.0496814
-0.142639
-0.0464493
0.235632
0.392213
0.261552
-0.302945
59.9549
54.8834
48.9767
42.9888
37.4339
32.3897
27.8273
23.7423
20.1363
16.9907
14.269
11.9331
9.95087
8.28198
6.86333
5.63482
4.57741
3.71313
3.05657
2.55927
2.11244
1.63447
1.14157
0.713029
0.438956
0.374565
0.445248
0.43317
0.173155
-0.517843
62.8585
58.3963
53.1132
47.6428
42.4457
37.6055
33.1093
28.9687
25.2048
21.8232
18.812
16.1513
13.8182
11.7845
10.0117
8.46082
7.11
5.9574
4.99892
4.19897
3.49129
2.82201
2.18966
1.63742
1.21874
0.957068
0.792565
0.57626
0.171584
-0.59294
65.2636
61.298
56.558
51.5776
46.7626
42.1918
37.8582
33.7792
29.9845
26.4928
23.3079
20.424
17.8303
15.5106
13.4422
11.6005
9.9666
8.53067
7.28147
6.1926
5.22219
4.3334
3.51721
2.79305
2.18759
1.70549
1.29922
0.86733
0.307559
-0.522296
67.2699
63.7134
59.437
54.8973
50.4511
46.169
42.0451
38.0965
34.3551
30.8455
27.5804
24.5638
21.7942
19.2651
16.9649
14.8794
12.9951
11.3013
9.78606
8.42963
7.20455
6.08522
5.06036
4.13484
3.31775
2.60362
1.95533
1.30356
0.576998
-0.331476
68.953
65.7366
61.8544
57.7016
53.5942
49.5945
45.6951
41.9109
38.2721
34.8053
31.5273
28.4481
25.5723
22.9004
20.4288
18.1505
16.0575
14.1414
12.3922
10.7956
9.33315
7.98682
6.74526
5.60548
4.56642
3.61799
2.73138
1.85932
0.954647
-0.0563992
70.3706
67.4398
63.8931
60.0767
56.2731
52.5368
48.8588
45.2504
41.7392
38.3511
35.1045
32.0122
29.0828
26.3213
23.7293
21.3052
19.0454
16.9446
14.9959
13.1894
11.5125
9.95231
8.49854
7.14465
5.88461
4.70681
3.58888
2.49846
1.40505
0.263004
71.5681
68.8784
65.6181
62.0935
58.5588
55.0624
51.5932
48.1595
44.7854
41.4949
38.3064
35.2339
32.288
29.4767
26.8046
24.274
21.8847
19.6344
17.5191
15.5324
13.6659
11.9102
10.2567
8.69768
7.22522
5.82781
4.48785
3.18258
1.89172
0.59124
72.581
70.0961
67.081
63.8094
60.5114
57.2302
53.9536
50.6864
47.4494
44.2645
41.149
38.1169
35.1798
32.3469
29.6253
27.0194
24.5315
22.1621
19.9094
17.7699
15.7381
13.8074
11.9706
10.2204
8.54838
6.94394
5.39273
3.87776
2.38409
0.902726
73.4382
71.1276
68.3232
65.2706
62.1802
59.0908
55.9889
52.8767
49.7718
46.6936
43.658
40.6785
37.7665
34.9321
32.1833
29.5262
26.9648
24.5014
22.1363
19.8681
17.6936
15.608
13.6059
11.6805
9.82387
8.02635
6.27568
4.55799
2.86038
1.18304
74.1631
72.0012
69.3778
66.5152
63.6064
60.6866
57.7416
54.7714
51.7906
48.8161
45.8623
42.9416
40.065
37.2426
34.483
31.793
29.1779
26.6412
24.1848
21.8087
19.5116
17.2903
15.1405
13.0564
11.0308
9.05467
7.11712
5.20562
3.30736
1.42716
74.7751
72.7401
70.2723
67.5742
64.8238
62.0533
59.2483
56.4065
53.54
50.6637
47.7902
44.9306
42.0953
39.294
36.5351
33.8261
31.1728
28.5795
26.0493
23.5834
21.1816
18.8421
16.5615
14.3349
12.1558
10.0158
7.9046
5.81007
3.71857
1.63642
75.2902
73.3634
71.0295
68.4734
65.8607
63.221
60.5396
57.8128
55.0504
52.2651
49.468
46.6691
43.8777
41.1029
38.3529
35.6351
32.9556
30.3194
27.7301
25.1898
22.6992
20.2573
17.8617
15.5082
13.1909
10.9017
8.63065
6.36556
4.09166
1.81497
75.7224
73.8876
71.6683
69.2346
66.741
64.2152
61.6422
59.0173
56.3482
53.6459
50.92
48.1792
45.4319
42.6865
39.9506
37.2315
34.5352
31.8669
29.2307
26.6292
24.0637
21.5339
19.0381
16.5725
14.1317
11.708
9.29151
6.86971
4.4269
1.96775
76.0828
74.3259
72.2043
69.8754
67.4842
65.0567
62.578
60.0423
57.4558
54.8279
52.1668
49.4803
46.7756
44.0603
41.3416
38.6261
35.92
33.2283
30.5553
27.9038
25.2757
22.6712
20.0887
17.5251
14.9753
12.4317
9.88453
7.32092
4.7245
2.09816
76.3823
74.6909
72.6519
70.4121
68.1079
65.7644
63.3668
60.9083
58.3938
55.8314
53.2283
50.591
47.9261
45.2401
42.5397
39.8312
37.1202
34.4118
31.7102
29.0185
26.3386
23.671
21.0146
18.3665
15.7216
13.0728
10.41
7.7202
4.98665
2.20995
76.627
74.99
73.0201
70.8548
68.6238
66.3511
64.0219
61.6291
59.1763
56.6704
54.1178
51.5241
48.8949
46.2361
43.5539
40.8539
38.1415
35.4215
32.6981
29.9742
27.252
24.5321
21.8135
19.0934
16.3672
13.6275
10.8644
8.06464
5.21129
2.3027
76.829
75.2361
73.3229
71.2189
69.0481
66.8337
64.5612
62.2229
59.8216
57.3634
54.8536
52.2971
49.699
47.0645
44.3991
41.708
38.9963
36.2686
33.5286
30.7796
28.0235
25.2609
22.4911
19.7114
16.9171
14.1009
11.2528
8.35958
5.40403
2.38153
76.9848
75.4268
73.5584
71.503
69.3801
67.2121
64.9848
62.6902
60.3303
57.9105
55.4354
52.9095
50.3371
47.723
45.072
42.3892
39.6792
36.9463
34.1942
31.4259
28.6433
25.8471
23.0365
20.209
17.3596
14.4813
11.5639
8.59418
5.55499
2.43943
77.1168
75.5845
73.7502
71.7317
69.6448
67.5119
65.319
63.0576
60.7292
58.3387
55.8903
53.3879
50.8354
48.2372
45.5979
42.9219
40.2137
37.4774
34.7165
31.9339
29.1315
26.3099
23.4683
20.6041
17.7125
14.7862
11.815
8.78554
5.68039
2.48894
77.198
75.6819
73.8699
71.8764
69.814
67.7045
65.5345
63.2953
60.9881
58.6173
56.1869
53.7004
51.1614
48.5741
45.9427
43.2715
40.5648
37.8264
35.0599
32.2679
29.4524
26.6138
23.7513
20.8624
17.9421
14.9831
11.975
8.90396
5.75267
2.50885
77.287
75.772
73.9723
71.9938
69.9451
67.8482
65.6903
63.4628
61.1666
58.8059
56.3845
53.9057
51.3732
48.7908
46.1627
43.493
40.786
38.0455
35.2748
32.4767
29.653
26.8043
23.9298
21.0267
18.0902
15.1128
12.0837
8.9884
5.80686
2.51526
)
;

boundaryField
{
    inlet
    {
        type            zeroGradient;
    }
    outlet
    {
        type            fixedValue;
        value           uniform 0;
    }
    flap
    {
        type            zeroGradient;
    }
    upperWall
    {
        type            zeroGradient;
    }
    lowerWall
    {
        type            zeroGradient;
    }
    frontAndBack
    {
        type            empty;
    }
}


// ************************************************************************* //
