/*--------------------------------*- C++ -*----------------------------------*\
  =========                 |
  \\      /  F ield         | OpenFOAM: The Open Source CFD Toolbox
   \\    /   O peration     | Website:  https://openfoam.org
    \\  /    A nd           | Version:  dev
     \\/     M anipulation  |
\*---------------------------------------------------------------------------*/
FoamFile
{
    version     2.0;
    format      ascii;
    class       surfaceScalarField;
    location    "7.7";
    object      phi;
}
// * * * * * * * * * * * * * * * * * * * * * * * * * * * * * * * * * * * * * //

dimensions      [0 3 -1 0 0 0 0];

internalField   nonuniform List<scalar> 
5457
(
0.198418
0.00158237
0.19648
0.00193735
0.194192
0.00228805
0.191509
0.00268354
0.188428
0.00308115
0.184951
0.00347672
0.181072
0.00387852
0.176778
0.00429396
0.17205
0.00472818
0.166865
0.00518518
0.161197
0.00566848
0.155015
0.00618101
0.148291
0.00672496
0.140989
0.00730134
0.13308
0.00790952
0.124533
0.00854648
0.115327
0.00920593
0.10545
0.00987723
0.0949059
0.0105441
0.0837223
0.0111836
0.0719577
0.0117647
0.0597093
0.0122483
0.0471206
0.0125887
0.0343804
0.0127402
0.0216854
0.012695
0.00903522
0.0126501
-0.00291771
0.0119529
-0.00847275
0.00555504
-0.00804324
-0.000429511
-0.00804324
0.199928
0.0016542
0.199176
0.00268977
0.197965
0.00349896
0.196332
0.00431668
0.194272
0.00514116
0.191782
0.00596674
0.188855
0.00680546
0.185478
0.00767079
0.181633
0.00857305
0.177298
0.00952056
0.172446
0.0105206
0.167047
0.0115794
0.16107
0.0127017
0.154482
0.0138903
0.147246
0.0151446
0.139333
0.0164596
0.130715
0.0178239
0.121375
0.0192174
0.11131
0.020609
0.10054
0.0219535
0.0891157
0.0231892
0.077128
0.024236
0.064722
0.0249947
0.0521145
0.0253477
0.0396542
0.0251553
0.0281043
0.0242001
0.0185938
0.0214635
0.00879592
0.0153529
0.00118286
0.00718355
-0.00686038
0.199781
0.00187363
0.199087
0.00338359
0.197946
0.00463986
0.196409
0.00585326
0.194483
0.00706725
0.192164
0.00828575
0.189447
0.00952285
0.186321
0.0107962
0.182773
0.0121209
0.178785
0.0135094
0.174333
0.0149727
0.169391
0.0165204
0.163933
0.0181603
0.157926
0.0198975
0.151337
0.0217329
0.144136
0.0236614
0.13629
0.0256694
0.127776
0.0277314
0.118579
0.029806
0.108701
0.0318315
0.0981692
0.0337212
0.0870468
0.0353584
0.07545
0.0365915
0.0635728
0.0372249
0.051731
0.0369971
0.0403959
0.0355352
0.0297378
0.0321216
0.0191652
0.0259255
0.00959709
0.0167516
0.0027367
0.199703
0.00217055
0.199008
0.00407888
0.197887
0.00576036
0.196376
0.00736414
0.194488
0.00895533
0.192222
0.0105517
0.189575
0.0121705
0.186539
0.0138322
0.183104
0.0155553
0.179258
0.0173559
0.174983
0.0192477
0.17026
0.021243
0.165069
0.023352
0.159384
0.0255817
0.153183
0.0279347
0.146437
0.0304067
0.139123
0.0329839
0.131216
0.0356388
0.122696
0.0383253
0.113555
0.0409725
0.103798
0.0434782
0.0934555
0.0457011
0.0825942
0.0474528
0.0713314
0.0484877
0.0598394
0.048489
0.0483155
0.0470591
0.0368098
0.0436274
0.025187
0.0375483
0.0133351
0.0286035
0.0160718
0.199667
0.00250313
0.198964
0.00478212
0.197863
0.00686165
0.196381
0.00884579
0.194533
0.0108041
0.192318
0.0127663
0.189734
0.0147543
0.186776
0.0167907
0.183434
0.018897
0.179698
0.0210916
0.175555
0.0233906
0.17099
0.0258081
0.165986
0.0283558
0.160526
0.031042
0.154591
0.0338703
0.14816
0.0368373
0.141214
0.0399298
0.133732
0.0431204
0.125695
0.0463623
0.117086
0.049582
0.107892
0.0526718
0.0981131
0.0554803
0.0877631
0.0578029
0.076877
0.0593738
0.065507
0.059859
0.0537064
0.0588597
0.0414526
0.0558812
0.0285867
0.0504141
0.0148518
0.0423384
0.0309236
0.199653
0.00285032
0.198949
0.00548616
0.197871
0.00793956
0.196427
0.0102899
0.194627
0.012604
0.192473
0.0149198
0.189964
0.0172639
0.187093
0.0196615
0.183854
0.0221363
0.180236
0.0247088
0.17623
0.0273971
0.171821
0.0302168
0.166996
0.0331806
0.161741
0.0362979
0.156038
0.0395732
0.149871
0.043004
0.143223
0.0465781
0.136073
0.05027
0.128401
0.0540347
0.120181
0.0578018
0.111386
0.0614664
0.101987
0.0648793
0.0919528
0.0678373
0.0812518
0.0700747
0.069852
0.0712589
0.0577148
0.070997
0.0447588
0.0688371
0.0308478
0.0643252
0.0158724
0.0573137
0.046796
0.19965
0.00320026
0.198954
0.00618213
0.197905
0.00898916
0.196505
0.0116896
0.194763
0.0143462
0.192681
0.0170017
0.190257
0.0196874
0.187488
0.0224311
0.184365
0.0252583
0.180883
0.0281917
0.177029
0.031251
0.172792
0.0344533
0.16816
0.0378127
0.163118
0.0413396
0.157652
0.0450395
0.151744
0.0489116
0.145377
0.0529458
0.138527
0.0571196
0.131169
0.0613932
0.123268
0.0657029
0.114781
0.0699534
0.105652
0.0740074
0.0958143
0.0776754
0.0851835
0.0807054
0.0736655
0.0827769
0.0611588
0.0835036
0.0475529
0.082443
0.0327569
0.0791212
0.0167819
0.0732887
0.0635779
0.199655
0.00354559
0.198975
0.00686222
0.197959
0.0100049
0.19661
0.0130383
0.194934
0.0160222
0.192934
0.0190022
0.190608
0.0220135
0.187952
0.0250863
0.184963
0.0282482
0.18163
0.0315237
0.177947
0.0349344
0.173902
0.0384987
0.169482
0.0422322
0.164675
0.046147
0.159464
0.0502505
0.153831
0.054544
0.147756
0.0590212
0.141211
0.0636646
0.134163
0.0684417
0.126565
0.0733
0.11836
0.0781589
0.109467
0.0829006
0.0997836
0.0873585
0.0891841
0.091305
0.0775217
0.0944393
0.064644
0.0963813
0.0504144
0.0966726
0.0347658
0.0947698
0.0177885
0.090266
0.0813665
0.199664
0.00388141
0.199006
0.00752
0.19803
0.0109811
0.196739
0.0143297
0.195137
0.0176242
0.193227
0.020912
0.191009
0.0242313
0.188481
0.0276148
0.185637
0.0310921
0.182471
0.0346894
0.178976
0.0384298
0.175141
0.0423336
0.170955
0.0464181
0.166405
0.0506975
0.161473
0.0551816
0.156142
0.0598755
0.150386
0.0647777
0.144172
0.0698777
0.137461
0.0751536
0.130194
0.0805669
0.122296
0.0860571
0.113664
0.0915322
0.104165
0.0968575
0.09363
0.10184
0.0818604
0.106209
0.0686451
0.109597
0.053798
0.11152
0.0372334
0.111334
0.0190816
0.108418
0.100448
0.199677
0.00420418
0.199047
0.00815022
0.198116
0.0119124
0.196887
0.0155579
0.195367
0.0191451
0.193556
0.0227226
0.191456
0.026331
0.189066
0.0300055
0.18638
0.0337773
0.183396
0.0376741
0.180104
0.0417209
0.176498
0.0459397
0.172567
0.0503497
0.168297
0.0549676
0.163672
0.0598065
0.158671
0.0648758
0.153269
0.0701804
0.147428
0.0757188
0.1411
0.0814816
0.134218
0.0874481
0.126694
0.093582
0.118402
0.0998238
0.10918
0.10608
0.0988147
0.112205
0.0870472
0.117976
0.0735843
0.12306
0.0581432
0.126961
0.0405476
0.12893
0.0208989
0.128066
0.121347
0.199693
0.00451124
0.199095
0.00874858
0.198213
0.012794
0.197053
0.0167176
0.19562
0.0205784
0.193916
0.0244263
0.191943
0.028304
0.189701
0.0322483
0.187186
0.0362922
0.184395
0.040465
0.181323
0.044793
0.177962
0.0493001
0.174304
0.0540077
0.170337
0.0589349
0.166045
0.0640986
0.161407
0.0695133
0.156397
0.0751909
0.150976
0.0811402
0.145091
0.0873659
0.138672
0.0938677
0.131616
0.100637
0.123786
0.107654
0.114991
0.114875
0.104977
0.122219
0.0934124
0.129541
0.0798908
0.136581
0.0639607
0.142891
0.0452287
0.147662
0.0236079
0.149687
0.144955
0.199711
0.00480054
0.199148
0.00931157
0.19832
0.0136215
0.197234
0.0178038
0.195894
0.0219185
0.194304
0.0260166
0.192465
0.0301424
0.190379
0.0343344
0.188044
0.0386269
0.185459
0.0430505
0.182619
0.047633
0.179519
0.0523998
0.176153
0.0573743
0.172509
0.0625784
0.168575
0.0680326
0.164332
0.0737566
0.159753
0.0797696
0.154803
0.0860909
0.149428
0.0927401
0.143558
0.0997382
0.137088
0.107107
0.129874
0.114868
0.12171
0.123038
0.112308
0.131621
0.101265
0.140584
0.0880359
0.14981
0.0719131
0.159014
0.0520771
0.167498
0.0278797
0.173885
0.172835
0.19973
0.00507045
0.199205
0.00983632
0.198435
0.0143915
0.197427
0.0188124
0.196185
0.0231604
0.194714
0.0274878
0.193016
0.0318397
0.191095
0.0362562
0.188949
0.0407726
0.186578
0.0454208
0.183982
0.0502295
0.181156
0.0552256
0.178096
0.0604342
0.174795
0.0658796
0.171242
0.0715856
0.167422
0.0775767
0.163313
0.083879
0.158882
0.0905213
0.154085
0.0975373
0.148855
0.104968
0.143098
0.112864
0.136676
0.12129
0.129387
0.130327
0.120934
0.140074
0.110873
0.150645
0.098531
0.162152
0.0828873
0.174658
0.0624216
0.187964
0.0351146
0.201192
0.207949
0.199751
0.00531973
0.199267
0.0103205
0.198557
0.0151009
0.19763
0.0197399
0.19649
0.0243002
0.195143
0.028835
0.193592
0.0333905
0.19184
0.0380076
0.189891
0.0427225
0.187743
0.0475679
0.1854
0.0525734
0.182858
0.0577668
0.180118
0.0631746
0.177174
0.0688229
0.174022
0.0747383
0.17065
0.0809489
0.167042
0.0874863
0.163177
0.0943871
0.159017
0.101696
0.154514
0.109471
0.149591
0.117787
0.144138
0.126744
0.137986
0.136479
0.130877
0.147183
0.122395
0.159127
0.111845
0.172702
0.0979978
0.188505
0.0785146
0.207447
0.0486444
0.231062
0.256594
0.199772
0.00554741
0.19933
0.0107624
0.198684
0.0157473
0.197841
0.0205834
0.196806
0.0253346
0.195587
0.0300546
0.194187
0.0347905
0.19261
0.0395838
0.190862
0.0444712
0.188944
0.0494858
0.186859
0.0546578
0.184611
0.0600154
0.182199
0.0655861
0.179625
0.0713969
0.176888
0.0774759
0.173983
0.083854
0.170903
0.0905659
0.167637
0.0976533
0.164165
0.105168
0.160458
0.113178
0.156472
0.121773
0.152142
0.131074
0.147366
0.141255
0.141986
0.152564
0.135738
0.165375
0.128151
0.180289
0.118285
0.198371
0.103887
0.221845
0.0776483
0.2573
0.334242
0.00382648
-0.00382648
0.00747162
-0.00364514
0.0104665
-0.00299488
0.0127827
-0.00231616
0.0144906
-0.00170796
0.0156731
-0.00118244
0.016408
-0.000734914
0.016769
-0.000361049
0.0168334
-6.44112e-05
0.0166567
0.000176737
0.0163141
0.000342558
0.0158615
0.000452629
0.0153442
0.000517341
0.0148004
0.000543787
0.0142618
0.000538603
0.0137532
0.00050853
0.0132927
0.000460505
0.0128913
0.000401393
0.0125538
0.000337516
0.0122797
0.000274166
0.012064
0.000215673
0.0118973
0.000166671
0.0117663
0.000130974
0.0116571
0.000109271
0.0115534
0.000103671
0.0114438
0.000109639
0.0113217
0.000122022
0.0111869
0.000134808
0.0110453
0.000141597
0.000117568
0.00353948
-0.00736596
0.00694195
-0.00704761
0.00980612
-0.00585904
0.0121141
-0.00462412
0.0139344
-0.00352828
0.0153415
-0.00258957
0.016403
-0.00179636
0.0171779
-0.00113601
0.0177101
-0.000596591
0.0180492
-0.000162362
0.0182199
0.000171868
0.0182607
0.000411818
0.0182182
0.000559873
0.0181287
0.000633292
0.0180232
0.000644097
0.0179262
0.00060552
0.0178553
0.000531422
0.0178212
0.000435436
0.0178288
0.000329991
0.0178774
0.000225563
0.0179623
0.000130709
0.0180735
5.54652e-05
0.0181968
7.67043e-06
0.0183227
-1.65622e-05
0.0184383
-1.19279e-05
0.0185351
1.27665e-05
0.0186096
4.75858e-05
0.018664
8.04193e-05
0.018703
0.000102539
0.000105433
0.00299618
-0.0103621
0.00578844
-0.00983988
0.00810715
-0.00817775
0.00997545
-0.00649242
0.0114621
-0.00501496
0.0126279
-0.00375534
0.0135258
-0.00269421
0.0142027
-0.00181292
0.0147047
-0.00109863
0.015084
-0.00054161
0.0153765
-0.000120627
0.015593
0.000195249
0.0157461
0.000406817
0.015857
0.000522343
0.0159453
0.00055583
0.0160259
0.000524906
0.016109
0.000448296
0.0161999
0.000344521
0.0163001
0.000229849
0.016407
0.000118602
0.0165128
2.49663e-05
0.0166135
-4.52251e-05
0.016714
-9.28164e-05
0.0168152
-0.000117789
0.0169178
-0.000114536
0.0170201
-8.94801e-05
0.0171236
-5.59332e-05
0.0172287
-2.47501e-05
0.0173249
6.40764e-06
5.05631e-05
0.00239735
-0.0127595
0.00446706
-0.0119096
0.00611709
-0.00982777
0.00743577
-0.00781111
0.00848996
-0.00606916
0.00932378
-0.00458916
0.00997312
-0.00334355
0.0104669
-0.00230672
0.0108343
-0.00146604
0.0111119
-0.00081917
0.011345
-0.000353687
0.0115475
-7.33012e-06
0.0117142
0.000240114
0.0118473
0.000389274
0.0119546
0.000448528
0.0120421
0.000437429
0.012113
0.000377392
0.0121683
0.000289189
0.0122092
0.00018896
0.0122371
9.07302e-05
0.0122582
3.82554e-06
0.0122656
-5.25862e-05
0.012266
-9.3194e-05
0.0122569
-0.000108743
0.0122388
-9.64587e-05
0.0122119
-6.25255e-05
0.012176
-2.00811e-05
0.0121329
1.83519e-05
0.0120841
5.51876e-05
9.72874e-05
0.00170131
-0.0144608
0.00296334
-0.0131716
0.00386967
-0.0107341
0.00457246
-0.0085139
0.00512978
-0.00662648
0.00557228
-0.00503165
0.00592168
-0.00369296
0.00618914
-0.00257417
0.00638571
-0.00166262
0.00653264
-0.000966096
0.00665959
-0.000480641
0.00680109
-0.000148823
0.00691875
0.000122445
0.0069862
0.000321825
0.00701337
0.000421358
0.00700127
0.000449534
0.00695199
0.000426672
0.00686659
0.000374584
0.00675135
0.000304202
0.00661642
0.00022566
0.00646676
0.000153487
0.00630742
0.000106756
0.00612267
9.15506e-05
0.00590187
0.000112056
0.00563253
0.000172886
0.00531796
0.000252043
0.00497691
0.000320975
0.00463735
0.000357909
0.00432804
0.000364496
0.000321699
0.000905002
-0.0153658
0.00127128
-0.0135379
0.00138004
-0.0108429
0.00141481
-0.00854866
0.00140611
-0.00661778
0.00138306
-0.0050086
0.00135871
-0.00366861
0.00133556
-0.00255102
0.00131206
-0.00163912
0.00130386
-0.000957894
0.00131158
-0.000488356
0.00126255
-9.97927e-05
0.00115934
0.000225654
0.000997794
0.000483369
0.000777646
0.000641506
0.000494418
0.000732762
0.000139943
0.000781148
-0.000277082
0.000791609
-0.000742436
0.000769557
-0.00123931
0.000722534
-0.00174731
0.000661483
-0.00224126
0.000600711
-0.00269778
0.000548066
-0.00309582
0.000510099
-0.0034242
0.00050127
-0.00369595
0.000523791
-0.00393854
0.000563566
-0.00417188
0.000591242
-0.0043842
0.000576821
0.00050438
-6.8291e-05
-0.0152975
-0.00061145
-0.0129947
-0.0013268
-0.0101275
-0.00203606
-0.00783939
-0.00270319
-0.00595065
-0.00329952
-0.00441228
-0.00381274
-0.00315538
-0.00424822
-0.00211555
-0.00464582
-0.00124152
-0.00509712
-0.000506587
-0.00565055
6.50722e-05
-0.00618199
0.000431648
-0.00660646
0.000650122
-0.00695671
0.000833623
-0.00730104
0.000985833
-0.00766125
0.00109297
-0.00803818
0.00115808
-0.00843108
0.00118451
-0.00883827
0.00117675
-0.00925732
0.00114158
-0.00968266
0.00108683
-0.0101019
0.00101996
-0.0104987
0.000944895
-0.0108561
0.000867477
-0.0111575
0.000802637
-0.0113989
0.000765207
-0.0115908
0.000755447
-0.0117504
0.000750905
-0.0118916
0.000717944
0.000659455
-0.00105824
-0.0142393
-0.00263593
-0.0114171
-0.00424618
-0.00851726
-0.00579426
-0.00629131
-0.0072136
-0.00453131
-0.00848991
-0.00313596
-0.00962143
-0.00202386
-0.0106169
-0.00112006
-0.0114904
-0.000368075
-0.0122084
0.000211427
-0.0127465
0.000603178
-0.0131778
0.000862959
-0.0135876
0.00105988
-0.0139743
0.00122035
-0.0143399
0.00135148
-0.0146957
0.00144872
-0.015046
0.00150841
-0.0153925
0.00153097
-0.0157379
0.00152212
-0.0160867
0.00149041
-0.0164419
0.00144203
-0.0167992
0.00137724
-0.0171458
0.00129154
-0.0174637
0.00118535
-0.0177344
0.00107333
-0.017948
0.000978884
-0.0181086
0.000915988
-0.0182321
0.000874376
-0.0183434
0.000829292
0.000788249
-0.00219839
-0.0120409
-0.00483064
-0.00878481
-0.00742278
-0.00592511
-0.00980665
-0.00390744
-0.011905
-0.00243301
-0.0137072
-0.00133371
-0.0152256
-0.000505453
-0.0164633
0.000117611
-0.0174044
0.000573008
-0.0180962
0.000903291
-0.0186505
0.00115742
-0.0191367
0.00134916
-0.0195716
0.00149481
-0.0199661
0.00161483
-0.0203312
0.00171664
-0.020677
0.00179449
-0.0210077
0.00183915
-0.0213247
0.00184792
-0.0216314
0.00182883
-0.0219357
0.00179469
-0.0222454
0.00175181
-0.0225614
0.00169322
-0.0228731
0.00160319
-0.0231608
0.00147304
-0.0234038
0.00131636
-0.0235911
0.00116623
-0.0237272
0.00105205
-0.0238294
0.000976558
-0.0239239
0.000923758
0.000897744
-0.00354797
-0.00849291
-0.00734409
-0.00498868
-0.0109476
-0.00232156
-0.0141073
-0.000747747
-0.0167346
0.000194252
-0.0188055
0.000737238
-0.020376
0.00106503
-0.0215523
0.00129389
-0.022456
0.00147668
-0.0231869
0.0016342
-0.0237925
0.00176301
-0.024305
0.00186165
-0.0247474
0.00193726
-0.0251379
0.00200529
-0.0254938
0.00207252
-0.0258276
0.00212833
-0.0261429
0.0021545
-0.0264385
0.00214344
-0.0267165
0.00210691
-0.0269875
0.00206569
-0.0272645
0.00202876
-0.0275528
0.00198147
-0.0278427
0.00189311
-0.0281113
0.00174163
-0.0283334
0.00153846
-0.0284968
0.00132967
-0.0286094
0.00116469
-0.028693
0.00106009
-0.0287724
0.00100323
0.000988728
-0.00547126
-0.00302165
-0.0109905
0.000530589
-0.0153915
0.00207936
-0.0187676
0.00262842
-0.0213045
0.0027311
-0.0232409
0.0026737
-0.0247609
0.00258503
-0.0259631
0.00249609
-0.0269153
0.00242885
-0.0276767
0.00239562
-0.0282998
0.00238607
-0.0288181
0.00237992
-0.0292534
0.00237257
-0.0296279
0.0023798
-0.0299664
0.00241108
-0.0302862
0.00244808
-0.0305888
0.0024571
-0.030867
0.00242162
-0.0311197
0.00235965
-0.0313605
0.00230647
-0.0316098
0.0022781
-0.031879
0.00225063
-0.0321583
0.00217244
-0.0324185
0.00200178
-0.0326262
0.0017462
-0.0327667
0.00147015
-0.0328538
0.00125177
-0.032917
0.00112332
-0.0329807
0.00106697
0.00106148
-0.00789225
0.0048706
-0.014337
0.0069753
-0.0190374
0.00677976
-0.0225652
0.00615624
-0.025232
0.00539794
-0.0272491
0.00469075
-0.028792
0.00412796
-0.029989
0.00369305
-0.0309206
0.00336051
-0.0316579
0.00313293
-0.0322616
0.00298975
-0.0327631
0.0028814
-0.033175
0.00278447
-0.0335188
0.00272364
-0.0338296
0.00272184
-0.0341325
0.00275098
-0.0344255
0.0027501
-0.0346898
0.00268589
-0.0349169
0.00258682
-0.0351251
0.0025146
-0.0353468
0.00249985
-0.0356025
0.00250631
-0.0358817
0.00245161
-0.0361445
0.00226465
-0.0363443
0.00194595
-0.0364605
0.00158633
-0.0365161
0.00130744
-0.0365547
0.0011619
-0.0366018
0.00111403
0.00111671
-0.0098383
0.0147089
-0.0175584
0.0146954
-0.0229183
0.0121397
-0.0266171
0.00985508
-0.0292588
0.00803962
-0.0311601
0.00659207
-0.0325817
0.00554957
-0.0336817
0.00479305
-0.0345226
0.00420144
-0.0351774
0.00378768
-0.0357243
0.00353662
-0.0361907
0.00334787
-0.0365649
0.00315861
-0.0368596
0.00301839
-0.0371275
0.00298968
-0.0374099
0.00303344
-0.0376989
0.0030391
-0.0379542
0.00294114
-0.0381527
0.00278532
-0.0383196
0.00268151
-0.0385084
0.00268862
-0.038754
0.00275192
-0.0390442
0.00274186
-0.0393231
0.00254352
-0.039522
0.00214487
-0.0396099
0.00167424
-0.0396234
0.0013209
-0.0396301
0.00116864
-0.0396609
0.00114482
0.00115681
-0.013066
0.0277749
-0.0225589
0.0241883
-0.0279311
0.0175119
-0.0311813
0.0131053
-0.0334952
0.0103535
-0.0350309
0.00812771
-0.0361392
0.00665795
-0.0370477
0.0057015
-0.0377358
0.0048895
-0.0382461
0.00429799
-0.0386992
0.00398974
-0.0391242
0.00377288
-0.0394524
0.00348688
-0.0396724
0.0032383
-0.039872
0.0031893
-0.0401289
0.00329037
-0.0404256
0.00333577
-0.0406818
0.00319737
-0.0408462
0.00294969
-0.0409549
0.00279019
-0.0410981
0.00283189
-0.0413354
0.00298916
-0.0416504
0.00305688
-0.0419625
0.00285566
-0.0421699
0.00235227
-0.0422222
0.00172647
-0.0421749
0.00127368
-0.0421382
0.00113191
-0.0421564
0.00116303
0.00118929
-0.0186061
0.046381
-0.0301146
0.0356968
-0.0347883
0.0221856
-0.0363446
0.0146616
-0.0380034
0.0120123
-0.0388062
0.0089305
-0.0393268
0.00717858
-0.040029
0.00640364
-0.0405784
0.00543895
-0.0408647
0.00458425
-0.0411632
0.00428826
-0.0415504
0.0041601
-0.041836
0.00377247
-0.0419467
0.00334898
-0.0420361
0.00327869
-0.0422637
0.00351802
-0.042594
0.00366601
-0.0428725
0.00347584
-0.0429934
0.00307065
-0.0430114
0.00280815
-0.0430841
0.00290458
-0.0433121
0.0032172
-0.0436692
0.00341396
-0.0440376
0.00322407
-0.0442663
0.00258096
-0.0442709
0.00173108
-0.044132
0.00113481
-0.0440321
0.00103198
-0.0440474
0.00117835
0.00123387
0.207447
0.00576016
0.207034
0.011175
0.206432
0.0163498
0.205647
0.0213678
0.204688
0.0262937
0.203561
0.0311819
0.202271
0.0360799
0.200826
0.0410294
0.19923
0.0460674
0.197489
0.051227
0.195608
0.0565385
0.193593
0.0620302
0.19145
0.0677294
0.189183
0.0736637
0.186797
0.0798614
0.184297
0.0863541
0.181686
0.0931774
0.178965
0.100375
0.176133
0.107999
0.173191
0.116121
0.170133
0.124831
0.166954
0.134253
0.163649
0.144559
0.16022
0.155993
0.156689
0.168907
0.153147
0.18383
0.149959
0.201559
0.148796
0.223008
0.160431
0.245666
0.258878
0.235795
0.21249
0.00595257
0.212118
0.0115478
0.211574
0.0168933
0.210868
0.0220736
0.210008
0.0271541
0.209
0.0321893
0.207854
0.0372269
0.206574
0.0423084
0.205171
0.0474709
0.203651
0.0527469
0.202023
0.0581663
0.200296
0.0637569
0.198481
0.0695453
0.196586
0.0755581
0.194625
0.081823
0.192609
0.0883698
0.190554
0.0952327
0.188476
0.102452
0.186397
0.110078
0.184346
0.118172
0.182363
0.126814
0.180508
0.136108
0.178881
0.146187
0.177651
0.157222
0.177142
0.169416
0.178004
0.182968
0.181651
0.197911
0.190682
0.213977
0.206101
0.230246
0.245802
0.219177
0.217658
0.00612248
0.217329
0.0118768
0.21685
0.0173719
0.21623
0.0226932
0.215478
0.0279064
0.214602
0.0330659
0.21361
0.0382189
0.212511
0.0434069
0.211316
0.0486661
0.210034
0.0540283
0.208678
0.0595223
0.207261
0.0651748
0.205795
0.0710108
0.204298
0.077055
0.202789
0.0833326
0.201288
0.0898704
0.199823
0.0966981
0.198425
0.10385
0.197137
0.111366
0.196015
0.119294
0.195136
0.127693
0.194614
0.13663
0.194619
0.146182
0.195414
0.156427
0.197409
0.167422
0.201213
0.179163
0.207598
0.191527
0.217225
0.20435
0.229819
0.217652
0.228855
0.246766
0.222951
0.00626792
0.22267
0.012158
0.222262
0.01778
0.221736
0.0232195
0.2211
0.0285419
0.220365
0.0338013
0.219539
0.0390444
0.218634
0.0443118
0.217662
0.0496386
0.216635
0.0550554
0.215568
0.0605896
0.214477
0.0662657
0.213381
0.0721066
0.212302
0.0781341
0.211265
0.0843696
0.2103
0.0908352
0.209444
0.0975539
0.208743
0.104551
0.208255
0.111854
0.208057
0.119493
0.208251
0.127499
0.208977
0.135903
0.210429
0.14473
0.21287
0.153986
0.216647
0.163645
0.222179
0.173631
0.229917
0.183789
0.240433
0.193834
0.254647
0.203438
0.210349
0.273153
0.228374
0.00638702
0.228144
0.012388
0.227812
0.0181125
0.227386
0.0236457
0.226875
0.0290525
0.22629
0.0343863
0.225641
0.0396928
0.224942
0.0450114
0.224205
0.0503757
0.223445
0.0558148
0.222681
0.0613538
0.221932
0.067015
0.22122
0.0728183
0.220573
0.0787815
0.220021
0.0849216
0.219601
0.0912545
0.21936
0.0977955
0.219351
0.104559
0.219646
0.111559
0.220331
0.118807
0.221519
0.12631
0.223357
0.134066
0.226028
0.142059
0.229763
0.150251
0.234843
0.158565
0.241596
0.166878
0.250403
0.174983
0.26171
0.182527
0.275991
0.189156
0.193784
0.292555
0.233929
0.00647809
0.233754
0.0125634
0.233502
0.0183647
0.233182
0.0239659
0.232803
0.0294312
0.232376
0.0348128
0.231914
0.040155
0.23143
0.0454958
0.230939
0.050867
0.230458
0.0562956
0.230007
0.0618044
0.22961
0.0674126
0.229291
0.0731366
0.229083
0.0789902
0.229019
0.0849848
0.229144
0.0911299
0.229507
0.0974323
0.23017
0.103896
0.231207
0.110522
0.23271
0.117305
0.23479
0.12423
0.237584
0.131273
0.241254
0.138389
0.245995
0.14551
0.252026
0.152534
0.259591
0.159313
0.268931
0.165642
0.280227
0.171232
0.293574
0.175809
0.178859
0.3085
0.23962
0.00653965
0.239502
0.0126815
0.239334
0.0185324
0.239125
0.0241749
0.238884
0.0296718
0.238623
0.0350737
0.238355
0.0404235
0.238094
0.0457571
0.237856
0.0511045
0.237662
0.0564902
0.237532
0.0619342
0.237492
0.0674527
0.23757
0.0730582
0.2378
0.0787599
0.238221
0.0845639
0.238878
0.0904731
0.239824
0.0964864
0.241122
0.102598
0.242847
0.108798
0.245086
0.115066
0.247942
0.121374
0.251535
0.127679
0.256001
0.133923
0.261489
0.140022
0.268156
0.145867
0.276152
0.151317
0.285598
0.156197
0.29654
0.16029
0.308966
0.163382
0.165204
0.322621
0.245448
0.00657043
0.24539
0.0127397
0.24531
0.0186122
0.245217
0.0242684
0.245119
0.0297693
0.245029
0.0351637
0.24496
0.0404925
0.244928
0.0457897
0.244949
0.0510829
0.245045
0.0563941
0.245239
0.0617404
0.245557
0.0671345
0.24603
0.0725853
0.246693
0.0780975
0.247585
0.0836719
0.248752
0.0893054
0.250249
0.0949899
0.252135
0.100712
0.254482
0.106451
0.257368
0.11218
0.260882
0.117859
0.265125
0.123437
0.270199
0.128848
0.276213
0.134009
0.283265
0.138815
0.291438
0.143144
0.300778
0.146856
0.311275
0.149793
0.322862
0.151795
0.15273
0.335336
0.251418
0.00656942
0.251422
0.0127362
0.251432
0.0186015
0.251458
0.0242431
0.251507
0.0297199
0.251592
0.0350787
0.251726
0.0403583
0.251926
0.0455903
0.252209
0.0507998
0.252597
0.0560063
0.253113
0.0612238
0.253786
0.066462
0.254645
0.0717258
0.255727
0.0770159
0.25707
0.0823286
0.25872
0.0876555
0.260727
0.0929829
0.263148
0.0982914
0.266044
0.103555
0.269486
0.108738
0.273545
0.113799
0.278299
0.118683
0.283822
0.123325
0.290185
0.127646
0.297443
0.131557
0.305632
0.134956
0.314752
0.137736
0.324759
0.139786
0.335553
0.141001
0.14132
0.346963
0.257532
0.00653586
0.257599
0.0126695
0.257702
0.0184981
0.257849
0.0240966
0.258047
0.0295213
0.25831
0.0348167
0.258649
0.0400191
0.259081
0.0451579
0.259625
0.0502557
0.260302
0.0553291
0.261137
0.0603896
0.262155
0.0654435
0.263388
0.0704925
0.264871
0.0755338
0.266639
0.0805598
0.268737
0.085558
0.271209
0.0905107
0.274106
0.0953946
0.27748
0.10018
0.281389
0.10483
0.285888
0.1093
0.291033
0.113539
0.296873
0.117485
0.303449
0.12107
0.310785
0.124221
0.318883
0.126858
0.327716
0.128903
0.33722
0.130283
0.34729
0.130931
0.130826
0.357784
0.263794
0.00646929
0.263925
0.0125387
0.264122
0.0183011
0.264391
0.0238279
0.26474
0.0291725
0.265179
0.034377
0.265723
0.0394753
0.266387
0.0444941
0.267189
0.0494537
0.26815
0.0543682
0.269293
0.0592462
0.270645
0.0640914
0.272235
0.0689026
0.274095
0.0736742
0.276259
0.0783955
0.278766
0.0830514
0.281655
0.0876217
0.284968
0.0920809
0.28875
0.0963981
0.293043
0.100537
0.297888
0.104455
0.303322
0.108105
0.309374
0.111433
0.31606
0.114384
0.323382
0.116898
0.331322
0.118918
0.339837
0.120389
0.348856
0.121264
0.358281
0.121506
0.121115
0.367992
0.270207
0.00636953
0.270402
0.0123436
0.270693
0.0180102
0.271084
0.0234367
0.271583
0.0286738
0.272199
0.0337607
0.272945
0.038729
0.273837
0.0436028
0.27489
0.0483999
0.276127
0.053132
0.277567
0.0578054
0.279237
0.0624215
0.281163
0.0669769
0.283374
0.0714636
0.2859
0.0758691
0.288775
0.0801766
0.292032
0.0843648
0.295705
0.088408
0.299827
0.092276
0.304429
0.0959344
0.309539
0.099345
0.315177
0.102466
0.321356
0.105254
0.328076
0.107664
0.335322
0.109651
0.343065
0.111175
0.351254
0.112199
0.359821
0.112697
0.368675
0.112652
0.112074
0.377716
0.276774
0.00623669
0.277033
0.0120844
0.277417
0.0176258
0.27793
0.0229242
0.278577
0.028027
0.279367
0.0329708
0.280311
0.0377845
0.281424
0.0424899
0.282721
0.0471024
0.284222
0.0516316
0.285945
0.0560819
0.287914
0.0604526
0.290152
0.0647387
0.292685
0.0689307
0.295539
0.0730153
0.298741
0.0769749
0.302317
0.0807884
0.306294
0.084431
0.310695
0.0878747
0.315541
0.0910887
0.320847
0.0940396
0.32662
0.0966928
0.332861
0.0990132
0.339559
0.100966
0.34669
0.102521
0.354216
0.103649
0.362087
0.104329
0.370236
0.104548
0.378587
0.104301
0.103607
0.387054
0.283498
0.00607114
0.283821
0.0117619
0.284297
0.0171493
0.284929
0.0222923
0.285721
0.0272351
0.28668
0.0320115
0.287817
0.0366477
0.289144
0.0411633
0.290675
0.0455717
0.292426
0.0498804
0.294415
0.0540922
0.296663
0.0582052
0.299188
0.062213
0.302013
0.0661057
0.305159
0.0698694
0.308647
0.073487
0.312497
0.0769385
0.316727
0.0802009
0.321353
0.0832494
0.326384
0.086057
0.331828
0.0885962
0.337681
0.0908391
0.343936
0.0927585
0.350573
0.0943298
0.357562
0.0955311
0.364866
0.0963456
0.372432
0.0967622
0.380203
0.0967774
0.388109
0.0963944
0.0956337
0.396082
0.290384
0.00587353
0.290768
0.0113774
0.291335
0.0165826
0.292083
0.021544
0.293016
0.0263022
0.294139
0.0308883
0.295461
0.035326
0.296992
0.0396326
0.298744
0.0438197
0.300731
0.0478933
0.302968
0.0518548
0.305472
0.0557013
0.308259
0.059426
0.311346
0.0630187
0.31475
0.066466
0.318485
0.0697518
0.322565
0.0728578
0.327003
0.0757637
0.331804
0.078448
0.336973
0.0808882
0.342507
0.0830621
0.348398
0.0849482
0.35463
0.0865267
0.361179
0.0877804
0.368014
0.0886958
0.375096
0.089264
0.382377
0.0894812
0.389804
0.08935
0.39732
0.0888787
0.0880884
0.404865
0.297435
0.00564472
0.297879
0.0109326
0.298533
0.0159286
0.299394
0.0206832
0.300463
0.0252335
0.301743
0.029608
0.303241
0.0338279
0.304965
0.0379086
0.306925
0.0418598
0.309132
0.0456863
0.311598
0.0493887
0.314336
0.0529634
0.317359
0.0564036
0.320678
0.0596993
0.324306
0.0628382
0.328252
0.0658057
0.332524
0.0685854
0.337128
0.0711601
0.342064
0.0735118
0.34733
0.0756225
0.352917
0.077475
0.358812
0.0790533
0.364995
0.0803437
0.37144
0.0813353
0.378115
0.0820208
0.384982
0.082397
0.391998
0.0824653
0.399116
0.0822322
0.406286
0.0817084
0.0809149
0.41346
0.304654
0.00538578
0.305157
0.0104296
0.305895
0.0151905
0.306864
0.0197143
0.308063
0.0240351
0.309492
0.0281783
0.311157
0.032163
0.313063
0.0360028
0.315217
0.039706
0.317627
0.0432763
0.320302
0.0467135
0.323251
0.050014
0.326484
0.0531712
0.330007
0.0561759
0.333829
0.0590169
0.337953
0.0616815
0.342382
0.0641558
0.347117
0.0664253
0.352153
0.0684757
0.357483
0.0702929
0.363094
0.0718642
0.368969
0.0731785
0.375085
0.074227
0.381417
0.0750036
0.387932
0.0755057
0.394595
0.0757341
0.401367
0.0756936
0.408206
0.0753928
0.415071
0.0748437
0.0740662
0.421919
0.312046
0.00509791
0.312605
0.00987075
0.313424
0.0143718
0.314496
0.0186424
0.315817
0.0227133
0.317388
0.0266074
0.31921
0.0303415
0.321285
0.0339276
0.323618
0.0373727
0.326215
0.0406798
0.32908
0.0438483
0.332219
0.0468747
0.335637
0.0497528
0.339339
0.0524745
0.343326
0.0550301
0.347598
0.0574086
0.352155
0.0595988
0.356992
0.0615889
0.3621
0.0633678
0.367467
0.0649251
0.37308
0.0662519
0.378917
0.067341
0.384957
0.0681874
0.391172
0.0687889
0.397531
0.0691461
0.404003
0.0692625
0.410551
0.0691449
0.417141
0.0688031
0.423735
0.0682494
0.067502
0.4303
0.319615
0.00478245
0.320227
0.00925876
0.321122
0.0134765
0.322292
0.0174728
0.32373
0.0212752
0.325433
0.0249038
0.327401
0.0283738
0.329634
0.0316953
0.332132
0.0348744
0.334898
0.0379135
0.337935
0.0408117
0.341244
0.043566
0.344826
0.0461707
0.348681
0.048619
0.352809
0.0509025
0.357205
0.0530125
0.361864
0.0549396
0.366778
0.0566751
0.371935
0.0582106
0.377321
0.0595387
0.38292
0.0606537
0.388709
0.0615516
0.394666
0.0622303
0.400765
0.0626903
0.406976
0.0629344
0.413271
0.0629678
0.419618
0.0627984
0.425984
0.0624364
0.43234
0.0618937
0.0611868
0.438655
0.327365
0.00444075
0.328027
0.00859627
0.328995
0.0125087
0.330257
0.0162111
0.331804
0.0197277
0.333632
0.0230764
0.335735
0.0262703
0.338113
0.029318
0.340762
0.0322249
0.343683
0.0349928
0.346874
0.0376209
0.350333
0.0401065
0.354059
0.0424448
0.358048
0.0446301
0.362295
0.0466555
0.366793
0.0485142
0.371534
0.0501989
0.376506
0.0517031
0.381696
0.0530209
0.387087
0.0541476
0.392661
0.0550798
0.398396
0.055816
0.404271
0.0563562
0.410258
0.0567028