/*--------------------------------*- C++ -*----------------------------------*\
  =========                 |
  \\      /  F ield         | OpenFOAM: The Open Source CFD Toolbox
   \\    /   O peration     | Website:  https://openfoam.org
    \\  /    A nd           | Version:  dev
     \\/     M anipulation  |
\*---------------------------------------------------------------------------*/
FoamFile
{
    version     2.0;
    format      ascii;
    class       volScalarField;
    location    "0.8";
    object      p;
}
// * * * * * * * * * * * * * * * * * * * * * * * * * * * * * * * * * * * * * //

dimensions      [0 2 -2 0 0 0 0];

internalField   nonuniform List<scalar> 
2790
(
157.656
157.573
157.862
158.465
159.285
160.29
161.475
162.839
164.376
166.079
167.94
169.95
172.1
174.375
176.758
179.229
181.757
184.31
186.844
189.308
191.647
193.796
195.693
197.278
198.506
199.354
199.8
199.889
199.962
200.17
157.45
157.478
157.791
158.392
159.208
160.21
161.391
162.749
164.279
165.974
167.825
169.826
171.965
174.23
176.604
179.065
181.586
184.134
186.668
189.137
191.487
193.654
195.576
197.189
198.442
199.298
199.723
199.823
199.973
200.237
157.246
157.343
157.676
158.266
159.069
160.058
161.224
162.565
164.073
165.744
167.568
169.538
171.644
173.872
176.206
178.626
181.106
183.615
186.113
188.556
190.891
193.06
195.003
196.661
197.987
198.949
199.555
199.921
200.24
200.543
157.013
157.14
157.486
158.067
158.856
159.828
160.975
162.291
163.772
165.409
167.196
169.123
171.181
173.357
175.633
177.992
180.409
182.854
185.293
187.685
189.983
192.137
194.096
195.81
197.243
198.379
199.243
199.907
200.452
200.945
156.74
156.882
157.236
157.81
158.582
159.534
160.655
161.94
163.384
164.979
166.717
168.59
170.587
172.695
174.899
177.18
179.515
181.878
184.238
186.56
188.805
190.931
192.898
194.669
196.22
197.544
198.657
199.598
200.382
201.073
156.426
156.573
156.929
157.492
158.245
159.171
160.26
161.508
162.908
164.452
166.133
167.941
169.866
171.895
174.012
176.2
178.439
180.703
182.967
185.2
187.372
189.451
191.407
193.216
194.863
196.344
197.666
198.837
199.817
200.672
156.066
156.214
156.567
157.118
157.847
158.743
159.796
161
162.349
163.835
165.449
167.183
169.025
170.962
172.98
175.062
177.189
179.338
181.488
183.613
185.689
187.694
189.608
191.417
193.113
194.697
196.163
197.502
198.622
199.603
155.662
155.808
156.153
156.687
157.391
158.253
159.264
160.419
161.711
163.131
164.67
166.32
168.068
169.903
171.81
173.772
175.772
177.79
179.806
181.799
183.752
185.649
187.477
189.232
190.914
192.525
194.058
195.49
196.695
197.779
155.213
155.356
155.69
156.205
156.879
157.703
158.668
159.769
160.996
162.344
163.801
165.358
167.004
168.725
170.508
172.337
174.195
176.063
177.923
179.759
181.555
183.3
184.99
186.624
188.209
189.753
191.253
192.693
193.924
195.093
154.721
154.858
155.18
155.672
156.314
157.096
158.011
159.052
160.211
161.479
162.847
164.304
165.838
167.436
169.084
170.766
172.465
174.164
175.846
177.493
179.094
180.638
182.123
183.553
184.938
186.296
187.635
188.965
190.137
191.371
154.188
154.319
154.625
155.091
155.699
156.437
157.298
158.275
159.36
160.543
161.814
163.163
164.578
166.043
167.545
169.068
170.593
172.104
173.582
175.009
176.372
177.66
178.865
179.992
181.051
182.065
183.062
184.095
185.06
186.31
153.616
153.739
154.027
154.466
155.037
155.727
156.531
157.44
158.447
159.54
160.71
161.945
163.232
164.557
165.903
167.254
168.591
169.894
171.144
172.32
173.402
174.373
175.219
175.931
176.51
176.975
177.363
177.787
178.239
179.363
153.005
153.121
153.391
153.8
154.331
154.972
155.715
156.553
157.477
158.477
159.541
160.656
161.81
162.986
164.168
165.337
166.473
167.553
168.553
169.447
170.208
170.806
171.211
171.391
171.317
170.974
170.371
169.645
168.921
169.451
152.36
152.467
152.717
153.096
153.585
154.174
154.855
155.619
156.458
157.36
158.314
159.306
160.321
161.343
162.354
163.333
164.256
165.099
165.831
166.42
166.826
167.004
166.898
166.439
165.54
164.1
162.001
159.237
155.863
154.141
151.683
151.781
152.01
152.356
152.803
153.338
153.954
154.643
155.394
156.196
157.036
157.901
158.774
159.639
160.473
161.256
161.96
162.556
163.009
163.276
163.306
163.033
162.372
161.202
159.354
156.575
152.46
146.429
137.334
126.627
51.962
50.6172
48.2967
44.9421
40.6128
35.3925
29.3859
22.713
15.5065
7.90925
0.0740125
-7.83677
-15.6504
-23.1832
-30.2413
-36.622
-42.1178
-46.5212
-49.6218
-51.2071
-51.1504
-49.2675
-45.4622
-39.7524
-32.31
-23.3735
-13.0037
-1.41915
8.68924
8.94768
52.2273
50.7181
48.2978
44.8521
40.4417
35.1484
29.0765
22.3462
15.0895
7.44843
-0.425281
-8.37018
-16.2144
-23.7752
-30.8594
-37.2647
-42.784
-47.2117
-50.3542
-52.0404
-52.0443
-50.2459
-46.5585
-41.0095
-33.7772
-25.12
-15.1299
-3.89282
6.34406
6.76509
51.4824
49.7894
47.2575
43.7135
39.2337
33.8969
27.8036
21.0695
13.8215
6.19674
-1.65757
-9.58385
-17.4131
-24.9644
-32.0456
-38.4542
-43.9817
-48.4215
-51.58
-53.2765
-53.3504
-51.6267
-48.0352
-42.6206
-35.5665
-27.147
-17.4957
-6.6515
3.44376
4.62987
49.5744
47.7958
45.2277
41.6381
37.1332
31.791
25.7097
19.0003
11.7846
4.19458
-3.62714
-11.5264
-19.3365
-26.8782
-33.9595
-40.3777
-45.923
-50.3874
-53.5777
-55.3208
-55.4464
-53.8022
-50.3139
-45.0359
-38.1476
-29.9147
-20.4942
-9.95923
-0.0151681
2.59283
46.6907
44.9262
42.3952
38.8181
34.3385
29.0346
23.0047
16.3564
9.20692
1.68341
-6.07589
-13.9204
-21.6862
-29.1956
-36.2577
-42.6699
-48.2215
-52.7019
-55.915
-57.6889
-57.8708
-56.3074
-52.9193
-47.7731
-41.0404
-32.9642
-23.7112
-13.4159
-3.53047
0.743307
43.1433
41.4521
39.0007
35.4795
31.0652
25.8321
19.8794
13.3117
6.24232
-1.20577
-8.89813
-16.6872
-24.4113
-31.8936
-38.9434
-45.357
-50.9214
-55.4209
-58.651
-60.4372
-60.6444
-59.1297
-55.8069
-50.7536
-44.1323
-36.1581
-26.998
-16.837
-6.86292
-0.902682
39.2818
37.6933
35.3376
31.8941
27.5651
22.4173
16.5508
10.0685
3.08103
-4.29148
-11.9171
-19.6507
-27.3319
-34.7853
-41.82
-48.2322
-53.8071
-58.324
-61.5685
-63.359
-63.5714
-62.0803
-58.7921
-53.7959
-47.2469
-39.3317
-30.207
-20.0796
-9.89105
-2.34802
35.461
33.9825
31.7163
28.3488
24.1012
19.0309
13.2404
6.83134
-0.0868796
-7.39589
-14.9657
-22.6531
-30.2995
-37.7307
-44.7562
-51.1717
-56.7608
-61.2974
-64.556
-66.3423
-66.5326
-65.0309
-61.74
-56.7604
-50.2448
-42.3544
-33.2235
-23.0497
-12.5621
-3.60038
32.0145
30.6337
28.4311
25.1147
20.9206
15.8978
10.1532
3.78875
-3.0866
-10.3555
-17.8893
-25.5466
-33.1714
-40.5906
-47.6148
-54.0394
-59.6467
-64.2061
-67.4814
-69.2609
-69.4035
-67.8584
-64.5291
-59.5272
-53.0104
-45.12
-35.9597
-25.6893
-14.8592
-4.66801
29.2323
27.9206
25.7386
22.4274
18.2374
13.2119
7.4663
1.10346
-5.76655
-13.0271
-20.551
-28.199
-35.8185
-43.2387
-50.2718
-56.7138
-62.3459
-66.9343
-70.2328
-72.0096
-72.1026
-70.461
-67.0639
-62.0042
-55.4565
-47.5494
-38.3516
-27.9651
-16.7834
-5.55838
27.3449
26.0642
23.8459
20.4745
16.2198
11.1252
5.31776
-1.09646
-8.00581
-15.2947
-22.8379
-30.4988
-38.1314
-45.5668
-52.62
-59.0886
-64.7534
-69.3779
-72.7061
-74.4786
-74.5013
-72.7696
-69.2768
-64.13
-57.5275
-49.5922
-40.3591
-29.8617
-18.3468
-6.27847
26.5073
25.2204
22.897
19.386
14.9824
9.73715
3.79855
-2.72502
-9.7206
-17.075
-24.6654
-32.3585
-40.0212
-47.4844
-54.5675
-61.0711
-66.776
-71.4431
-74.81
-76.5878
-76.5516
-74.7255
-71.1231
-65.8714
-59.1987
-51.229
-41.9681
-31.3807
-19.5708
-6.83796
26.7974
25.4631
22.9542
19.2084
14.549
9.07011
2.93383
-3.74757
-10.8636
-18.3066
-25.9623
-33.714
-41.4215
-48.9199
-56.0376
-62.5801
-68.3289
-73.0406
-76.4565
-78.2599
-78.1861
-76.2725
-72.5666
-67.212
-60.4681
-52.4651
-43.1874
-32.5378
-20.4884
-7.25689
28.2353
26.8034
24.0179
19.916
14.8906
9.09735
2.70552
-4.17376
-11.4385
-18.9913
-26.7306
-34.5468
-42.2919
-49.816
-56.9547
-63.5198
-69.2941
-74.0623
-77.5275
-79.3689
-79.2921
-77.3268
-73.5542
-68.1288
-61.3353
-53.3132
-44.0337
-33.3552
-21.1421
-7.57361
30.7843
29.1842
26.0093
21.3832
15.8669
9.69041
3.00651
-4.08919
-11.5103
-19.1724
-26.984
-34.8429
-42.6124
-50.1488
-57.2938
-63.8668
-69.6616
-74.4585
-77.9536
-79.826
-79.7646
-77.7898
-74.0139
-68.5856
-61.793
-53.7837
-44.524
-33.863
-21.5774
-7.8281
150.962
151.051
151.258
151.571
151.972
152.451
153
153.61
154.27
154.968
155.692
156.425
157.152
157.853
158.506
159.086
159.564
159.905
160.068
160.003
159.644
158.906
157.673
155.774
152.948
148.766
142.425
132.262
112.996
60.6646
150.189
150.268
150.452
150.729
151.083
151.504
151.983
152.511
153.076
153.667
154.269
154.866
155.442
155.974
156.439
156.811
157.056
157.137
157.006
156.605
155.858
154.666
152.888
150.324
146.663
141.404
133.666
121.997
105.438
81.8496
149.37
149.439
149.599
149.839
150.144
150.504
150.911
151.354
151.822
152.303
152.78
153.239
153.659
154.02
154.296
154.457
154.469
154.291
153.87
153.144
152.031
150.424
148.178
145.095
140.896
135.199
127.531
117.427
105.631
92.4557
148.506
148.564
148.7
148.902
149.157
149.455
149.787
150.144
150.513
150.881
151.233
151.552
151.817
152.006
152.092
152.045
151.829
151.399
150.702
149.673
148.23
146.269
143.655
140.219
135.75
130.009
122.77
113.795
103.137
90.3851
147.599
147.647
147.756
147.919
148.123
148.359
148.616
148.885
149.154
149.41
149.635
149.814
149.924
149.943
149.844
149.596
149.159
148.492
147.539
146.239
144.511
142.262
139.376
135.716
131.126
125.439
118.488
110.067
100.041
88.514
146.651
146.687
146.772
146.895
147.047
147.219
147.401
147.582
147.751
147.894
147.995
148.035
147.994
147.848
147.57
147.128
146.485
145.598
144.416
142.878
140.915
138.443
135.365
131.576
126.956
121.386
114.752
106.956
97.9818
88.1439
145.665
145.69
145.748
145.832
145.932
146.04
146.147
146.241
146.311
146.343
146.32
146.225
146.038
145.733
145.285
144.662
143.828
142.744
141.36
139.623
137.472
134.835
131.636
127.792
123.221
117.845
111.605
104.475
96.4769
87.8666
144.643
144.657
144.69
144.734
144.783
144.828
144.859
144.868
144.84
144.764
144.622
144.397
144.068
143.613
143.006
142.216
141.211
139.952
138.397
136.497
134.201
131.452
128.19
124.354
119.89
114.752
108.913
102.373
95.1518
87.4595
143.59
143.593
143.6
143.605
143.603
143.586
143.544
143.469
143.347
143.165
142.909
142.56
142.099
141.503
140.749
139.809
138.651
137.242
135.544
133.517
131.117
128.3
125.021
121.239
116.917
112.031
106.571
100.55
93.9903
87.076
142.51
142.502
142.484
142.451
142.399
142.321
142.208
142.051
141.838
141.557
141.191
140.725
140.141
139.416
138.529
137.455
136.165
134.629
132.817
130.694
128.225
125.377
122.118
118.419
114.26
109.628
104.527
98.974
92.9959
86.7499
141.407
141.389
141.346
141.276
141.175
141.039
140.858
140.623
140.323
139.947
139.479
138.904
138.206
137.364
136.359
135.167
133.765
132.126
130.225
128.034
125.527
122.677
119.465
115.87
111.884
107.503
102.737
97.6068
92.1382
86.4635
140.286
140.258
140.192
140.086
139.939
139.746
139.5
139.191
138.81
138.344
137.782
137.107
136.306
135.359
134.25
132.958
131.462
129.742
127.775
125.541
123.019
120.191
117.044
113.568
109.758
105.62
101.164
96.4127
91.3904
86.2083
139.154
139.117
139.027
138.887
138.696
138.45
138.142
137.764
137.307
136.759
136.109
135.344
134.45
133.412
132.213
130.836
129.265
127.482
125.47
123.213
120.696
117.908
114.84
111.489
107.855
103.946
99.7755
95.3643
90.735
85.9812
138.016
137.97
137.859
137.687
137.454
137.158
136.792
136.35
135.821
135.198
134.47
133.624
132.648
131.53
130.255
128.809
127.179
125.35
123.31
121.047
118.551
115.816
112.836
109.612
106.149
102.456
98.5464
94.4402
90.158
85.7785
136.88
136.824
136.694
136.491
136.219
135.877
135.458
134.956
134.363
133.672
132.872
131.955
130.908
129.722
128.384
126.883
125.208
123.349
121.296
119.04
116.577
113.902
111.015
107.919
104.619
101.127
97.4554
93.6228
89.6478
85.5965
135.751
135.688
135.538
135.307
134.999
134.614
134.146
133.59
132.939
132.187
131.325
130.345
129.238
127.995
126.606
125.062
123.355
121.478
119.424
117.187
114.765
112.157
109.364
106.392
103.247
99.94
96.4848
92.8975
89.1946
85.432
134.638
134.567
134.4
134.143
133.802
133.378
132.866
132.261
131.559
130.752
129.836
128.802
127.644
126.354
124.925
123.349
121.622
119.737
117.691
115.481
113.106
110.567
107.868
105.015
102.015
98.8792
95.62
92.2521
88.7904
85.2822
133.547
133.469
133.287
133.007
132.636
132.176
131.624
130.976
130.228
129.375
128.412
127.333
126.132
124.804
123.344
121.747
120.008
118.124
116.094
113.916
111.592
109.123
106.516
103.775
100.91
97.9308
94.8485
91.6767
88.4288
85.1447
132.487
132.404
132.207
131.906
131.508
131.017
130.43
129.744
128.956
128.062
127.059
125.942
124.708
123.351
121.868
120.257
118.514
116.638
114.629
112.487
110.215
107.816
105.296
102.662
99.9207
97.0832
94.16
91.1631
88.1044
85.0176
131.467
131.378
131.169
130.848
130.427
129.908
129.29
128.571
127.749
126.821
125.785
124.637
123.375
121.996
120.498
118.879
117.138
115.275
113.291
111.188
108.968
106.637
104.199
101.663
99.036
96.327
93.5463
90.7046
87.8129
84.8997
130.495
130.401
130.18
129.843
129.4
128.857
128.212
127.465
126.614
125.658
124.594
123.422
122.139
120.745
119.237
117.616
115.882
114.035
112.078
110.014
107.845
105.578
103.218
100.772
98.2479
95.6542
93.0004
90.2961
87.5513
84.7899
129.579
129.481
129.25
128.898
128.438
127.873
127.206
126.434
125.559
124.579
123.494
122.302
121.004
119.599
118.087
116.468
114.743
112.916
110.987
108.961
106.841
104.634
102.345
99.9811
97.5496
95.0588
92.5172
89.9337
87.3173
84.6884
128.729
128.627
128.388
128.023
127.547
126.964
126.278
125.486
124.591
123.592
122.489
121.283
119.974
118.562
117.049
115.435
113.723
111.915
110.014
108.025
105.951
103.8
101.575
99.2847
96.9357
94.5356
92.0923
89.6142
87.1094
84.5951
127.955
127.849
127.602
127.226
126.736
126.139
125.436
124.628
123.716
122.702
121.586
120.37
119.053
117.639
116.127
114.52
112.821
111.033
109.159
107.205
105.173
103.071
100.905
98.6794
96.4028
94.0818
91.7239
89.3367
86.9278
84.5118
127.266
127.157
126.903
126.517
126.015
125.405
124.688
123.867
122.943
121.917
120.791
119.567
118.246
116.83
115.322
113.723
112.038
110.269
108.421
106.497
104.504
102.446
100.33
98.1611
95.9468
93.6937
91.4086
89.0986
86.7708
84.4375
126.672
126.56
126.299
125.904
125.392
124.771
124.044
123.213
122.278
121.244
120.111
118.882
117.559
116.144
114.64
113.05
111.378
109.626
107.801
105.905
103.945
101.925
99.8517
97.7312
95.5696
93.3734
91.1493
88.9038
86.6436
84.3792
126.185
126.069
125.8
125.395
124.874
124.245
123.509
122.669
121.728
120.686
119.549
118.317
116.993
115.58
114.081
112.499
110.839
109.103
107.296
105.424
103.491
101.503
99.4653
97.3839
95.265
93.1147
90.9394
88.7453
86.5385
84.3281
125.819
125.696
125.417
125.004
124.477
123.841
123.099
122.253
121.306
120.26
119.119
117.885
116.562
115.151
113.657
112.083
110.432
108.709
106.919
105.066
103.155
101.192
99.1821
97.1316
95.0461
92.9318
90.7947
88.6407
86.4761
84.3086
125.589
125.442
125.144
124.725
124.195
123.555
122.809
121.959
121.009
119.961
118.819
117.585
116.262
114.854
113.364
111.795
110.152
108.438
106.659
104.819
102.923
100.977
98.986
96.956
94.8927
92.802
90.6897
88.5617
86.4237
84.2822
125.554
125.344
125.019
124.593
124.059
123.415
122.665
121.813
120.861
119.813
118.67
117.437
116.116
114.711
113.224
111.661
110.023
108.317
106.546
104.716
102.831
100.896
98.9177
96.9011
94.852
92.7762
90.6795
88.5675
86.4458
84.3204
-12.3015
5.896
22.5641
66.8644
62.9384
56.1466
79.6122
71.0823
63.2678
77.0667
68.6804
62.1734
77.6329
70.5042
64.558
79.0587
72.8049
67.2958
79.8384
74.2323
69.2445
80.2797
75.2608
70.8021
80.6397
76.1364
72.1502
80.9462
76.8818
73.3024
81.1991
77.5111
74.281
81.4098
78.048
75.1182
81.5883
78.5107
75.8401
81.7406
78.912
76.4663
81.8707
79.2613
77.0116
81.9815
79.5659
77.4878
82.0752
79.8312
77.9035
82.1531
80.0611
78.2654
82.2165
80.259
78.5792
82.2666
80.428
78.8495
82.3046
80.5706
79.0807
82.3324
80.69
79.2769
82.3512
80.7883
79.4416
82.3646
80.87
79.58
82.3715
80.9349
79.6927
82.3818
80.9933
79.79
82.3837
81.0337
79.8625
82.4082
81.0876
79.9389
82.4078
81.1081
79.9774
82.4708
81.1878
80.0652
34.269
32.3349
28.649
23.3296
17.2378
10.6533
3.67817
-3.62134
-11.1803
-18.9297
-26.789
-34.6634
-42.4312
-49.9544
-57.0794
-63.6307
-69.4068
-74.1802
-77.6651
-79.5475
-79.5212
-77.5971
-73.904
-68.5679
-61.8554
-53.9175
-44.7233
-34.1147
-21.8255
-8.02268
48.1651
38.9945
32.0068
25.3836
18.6737
11.7373
4.54289
-2.89418
-10.5343
-18.322
-26.1861
-34.0385
-41.7677
-49.2423
-56.3123
-62.8056
-68.5235
-73.238
-76.6798
-78.5526
-78.5782
-76.7456
-73.1978
-68.0503
-61.5133
-53.7237
-44.6493
-34.1213
-21.891
-8.1057
52.1297
41.3412
33.9454
26.9754
19.8664
12.6817
5.38685
-2.07269
-9.69684
-17.4436
-25.2471
-33.0227
-40.6641
-48.0445
-55.017
-61.4123
-67.0357
-71.6639
-75.0429
-76.9026
-77.0066
-75.2863
-71.9294
-67.0555
-60.7799
-53.2089
-44.3071
-33.908
-21.7927
-8.0908
52.8065
42.4246
34.7313
27.6929
20.5971
13.418
6.14861
-1.24451
-8.76684
-16.3893
-24.0555
-31.6863
-39.1795
-46.4116
-53.2383
-59.4937
-64.9878
-69.5059
-72.8109
-74.6614
-74.8568
-73.3069
-70.1913
-65.638
-59.6827
-52.3836
-43.6979
-33.4727
-21.528
-7.99468
55.7971
45.5619
36.9065
29.0666
21.5939
14.2991
7.03647
-0.28654
-7.69316
-15.1629
-22.6499
-30.0859
-37.3784
-44.4112
-51.0458
-57.1215
-62.4558
-66.8451
-70.0712
-71.9199
-72.2186
-70.8811
-68.0557
-63.8526
-58.2462
-51.2476
-42.8079
-32.7982
-21.086
-7.82364
59.3378
49.6188
40.3641
31.7188
23.6361
15.9529
8.48929
1.11023
-6.25212
-13.6102
-20.9384
-28.1826
-35.263
-42.0757
-48.493
-54.365
-59.5207
-63.7716
-66.9198
-68.7761
-69.1909
-68.0872
-65.5741
-61.7264
-56.4672
-49.774
-41.5999
-31.8506
-20.4489
-7.58367
62.296
53.4608
44.2277
35.2401
26.7528
18.6875
10.9154
3.33874
-4.1062
-11.4508
-18.6934
-25.7998
-32.7067
-39.3246
-45.5401
-51.2178
-56.2024
-60.3237
-63.4056
-65.2819
-65.8218
-64.9533
-62.7398
-59.2204
-54.2844
-47.8914
-40.0077
-30.5821
-19.5961
-7.28536
64.7651
56.8804
48.0765
39.1805
30.6165
22.3783
14.3921
6.61743
-0.969449
-8.38433
-15.627
-22.6738
-29.4754
-35.957
-42.0205
-47.5462
-52.3964
-56.4203
-59.4626
-61.3779
-62.0494
-61.4085
-59.4598
-56.2068
-51.5699
-45.4897
-37.9497
-28.945
-18.5136
-6.94249
66.862
59.8578
51.6902
43.1872
34.8381
26.6824
18.6837
10.8447
3.18207
-4.29116
-11.5586
-18.5913
-25.3422
-31.7446
-37.7121
-43.1391
-47.9042
-51.8742
-54.9126
-56.8903
-57.6991
-57.2633
-55.5415
-52.535
-48.1961
-42.4755
-35.372
-26.9197
-17.206
-6.56542
68.6234
62.3929
54.9338
46.9973
39.0722
31.2191
23.4207
15.7034
8.11066
0.680736
-6.55092
-13.5428
-20.2421
-26.5822
-32.4818
-37.8446
-42.5614
-46.5134
-49.579
-51.641
-52.5963
-52.3601
-50.8618
-48.1116
-44.1146
-38.8391
-32.2934
-24.5397
-15.7036
-6.15529
70.1025
64.5359
57.7716
50.4677
43.0819
35.6791
28.248
20.8221
13.4578
6.20828
-0.876837
-7.7449
-14.3357
-20.5792
-26.3951
-31.6919
-36.3683
-40.3162
-43.4244
-45.5852
-46.6994
-46.6778
-45.4375
-43.0015
-39.4232
-34.6916
-28.8224
-21.8951
-14.0608
-5.70517
71.3571
66.3557
60.2294
53.5525
46.7429
39.8622
32.898
25.8818
18.8718
11.9266
5.10237
-1.54189
-7.9412
-14.0232
-19.7074
-24.9056
-29.5222
-33.4565
-36.606
-38.8706
-40.1566
-40.3779
-39.4524
-37.4143
-34.3347
-30.2299
-25.1254
-19.1093
-12.3439
-5.20762
72.4322
67.9121
62.3532
56.2601
50.0127
43.6672
37.2082
30.6614
24.0807
17.5235
11.0466
4.70992
-1.42099
-7.27398
-12.7704
-17.8255
-22.349
-26.2471
-29.4251
-31.7909
-33.2584
-33.7501
-33.1973
-31.6222
-29.1024
-25.677
-21.3825
-16.3094
-10.6194
-4.66354
73.3601
69.2518
64.1903
58.6236
52.8977
47.0641
41.1047
35.0388
28.9141
22.7834
16.7004
10.7219
4.91084
-0.664001
-5.92804
-10.8015
-15.2004
-19.0382
-22.2284
-24.6875
-26.3386
-27.1149
-26.9635
-25.8908
-23.9613
-21.2309
-17.7477
-13.6011
-8.94351
-4.08494
74.1652
70.4104
65.7829
60.683
55.4277
50.0643
44.5734
38.9687
33.2913
27.5887
21.9094
16.3057
10.8353
5.5617
0.553678
-4.11557
-8.36937
-12.1293
-15.3173
-17.859
-19.6869
-20.7446
-20.9926
-20.425
-19.0851
-17.0341
-14.3295
-11.058
-7.35769
-3.49186
74.8657
71.4152
67.1656
62.4767
57.6397
52.6987
47.6336
42.4538
37.1944
31.8975
26.6062
21.3675
16.2332
11.2604
6.51122
2.05143
-2.05018
-5.72356
-8.89945
-11.5122
-13.503
-14.8242
-15.4443
-15.3548
-14.58
-13.1699
-11.189
-8.72073
-5.88733
-2.90616
75.4756
72.2875
68.3668
64.0383
59.57
55.0035
50.3185
45.521
40.6409
35.7152
30.7821
25.883
21.0638
16.3754
11.8728
7.61451
3.66131
0.0751235
-3.08312
-5.75592
-7.89219
-9.45097
-10.4057
-10.7492
-10.493
-9.67207
-8.34942
-6.60461
-4.54474
-2.34664
76.0059
73.0439
69.4094
65.3961
61.2513
57.0143
52.6651
48.2067
43.6648
39.0717
34.461
29.869
25.3362
20.9073
16.6308
12.5583
8.74306
5.23955
2.10107
-0.62215
-2.88563
-4.65376
-5.90345
-6.62839
-6.83391
-6.54278
-5.80949
-4.70816
-3.33262
-1.82633
76.4655
73.6983
70.3123
66.574
62.712
58.7633
54.7086
50.5484
46.3048
42.0058
37.6809
33.362
29.0843
24.8873
20.8133
16.9076
13.2171
9.78922
6.67065
3.90529
1.53203
-0.417859
-1.92364
-2.97811
-3.58795
-3.76702
-3.55534
-3.0215
-2.24818
-1.35252
76.8619
74.2624
71.0919
67.5928
63.9769
60.2794
56.4813
52.5817
48.599
44.5578
40.4838
36.4049
32.3518
28.3591
24.464
20.706
17.1261
13.766
10.6666
7.86618
5.39901
3.29272
1.56612
0.226733
-0.731047
-1.31885
-1.56588
-1.53028
-1.28507
-0.927594
77.2019
74.7462
71.7618
68.47
65.0675
61.5876
58.0121
54.3386
50.5826
46.7657
42.9102
39.0405
35.1834
31.3691
27.6303
24.0016
20.519
17.2189
14.1374
11.308
8.76104
6.52104
4.6051
3.02076
1.76405
0.824639
0.178078
-0.220808
-0.436557
-0.551496
77.4915
75.1587
72.3344
69.2214
66.0027
62.7104
59.3267
55.8481
52.2878
48.6645
44.9978
41.3089
37.6215
33.9617
30.3584
26.8419
23.444
20.1967
17.1316
14.2785
11.6642
9.31067
7.23343
5.43999
3.92815
2.68553
1.6959
0.921142
0.305385
-0.221759
77.736
75.5076
72.82
69.8601
66.7988
63.6668
60.4472
57.1353
53.7423
50.2847
46.7798
43.2459
39.7038
36.1767
32.6897
29.2698
25.9449
22.7434
19.6932
16.8209
14.1502
11.7008
9.48708
7.51616
5.78699
4.28907
3.00589
1.90771
0.947266
0.0634879
77.9417
75.8011
73.2293
70.3992
67.4713
64.4751
61.3942
58.2234
54.9721
51.6549
48.2869
44.8844
41.4656
38.0509
34.6628
31.325
28.0624
24.9003
21.8634
18.9756
16.2581
13.7287
11.4005
9.28041
7.36806
5.65465
4.12464
2.75188
1.49776
0.308614
78.1111
76.0434
73.5684
70.8468
68.0304
65.1473
62.1822
59.1291
55.996
52.7958
49.5421
46.2491
42.9332
39.6126
36.307
33.038
29.8276
26.6986
23.6733
20.7731
18.0171
15.4217
12.9987
10.7547
8.69002
6.79718
5.06081
3.45968
1.95933
0.513431
78.2538
76.2455
73.8497
71.2171
68.4919
65.7014
62.8309
59.8739
56.8373
53.7327
50.5722
47.3688
44.1369
40.893
37.655
34.4421
31.2745
28.1728
25.1572
22.2472
19.4603
16.8113
14.3113
11.9666
9.77759
7.73807
5.83428
4.04571
2.34278
0.684504
78.3639
76.4025
74.0693
71.5071
68.854
66.1366
63.3408
60.4596
57.4992
54.4699
51.383
48.2502
45.0845
41.9011
38.7163
35.5478
32.4141
29.3339
26.3261
23.4085
20.5973
17.9063
15.3458
12.9217
10.6347
8.47915
6.44273
4.5062
2.64291
0.816961
78.4653
76.5383
74.2525
71.7434
69.1443
66.4817
63.7416
60.9172
58.0136
55.0405
52.0084
48.9279
45.8115
42.6729
39.5274
36.3915
33.2825
30.218
27.2154
24.2916
21.4617
18.7387
16.1324
13.6483
11.2873
9.04417
6.90744
4.85864
2.87302
0.918485
78.5254
76.6204
74.3657
71.8925
69.3297
66.7036
64.0008
61.2141
58.3484
55.4129
52.4172
49.3718
46.2882
43.1796
40.0605
36.9467
33.8545
30.8007
27.8021
24.8746
22.0327
19.2889
16.6525
14.1288
11.7186
9.41716
7.21369
5.09025
3.02164
0.97808
78.6135
76.712
74.4741
72.0211
69.4777
66.8703
64.1862
61.4183
58.5711
55.6535
52.675
49.6457
46.5767
43.4811
40.373
37.2677
34.1812
31.1301
28.1307
25.1987
22.3482
19.5915
16.9375
14.3917
11.9544
9.62063
7.37864
5.21087
3.09206
0.985123
)
;

boundaryField
{
    inlet
    {
        type            zeroGradient;
    }
    outlet
    {
        type            fixedValue;
        value           uniform 0;
    }
    flap
    {
        type            zeroGradient;
    }
    upperWall
    {
        type            zeroGradient;
    }
    lowerWall
    {
        type            zeroGradient;
    }
    frontAndBack
    {
        type            empty;
    }
}


// ************************************************************************* //
