/*--------------------------------*- C++ -*----------------------------------*\
  =========                 |
  \\      /  F ield         | OpenFOAM: The Open Source CFD Toolbox
   \\    /   O peration     | Website:  https://openfoam.org
    \\  /    A nd           | Version:  dev
     \\/     M anipulation  |
\*---------------------------------------------------------------------------*/
FoamFile
{
    version     2.0;
    format      ascii;
    class       surfaceScalarField;
    location    "0.8";
    object      phi;
}
// * * * * * * * * * * * * * * * * * * * * * * * * * * * * * * * * * * * * * //

dimensions      [0 3 -1 0 0 0 0];

internalField   nonuniform List<scalar> 
5457
(
0.198395
0.00160526
0.196414
0.00198045
0.194065
0.00234941
0.191304
0.00276096
0.188131
0.0031726
0.184551
0.00358017
0.180559
0.00399194
0.176144
0.00441522
0.171289
0.00485505
0.165974
0.00531532
0.160174
0.00579931
0.153865
0.00630976
0.147016
0.00684858
0.139599
0.00741651
0.131587
0.00801259
0.122953
0.00863354
0.113681
0.00927279
0.103761
0.0099195
0.0932037
0.0105573
0.0820406
0.0111632
0.0703344
0.0117062
0.0581873
0.0121471
0.0457483
0.012439
0.0332171
0.0125312
0.020829
0.0123881
0.00876383
0.0120652
-0.00242834
0.0111922
-0.007999
0.00557066
-0.0074062
-0.000592802
-0.0074062
0.199905
0.00170003
0.199109
0.00277639
0.197837
0.00362211
0.196125
0.00447211
0.193973
0.00532478
0.191379
0.00617449
0.188338
0.00703324
0.184838
0.00791439
0.180865
0.00882806
0.176399
0.00978225
0.171414
0.0107839
0.165885
0.0118387
0.159783
0.012951
0.153076
0.014123
0.145735
0.0153533
0.137732
0.0166365
0.129045
0.0179605
0.119659
0.0193049
0.109579
0.0206381
0.0988269
0.0219149
0.0874595
0.0230735
0.0755728
0.0240338
0.0633173
0.0246945
0.0509163
0.0249322
0.0387147
0.0245896
0.0273671
0.0234129
0.0179161
0.0206432
0.00876832
0.0147184
0.00157804
0.00659747
-0.00582816
0.199758
0.00194198
0.199021
0.00351296
0.19782
0.00482355
0.196207
0.00608489
0.194191
0.00734069
0.191771
0.00859492
0.188942
0.0098617
0.185698
0.0111586
0.182026
0.0125002
0.17791
0.0138988
0.173329
0.0153648
0.16826
0.0169072
0.162678
0.0185329
0.156555
0.0202462
0.149861
0.0220471
0.142568
0.0239296
0.134649
0.0258791
0.126085
0.0278694
0.116864
0.0298585
0.106995
0.0317846
0.0965074
0.0335609
0.08547
0.0350712
0.0740007
0.0361639
0.0622896
0.0366432
0.0506299
0.0362493
0.0394301
0.0346127
0.0289438
0.0311295
0.0186735
0.0249887
0.00918524
0.0160858
0.00335709
0.199681
0.00226141
0.198943
0.00425087
0.197762
0.00600442
0.196175
0.00767172
0.194197
0.00931826
0.19183
0.0109619
0.189072
0.0126199
0.185918
0.0143125
0.18236
0.0160582
0.178387
0.0178722
0.173984
0.0197677
0.169135
0.0217564
0.163821
0.0238472
0.158021
0.0260463
0.151713
0.0283549
0.144875
0.0307677
0.137484
0.0332696
0.129521
0.0358322
0.120972
0.0384084
0.111829
0.0409272
0.102103
0.0432867
0.0918273
0.045347
0.0810688
0.0469223
0.06994
0.0477721
0.0585997
0.0475897
0.0472224
0.0459899
0.0358786
0.0424732
0.0244089
0.0364584
0.0126667
0.027828
0.0160238
0.199645
0.00261644
0.198899
0.00499663
0.197738
0.007166
0.19618
0.0092293
0.194242
0.0112566
0.191926
0.0132777
0.189231
0.0153146
0.186154
0.0173898
0.182688
0.0195243
0.178824
0.021736
0.174552
0.0240403
0.169858
0.0264502
0.164729
0.0289763
0.159149
0.0316257
0.153104
0.0344005
0.146575
0.037296
0.139548
0.0402975
0.132003
0.0433765
0.123927
0.046485
0.115304
0.0495495
0.106128
0.0524628
0.0963996
0.0550756
0.0861339
0.0571881
0.0753637
0.0585423
0.0641356
0.0588178
0.0524912
0.0576343
0.0404134
0.0545509
0.0277563
0.0491156
0.014321
0.0412632
0.0303448
0.19963
0.00298602
0.198884
0.00574308
0.197746
0.00830411
0.196226
0.0107493
0.194336
0.0131462
0.192081
0.0155327
0.18946
0.0179358
0.186469
0.0203804
0.183104
0.0228897
0.179356
0.0254837
0.175217
0.0281795
0.170676
0.0309915
0.165721
0.0339313
0.16034
0.0370068
0.154519
0.0402206
0.148247
0.0435688
0.141506
0.0470376
0.134283
0.0505998
0.126558
0.0542096
0.118312
0.057796
0.10952
0.0612549
0.100156
0.0644397
0.0901912
0.0671527
0.079596
0.0691375
0.0683372
0.0700766
0.0563733
0.0695982
0.0436321
0.0672921
0.0299963
0.0627514
0.0153852
0.0558743
0.0457301
0.199628
0.00335826
0.19889
0.0064813
0.19778
0.00941376
0.196304
0.0122249
0.194472
0.0149782
0.192288
0.0177167
0.189752
0.0204718
0.186862
0.0232711
0.183612
0.0261398
0.179995
0.0290998
0.176005
0.0321699
0.171631
0.0353658
0.166862
0.0387002
0.161687
0.0421816
0.156094
0.0458139
0.150068
0.0495941
0.143596
0.0535104
0.136657
0.0575384
0.12923
0.0616369
0.121284
0.0657416
0.112782
0.0697575
0.103671
0.0735502
0.0938886
0.0769352
0.0833556
0.0796704
0.0719817
0.0814505
0.059669
0.0819109
0.0463168
0.0806443
0.0318471
0.0772212
0.0162809
0.0714404
0.062011
0.199632
0.00372579
0.19891
0.00720346
0.197835
0.0104893
0.19641
0.0136493
0.194644
0.016744
0.192542
0.0198195
0.190102
0.022911
0.187325
0.0260488
0.184204
0.02926
0.180736
0.0325684
0.176912
0.0359942
0.172723
0.0395548
0.168159
0.0432639
0.163209
0.0471317
0.157859
0.0511634
0.152095
0.0553582
0.145898
0.0597073
0.139246
0.0641909
0.132108
0.0687749
0.124444
0.0734053
0.1162
0.0780014
0.107303
0.0824471
0.097658
0.0865805
0.0871459
0.0901826
0.0756291
0.0929673
0.0629637
0.0945762
0.049024
0.094584
0.033752
0.0924932
0.0172402
0.0879522
0.0792512
0.199642
0.00408366
0.198943
0.00790306
0.197907
0.0115251
0.19654
0.0150162
0.194848
0.0184358
0.192836
0.0218318
0.190504
0.0252427
0.187851
0.0287013
0.184875
0.0322365
0.18157
0.0358738
0.177929
0.0396353
0.173944
0.0435396
0.169605
0.0476023
0.164902
0.0518353
0.159819
0.0562462
0.15434
0.0608373
0.148443
0.0656042
0.1421
0.0705337
0.135274
0.0756012
0.127913
0.0807661
0.119948
0.0859663
0.111285
0.0911104
0.101799
0.0960662
0.0913344
0.100647
0.0797051
0.104597
0.0667148
0.107566
0.0521921
0.109107
0.0360617
0.108624
0.0184524
0.105562
0.0977035
0.199655
0.00442829
0.198984
0.00857478
0.197993
0.0125156
0.19669
0.0163196
0.195079
0.0200464
0.193166
0.0237451
0.190952
0.0274571
0.188436
0.0312172
0.185616
0.0350564
0.182488
0.0390018
0.179046
0.0430769
0.175284
0.0473022
0.171191
0.0516952
0.166756
0.0562699
0.161965
0.061037
0.1568
0.0660028
0.151235
0.0711686
0.145239
0.0765297
0.138768
0.0820727
0.13176
0.0877738
0.124133
0.0935934
0.115773
0.0994701
0.106529
0.10531
0.0962054
0.110971
0.0845609
0.116241
0.0713254
0.120802
0.0562393
0.124193
0.0391443
0.125719
0.0201422
0.124564
0.117846
0.199671
0.00475698
0.199032
0.00921423
0.198092
0.0134558
0.196857
0.0175539
0.195335
0.021569
0.193528
0.0255516
0.19144
0.0295451
0.189071
0.0335864
0.186419
0.0377082
0.183482
0.0419391
0.180255
0.0463042
0.176731
0.0508259
0.172903
0.0555234
0.168759
0.0604134
0.164286
0.06551
0.159465
0.0708242
0.15427
0.0763639
0.148665
0.0821337
0.142605
0.0881337
0.13602
0.0943584
0.128819
0.100794
0.120874
0.107416
0.112009
0.114175
0.101989
0.120991
0.0905108
0.127719
0.0772002
0.134113
0.061644
0.139749
0.043485
0.143878
0.022652
0.145397
0.140498
0.199689
0.00506763
0.199086
0.0098178
0.1982
0.0143415
0.19704
0.0187142
0.195611
0.0229979
0.193918
0.0272444
0.191965
0.0314987
0.189751
0.0357997
0.187278
0.0401815
0.184543
0.044674
0.181543
0.049304
0.178274
0.0540952
0.174728
0.0590691
0.170897
0.064245
0.166766
0.0696403
0.16232
0.0752709
0.157532
0.0811519
0.152368
0.0872974
0.14678
0.0937212
0.140701
0.100438
0.134034
0.107461
0.126646
0.114804
0.118346
0.122475
0.108869
0.130468
0.097847
0.138742
0.0847799
0.14718
0.0690213
0.155508
0.0498243
0.163075
0.0266016
0.168619
0.167099
0.199709
0.00535856
0.199144
0.0103825
0.198317
0.0151687
0.197235
0.019796
0.195905
0.0243279
0.194332
0.0288174
0.19252
0.0333111
0.19047
0.0378493
0.188185
0.0424673
0.185662
0.0471963
0.182902
0.0520644
0.1799
0.0570968
0.176653
0.0623167
0.173152
0.0677458
0.169387
0.0734048
0.165344
0.0793143
0.161
0.0854958
0.156325
0.0919725
0.151275
0.0987714
0.145787
0.105925
0.139773
0.113475
0.133104
0.121473
0.125594
0.129985
0.11697
0.139092
0.106823
0.148888
0.09454
0.159463
0.0791902
0.170857
0.0593861
0.182879
0.0332814
0.194724
0.200381
0.19973
0.00562844
0.199207
0.0109059
0.198441
0.0159343
0.197441
0.0207955
0.196215
0.0255546
0.194767
0.0302656
0.193101
0.0349764
0.191222
0.0397285
0.189131
0.0445581
0.18683
0.0494975
0.184319
0.0545758
0.181596
0.0598193
0.17866
0.0652527
0.175506
0.0708996
0.172128
0.0767836
0.168513
0.082929
0.164646
0.0893626
0.160503
0.0961153
0.15605
0.103225
0.151236
0.110739
0.14599
0.118721
0.140207
0.127257
0.133729
0.136463
0.126317
0.146505
0.11759
0.157615
0.106916
0.170137
0.0931758
0.184597
0.0742398
0.201815
0.0457591
0.223205
0.24614
0.199752
0.00587624
0.199272
0.0113861
0.198571
0.0166358
0.197656
0.0217098
0.196536
0.0266744
0.195217
0.0315849
0.193704
0.03649
0.192
0.0414319
0.19011
0.0464479
0.188037
0.0515708
0.185782
0.0568303
0.183348
0.0622536
0.180734
0.0678664
0.17794
0.0736937
0.174963
0.0797607
0.171798
0.0860947
0.168434
0.0927257
0.16486
0.09969
0.161052
0.107032
0.156982
0.11481
0.152602
0.1231
0.147849
0.13201
0.142626
0.141687
0.136781
0.152349
0.130073
0.164323
0.122072
0.178138
0.111929
0.19474
0.0976156
0.216129
0.0724871
0.248333
0.318627
-0.0152888
0.0152888
-0.0329043
0.0176154
-0.051056
0.0181518
-0.0693766
0.0183205
-0.0876088
0.0182322
-0.105563
0.0179547
-0.123086
0.0175222
-0.140043
0.0169572
-0.156317
0.0162743
-0.1718
0.0154824
-0.186384
0.0145842
-0.199961
0.0135777
-0.212418
0.0124564
-0.223629
0.0112107
-0.233457
0.00982807
-0.241751
0.00829458
-0.248346
0.0065946
-0.25306
0.00471441
-0.255718
0.0026573
-0.256019
0.000301183
-0.253766
-0.00225235
-0.248527
-0.00523971
-0.23993
-0.00859674
-0.227544
-0.0123855
-0.210824
-0.0167203
-0.189089
-0.0217354
-0.161398
-0.0276912
-0.125858
-0.0355395
-0.0791041
-0.046754
-0.0530858
-0.0194981
0.0347869
-0.0391039
0.0372213
-0.0587456
0.0377934
-0.0782973
0.0378723
-0.0975786
0.0375135
-0.116431
0.0368068
-0.13472
0.0358111
-0.152331
0.0345685
-0.169163
0.0331068
-0.185122
0.0314413
-0.200114
0.0295756
-0.214039
0.0275035
-0.226794
0.0252107
-0.23826
0.0226765
-0.248307
0.0198755
-0.256792
0.0167797
-0.263558
0.0133605
-0.268436
0.00959252
-0.271219
0.00543978
-0.271797
0.000879762
-0.269874
-0.00417524
-0.265333
-0.00978075
-0.257899
-0.0160311
-0.24728
-0.0230043
-0.233155
-0.0308454
-0.215176
-0.0397147
-0.193006
-0.0498608
-0.166616
-0.0619294
-0.136954
-0.0764166
-0.0914713
-0.0203484
0.0551353
-0.0404455
0.0573184
-0.0602431
0.057591
-0.0797035
0.0573327
-0.0987219
0.0565319
-0.1172
0.0552847
-0.13505
0.0536609
-0.152195
0.0517136
-0.168565
0.049477
-0.184091
0.0469676
-0.198701
0.0441854
-0.212314
0.041116
-0.224837
0.0377342
-0.236166
0.0340058
-0.246182
0.0298911
-0.254749
0.0253472
-0.26172
0.020331
-0.26693
0.0148027
-0.27022
0.00873014
-0.271399
0.00205814
-0.270376
-0.00519778
-0.266961
-0.0131965
-0.260978
-0.0220137
-0.252251
-0.0317308
-0.240604
-0.0424933
-0.225879
-0.0544395
-0.208057
-0.067682
-0.187514
-0.0824724
-0.164533
-0.0993982
-0.118061
-0.0197077
0.0748429
-0.039167
0.0767778
-0.0582139
0.0766379
-0.0768122
0.0759311
-0.0949033
0.074623
-0.11244
0.0728213
-0.129378
0.0705985
-0.145673
0.0680092
-0.161281
0.0650853
-0.17615
0.0618364
-0.190217
0.0582525
-0.203408
0.0543065
-0.215632
0.0499584
-0.226785
0.0451588
-0.236747
0.0398527
-0.245382
0.033983
-0.252545
0.0274932
-0.258075
0.0203328
-0.261808
0.0124636
-0.26361
0.00386036
-0.263345
-0.00546347
-0.260931
-0.0156105
-0.256255
-0.0266893
-0.24922
-0.0387659
-0.239745
-0.0519685
-0.227791
-0.0663932
-0.213469
-0.0820042
-0.197153
-0.098788
-0.179234
-0.117317
-0.136822
-0.0182482
0.0930911
-0.0362984
0.094828
-0.0539594
0.094299
-0.0711869
0.0931586
-0.0879445
0.0913806
-0.104214
0.0890911
-0.119977
0.0863611
-0.135208
0.0832397
-0.149872
0.0797493
-0.163922
0.0758868
-0.177297
0.0716275
-0.18992
0.0669294
-0.201699
0.0617374
-0.212528
0.0559876
-0.222287
0.0496118
-0.230844
0.0425406
-0.238059
0.0347077
-0.24378
0.0260544
-0.247859
0.0165422
-0.250168
0.00616907
-0.250598
-0.00503333
-0.249097
-0.0171113
-0.245617
-0.0301692
-0.240131
-0.0442522
-0.232631
-0.0594683
-0.223148
-0.0758762
-0.211817
-0.093335
-0.198961
-0.111645
-0.185185
-0.131093
-0.150276
-0.0162386
0.10933
-0.0323781
0.110967
-0.0482158
0.110137
-0.0637094
0.108652
-0.0788365
0.106508
-0.0935935
0.103848
-0.107971
0.100739
-0.121952
0.09722
-0.135502
0.0932996
-0.148575
0.0889594
-0.161106
0.0841586
-0.173016
0.0788403
-0.184214
0.0729352
-0.194593
0.0663664
-0.204035
0.0590535
-0.21241
0.0509163
-0.219582
0.0418796
-0.225406
0.0318785
-0.229739
0.0208753
-0.232457
0.00888658
-0.233469
-0.00402094
-0.232766
-0.0178142
-0.230361
-0.0325748
-0.226288
-0.0483246
-0.220599
-0.0651577
-0.213356
-0.0831193
-0.204669
-0.102022
-0.194798
-0.121515
-0.184441
-0.14145
-0.159918
-0.0138433
0.123173
-0.0277256
0.12485
-0.0414275
0.123839
-0.0549161
0.122141
-0.0681813
0.119773
-0.0812272
0.116894
-0.0940473
0.113559
-0.106622
0.109795
-0.118917
0.105595
-0.13088
0.100922
-0.142442
0.0957203
-0.15352
0.0899185
-0.164019
0.0834346
-0.173833
0.0761801
-0.182843
0.068064
-0.190924
0.0589972
-0.197942
0.0488976
-0.203761
0.0376971
-0.208245
0.0253595
-0.211272
0.0119135
-0.21276
-0.00253349
-0.212738
-0.0178353
-0.211282
-0.0340312
-0.208491
-0.0511154
-0.204468
-0.069181
-0.199287
-0.0883004
-0.193007
-0.108302
-0.1858
-0.128722
-0.17831
-0.14894
-0.166637
-0.0111715
0.134345
-0.0225417
0.13622
-0.0338717
0.135169
-0.0451454
0.133414
-0.0563651
0.130993
-0.0675401
0.128069
-0.0786615
0.12468
-0.0897055
0.120839
-0.10063
0.116519
-0.111375
0.111667
-0.121867
0.106212
-0.132017
0.100068
-0.141727
0.0931447
-0.150889
0.0853426
-0.159387
0.0765616
-0.167094
0.0667046
-0.17388
0.0556838
-0.179612
0.0434282
-0.184155
0.029903
-0.187388
0.0151466
-0.189216
-0.000705939
-0.189725
-0.0173263
-0.189055
-0.0347011
-0.18738
-0.0527901
-0.18486
-0.0717017
-0.181575
-0.0915849
-0.177523
-0.112354
-0.172751
-0.133493
-0.167738
-0.153953
-0.170981
-0.00829019
0.142635
-0.0169512
0.144881
-0.0257225
0.14394
-0.0346149
0.142307
-0.0436436
0.140021
-0.0528219
0.137247
-0.0621348
0.133993
-0.07155
0.130254
-0.0810156
0.125985
-0.0904632
0.121115
-0.09981
0.115559
-0.108963
0.109221
-0.117822
0.102004
-0.12628
0.0938
-0.134218
0.0844996
-0.141509
0.0739962
-0.14802
0.0621941
-0.15361
0.0490188
-0.158142
0.0344353
-0.161493
0.0184976
-0.163517
0.00131751
-0.164382
-0.0164614
-0.164302
-0.0347807
-0.163535
-0.0535574
-0.162311
-0.072925
-0.160734
-0.0931626
-0.158743
-0.114345
-0.156236
-0.136
-0.153441
-0.156748
-0.173302
-0.0052419
0.147877
-0.0110297
0.150669
-0.0170871
0.149997
-0.023464
0.148684
-0.0301894
0.146747
-0.0372784
0.144336
-0.0447035
0.141419
-0.0524207
0.137971
-0.0603648
0.133929
-0.0684563
0.129206
-0.0766039
0.123706
-0.0847083
0.117326
-0.0926717
0.109967
-0.100388
0.101517
-0.107742
0.091853
-0.114602
0.080857
-0.120826
0.068418
-0.126258
0.0544507
-0.130733
0.0389103
-0.134087
0.021851
-0.136244
0.00347471
-0.137333
-0.0153727
-0.13764
-0.0344732
-0.137542
-0.0536557
-0.137363
-0.073104
-0.137248
-0.0932774
-0.137112
-0.114481
-0.136715
-0.136398
-0.135977
-0.157486
-0.173824
-0.00207051
0.149947
-0.00481982
0.153418
-0.00802739
0.153205
-0.0117778
0.152434
-0.01612
0.151089
-0.0210615
0.149278
-0.0265522
0.146909
-0.0325312
0.14395
-0.0389155
0.140313
-0.0456117
0.135903
-0.0525184
0.130613
-0.0595254
0.124333
-0.0665444
0.116986
-0.0734763
0.108449
-0.0802114
0.0985881
-0.0866235
0.0872691
-0.0925605
0.074355
-0.0978467
0.0597369
-0.10229
0.0433538
-0.105676
0.025237
-0.107895
0.00569345
-0.109095
-0.0141723
-0.109631
-0.033938
-0.109987
-0.0532995
-0.110583
-0.0725073
-0.111632
-0.092229
-0.113068
-0.113045
-0.114579
-0.134887
-0.115788
-0.156277
-0.172698
0.00119833
0.148749
0.0016437
0.152973
0.00140487
0.153444
0.000384443
0.153454
-0.00153486
0.153008
-0.00429033
0.152033
-0.00783523
0.150454
-0.0120681
0.148183
-0.01688
0.145125
-0.022162
0.141185
-0.0278003
0.136251
-0.0336553
0.130188
-0.0396642
0.122995
-0.0457366
0.114521
-0.0517733
0.104625
-0.0576635
0.0931593
-0.0632621
0.0799537
-0.0683803
0.064855
-0.0728359
0.0478093
-0.07635
0.0287512
-0.0786439
0.00798731
-0.0799456
-0.0128707
-0.0806712
-0.0332124
-0.0813778
-0.0525929
-0.0825414
-0.0713437
-0.0844438
-0.0903266
-0.0870924
-0.110396
-0.0902073
-0.131772
-0.0932361
-0.153248
-0.170033
0.0046083
0.144141
0.0084026
0.149178
0.0112243
0.150622
0.0129411
0.151738
0.0134576
0.152492
0.0128382
0.152653
0.0112214
0.152071
0.00874557
0.150659
0.0055396
0.148331
0.00171896
0.145005
-0.00262021
0.14059
-0.00732221
0.13489
-0.0122716
0.127945
-0.0173897
0.119639
-0.0225953
0.10983
-0.0278035
0.0983674
-0.0329021
0.0850523
-0.0376809
0.0696338
-0.0420681
0.0521965
-0.0458069
0.03249
-0.0484092
0.0105896
-0.049866
-0.0114139
-0.0509233
-0.0321551
-0.0520536
-0.0514625
-0.0537176
-0.0696797
-0.0562394
-0.0878048
-0.0597225
-0.106913
-0.0640129
-0.127481
-0.0686314
-0.14863
-0.165909
0.00826261
0.135878
0.0155606
0.14188
0.0215269
0.144656
0.0259252
0.147339
0.0287393
0.149678
0.0301512
0.151241
0.03036
0.151862
0.0295542
0.151465
0.0278962
0.149989
0.0255298
0.147372
0.0225814
0.143539
0.0191367
0.138334
0.015342
0.131739
0.0112979
0.123683
0.00708585
0.114042
0.00277587
0.102677
-0.00160546
0.0894337
-0.00595605
0.0739844
-0.00986359
0.0561041
-0.013404
0.0360305
-0.0163746
0.0135602
-0.0185544
-0.00923411
-0.0203373
-0.0303723
-0.0221671
-0.0496327
-0.0244348
-0.067412
-0.027485
-0.0847545
-0.0315019
-0.102896
-0.0364796
-0.122503
-0.0422487
-0.142861
-0.1604
0.0122888
0.123589
0.0232828
0.130886
0.0325351
0.135404
0.0394523
0.140422
0.0443404
0.14479
0.0475744
0.148007
0.0494425
0.149994
0.0501797
0.150728
0.049978
0.150191
0.048998
0.148352
0.0473742
0.145163
0.0451937
0.140515
0.0425798
0.134353
0.0396443
0.126619
0.0364794
0.117207
0.0331706
0.105986
0.0298172
0.092787
0.0264646
0.077337
0.0231613
0.0594074
0.0200976
0.0390942
0.0169033
0.0167545
0.0139134
-0.00624418
0.0111217
-0.0275806
0.00827584
-0.0467869
0.00515534
-0.0642915
0.00151973
-0.0811189
-0.00286503
-0.0985113
-0.00810926
-0.117259
-0.0145006
-0.13647
-0.15407
0.207427
0.00610929
0.206975
0.0118374
0.206317
0.017294
0.205461
0.0225658
0.204415
0.0277204
0.203186
0.0328139
0.20178
0.0378956
0.200204
0.0430085
0.198462
0.0481901
0.196559
0.0534737
0.1945
0.0588893
0.192289
0.0644645
0.18993
0.0702254
0.187426
0.0761976
0.18478
0.0824071
0.181992
0.0888822
0.179063
0.0956548
0.17599
0.102763
0.17277
0.110253
0.169394
0.118186
0.165853
0.126641
0.162135
0.135728
0.158227
0.145595
0.154122
0.156454
0.149831
0.168614
0.145439
0.18253
0.141288
0.19889
0.138972
0.218445
0.14869
0.238614
0.248959
0.218358
0.21247
0.00632178
0.212059
0.0122485
0.21146
0.0178927
0.210683
0.0233428
0.209737
0.0286673
0.208628
0.0339229
0.207364
0.0391592
0.205953
0.0444195
0.204402
0.0497415
0.202717
0.0551584
0.200906
0.0607001
0.198976
0.0663941
0.196936
0.0722661
0.194792
0.0783413
0.192554
0.0846457
0.190229
0.0912066
0.187829
0.0980551
0.185364
0.105227
0.182849
0.112768
0.180303
0.120731
0.177755
0.129189
0.175252
0.138231
0.17287
0.147976
0.170754
0.158571
0.169179
0.170188
0.168724
0.182986
0.170664
0.19695
0.177348
0.211761
0.189534
0.226428
0.240037
0.198457
0.217638
0.00651142
0.217271
0.0126152
0.216738
0.0184257
0.216049
0.0240326
0.215211
0.0295052
0.214233
0.0349002
0.213125
0.0402675
0.211895
0.04565
0.210551
0.0510854
0.209103
0.0566064
0.207561
0.0622422
0.205935
0.0680195
0.204238
0.0739632
0.202482
0.0800971
0.200683
0.0864455
0.198856
0.0930335
0.197022
0.0998888
0.195207
0.107043
0.193442
0.114533
0.191772
0.122402
0.190258
0.130702
0.188993
0.139496
0.188117
0.148852
0.187851
0.158837
0.18854
0.169499
0.190699
0.180827
0.194954
0.192695
0.201757
0.204958
0.210524
0.217661
0.228503
0.222058
0.222932
0.00667605
0.222614
0.0129331
0.222153
0.0188868
0.221558
0.0246274
0.220839
0.0302245
0.220004
0.0357347
0.219064
0.0412076
0.218029
0.0466857
0.216908
0.0522059
0.215714
0.0578001
0.21446
0.0634965
0.213159
0.0693204
0.211828
0.0752947
0.210483
0.0814414
0.209147
0.0877817
0.207844
0.094337
0.206603
0.10113
0.205461
0.108184
0.204467
0.115527
0.203682
0.123186
0.203191
0.131194
0.203109
0.139578
0.203596
0.148365
0.20487
0.157563
0.207214
0.167155
0.210961
0.177081
0.216438
0.187217
0.224054
0.197342
0.234493
0.207221
0.214766
0.24823
0.228356
0.00681361
0.22809
0.0131984
0.227707
0.0192704
0.227214
0.02512
0.226622
0.0308164
0.225941
0.0364161
0.225181
0.0419678
0.224353
0.0475134
0.22347
0.0530886
0.222546
0.0587242
0.221596
0.0644466
0.220638
0.0702792
0.21969
0.0762428
0.218775
0.0823561
0.21792
0.0886366
0.217156
0.0951009
0.216521
0.101765
0.216061
0.108645
0.215833
0.115754
0.215912
0.123108
0.216392
0.130714
0.217393
0.138577
0.219069
0.146689
0.221611
0.155021
0.225247
0.163519
0.230242
0.172086
0.236896
0.180563
0.245574
0.188665
0.256667
0.196129
0.201943
0.269489
0.233912
0.00692222
0.233703
0.0134074
0.233402
0.0195712
0.233019
0.0255034
0.232562
0.0312728
0.232043
0.0369349
0.231474
0.0425376
0.230866
0.0481215
0.230233
0.0537211
0.229592
0.0593653
0.22896
0.0650787
0.228357
0.0708823
0.227806
0.0767939
0.227333
0.0828289
0.226969
0.0890002
0.226751
0.0953189
0.226722
0.101794
0.226934
0.108433
0.227451
0.115238
0.22835
0.122208
0.229726
0.129338
0.231695
0.136608
0.234396
0.143988
0.23799
0.151426
0.242664
0.158845
0.248623
0.166128
0.256071
0.173115
0.265162
0.179574
0.275981
0.18531
0.189852
0.288072
0.239603
0.00700015
0.239454
0.0135568
0.239241
0.0197844
0.238972
0.0257717
0.238659
0.0315864
0.238311
0.0372829
0.237941
0.0429078
0.237562
0.0485003
0.23719
0.0540931
0.236842
0.0597131
0.236538
0.0653828
0.2363
0.0711202
0.236154
0.0769402
0.236129
0.082854
0.236259
0.0888702
0.236583
0.0949942
0.237149
0.101228
0.238012
0.10757
0.239235
0.114015
0.240895
0.120548
0.243082
0.12715
0.2459
0.13379
0.249467
0.140421
0.253914
0.146979
0.25938
0.153379
0.265998
0.159509
0.273881
0.165232
0.283079
0.170375
0.29361
0.17478
0.178196
0.305265
0.245433
0.00704588
0.245346
0.0136436
0.245225
0.0199059
0.245077
0.0259196
0.244912
0.0317511
0.244742
0.0374532
0.244579
0.043071
0.244437
0.048642
0.244333
0.0541968
0.244286
0.0597603
0.244317
0.0653522
0.244449
0.0709879
0.244711
0.0766787
0.245133
0.0824322
0.245751
0.0882522
0.246606
0.0941388
0.247746
0.100088
0.249225
0.106091
0.251106
0.112134
0.253459
0.118195
0.256366
0.124244
0.259913
0.130242
0.264198
0.136136
0.269317
0.14186
0.275366
0.14733
0.282427
0.152448
0.290558
0.157102
0.299772
0.161161
0.31005
0.164501
0.166992
0.321254
0.251405
0.00705814
0.251383
0.0136656
0.251357
0.0199322
0.251334
0.0259428
0.251323
0.0317618
0.251336
0.0374404
0.251385
0.0430217
0.251486
0.0485411
0.251655
0.0540273
0.251913
0.0595026
0.252281
0.0649843
0.252784
0.0704848
0.253451
0.0760122
0.254313
0.0815701
0.255406
0.0871584
0.256773
0.0927725
0.258458
0.0984031
0.260513
0.104036
0.262996
0.109651
0.26597
0.115221
0.269503
0.120711
0.273666
0.126079
0.278534
0.131269
0.284174
0.136219
0.29065
0.140855
0.298006
0.145092
0.306267
0.148841
0.31542
0.152009
0.325418
0.154503
0.156259
0.336151
0.257521
0.00703588
0.257566
0.0136206
0.257638
0.0198605
0.257743
0.0258379
0.25789
0.0316149
0.258089
0.0372405
0.258355
0.042756
0.258702
0.0481944
0.259147
0.0535822
0.25971
0.0589393
0.260414
0.0642804
0.261284
0.069615
0.262348
0.0749481
0.263638
0.0802802
0.265189
0.0856074
0.26704
0.0909213
0.269234
0.0962086
0.271819
0.101451
0.274845
0.106625
0.278365
0.111701
0.282435
0.116641
0.287111
0.121403
0.292445
0.125935
0.298483
0.130181
0.305262
0.134076
0.312801
0.137553
0.3211
0.140543
0.330129
0.142979
0.339832
0.1448
0.145973
0.350118
0.263785
0.00697835
0.263898
0.0135072
0.26407
0.019689
0.264305
0.0256026
0.264612
0.0313079
0.265001
0.0368515
0.265485
0.0422723
0.266078
0.0476012
0.266798
0.0528621
0.267665
0.0580728
0.2687
0.0632452
0.269928
0.0683865
0.271378
0.0734988
0.273078
0.0785799
0.275063
0.0836228
0.277368
0.0886163
0.280032
0.0935445
0.283096
0.0983868
0.286604
0.103118
0.290598
0.107706
0.295122
0.112117
0.300217
0.116308
0.305917
0.120235
0.312251
0.123847
0.319234
0.127092
0.326868
0.129918
0.335138
0.132274
0.344005
0.134112
0.353411
0.135394
0.136105
0.363279
0.2702
0.00688509
0.270383
0.0133246
0.270655
0.0194164
0.271022
0.0252359
0.27149
0.03084
0.272069
0.0362729
0.27277
0.041571
0.273608
0.0467629
0.2746
0.0518703
0.275764
0.0569084
0.277123
0.0618872
0.278698
0.0668113
0.280516
0.0716805
0.282606
0.0764904
0.284997
0.0812319
0.287721
0.0858919
0.290812
0.0904531
0.294305
0.0948937
0.298235
0.0991881
0.302635
0.103306
0.307536
0.107215
0.312967
0.110878
0.318948
0.114254
0.325492
0.117303
0.332602
0.119983
0.340265
0.122255
0.348458
0.124081
0.357139
0.125432
0.366252
0.126281
0.126628
0.375728
0.27677
0.00675589
0.277022
0.0130725
0.277396
0.0190426
0.277894
0.0247376
0.278523
0.0302115
0.27929
0.0355058
0.280207
0.0406543
0.281286
0.0456834
0.282544
0.0506125
0.283998
0.0554546
0.285667
0.0602177
0.287574
0.0649042
0.289742
0.0695125
0.292196
0.0740362
0.294963
0.0784651
0.29807
0.082785
0.301545
0.086978
0.305416
0.0910226
0.30971
0.0948942
0.314451
0.0985652
0.319661
0.102005
0.325356
0.105183
0.331545
0.108065
0.338231
0.110617
0.345404
0.112809
0.353048
0.114612
0.36113
0.115999
0.369609
0.116952
0.378433
0.117458
0.117521
0.38754
0.283498
0.00659087
0.283819
0.0127511
0.284294
0.018568
0.284923
0.0241087
0.28571
0.0294242
0.286663
0.0345529
0.287791
0.0395265
0.289105
0.0443687
0.290621
0.0490968
0.292354
0.0537221
0.294321
0.0582505
0.296542
0.0626832
0.299037
0.0670168
0.301829
0.0712443
0.30494
0.0753545
0.308392
0.0793331
0.312207
0.0831625
0.316408
0.0868225
0.321011
0.0902903
0.326036
0.0935411
0.331492
0.0965488
0.337388
0.0992866
0.343725
0.101728
0.350496
0.103847
0.357685
0.10562
0.36527
0.107027
0.373217
0.108052
0.381485
0.108684
0.390026
0.108917
0.108762
0.398785
0.290387
0.00639038
0.290777
0.0123612
0.291351
0.0179939
0.292108
0.0233513
0.293051
0.028481
0.294186
0.0334186
0.295519
0.0381932
0.297061
0.0428264
0.298825
0.0473333
0.300823
0.0517236
0.303072
0.0560017
0.305587
0.0601676
0.308387
0.0642171
0.311489
0.0681425
0.314911
0.0719326
0.31867
0.0755736
0.322784
0.0790489
0.327267
0.0823399
0.332131
0.0854263
0.337385
0.0882868
0.343034
0.0908994
0.349079
0.0932422
0.355512
0.0952945
0.362322
0.097037
0.369489
0.0984531
0.376986
0.0995295
0.384781
0.100257
0.392833
0.100631
0.401098
0.100652
0.100332
0.409528
0.297441
0.00615506
0.297898
0.011904
0.29857
0.0173223
0.299453
0.0224684
0.300548
0.027386
0.301858
0.0321084
0.303389
0.0366619
0.30515
0.0410658
0.30715
0.0453337
0.3094
0.0494737
0.311912
0.0534889
0.314702
0.0573785
0.317781
0.0611379
0.321164
0.0647593
0.324865
0.0682319
0.328895
0.0715428
0.333267
0.074677
0.337989
0.0776178
0.343068
0.0803479
0.348505
0.0828492
0.354301
0.0851038
0.360449
0.0870947
0.366937
0.0888062
0.373749
0.0902244
0.380864
0.0913385
0.388253
0.0921407
0.395883
0.0926267
0.403718
0.0927967
0.411715
0.0926544
0.0922134
0.419834
0.304664
0.00588574
0.305187
0.0113812
0.305954
0.0165559
0.306958
0.0214635
0.3082
0.0261444
0.309679
0.0306289
0.311401
0.0349407
0.313369
0.0390975
0.315592
0.0431109
0.318078
0.0469877
0.320836
0.0507303
0.323877
0.0543373
0.327211
0.057804
0.330848
0.0611228
0.334796
0.0642838
0.339064
0.0672752
0.343657
0.0700838
0.348579
0.0726954
0.353832
0.0750952
0.359412
0.0772687
0.365314
0.0792018
0.371528
0.0808815
0.378037
0.0822965
0.384824
0.0834377
0.391864
0.0842985
0.399129
0.0848753
0.406588
0.0851678
0.414206
0.0851789
0.421946
0.0849149
0.08439
0.429769
0.312061
0.00558347
0.312647
0.010795
0.313505
0.0156979
0.314627
0.0203413
0.316009
0.024762
0.317651
0.0289875
0.319552
0.0330392
0.321717
0.0369328
0.324149
0.0406785
0.326855
0.0442819
0.329841
0.0477448
0.333113
0.0510656
0.336677
0.0542396
0.34054
0.0572599
0.344706
0.0601177
0.349179
0.0628025
0.353959
0.065303
0.359047
0.0676073
0.364439
0.0697035
0.370128
0.0715801
0.376103
0.0732263
0.382352
0.0746328
0.388856
0.0757921
0.395596
0.0766985
0.402545
0.077349
0.409677
0.077743
0.416962
0.0778829
0.424367
0.0777738
0.431859
0.0774232
0.0768452
0.439404
0.319634
0.00524942
0.320281
0.0101476
0.321227
0.0147518
0.322462
0.0191066
0.323979
0.0232452
0.325774
0.0271923
0.327846
0.0309673
0.330195
0.0345836
0.332823
0.0380504
0.335732
0.0413724
0.338926
0.0445509
0.342408
0.0475842
0.346179
0.050468
0.350243
0.0531961
0.3546
0.0557608
0.359249
0.0581533
0.364188
0.0603642
0.369412
0.0623837
0.374913
0.0642025
0.380681
0.0658118
0.386703
0.0672039
0.392964
0.0683724
0.399443
0.0693127
0.40612
0.0700221
0.412968
0.0705001
0.419963
0.0707484
0.427075
0.0707711
0.434274
0.0705745
0.44153
0.070167
0.0695621
0.448813
0.327388
0.00488487
0.328094
0.00944157
0.329124
0.0137215
0.330466
0.0177646
0.332111
0.0216008
0.334051
0.0252519
0.336283
0.028735
0.338805
0.032062
0.341615
0.0352407
0.344712
0.0382753
0.348096
0.0411666
0.351767
0.0439129
0.355725
0.0465107
0.359967
0.0489544
0.36449
0.0512376
0.36929
0.053353
0.374361
0.0552929
0.379695
0.0570498
0.385281
0.0586165
0.391106
0.0599866
0.397155
0.061155
0.40341
0.0621176
0.409851
0.0628721
0.416455
0.063418
0.423198
0.0637567
0.430055
0.0638914
0.436999
0.0638273
0.444002
0.0635713
0.451037
0.0631321
0.0625225
0.458077
0.335328
0.00449113
0.33609
0.00867947
0.3372
0.0126109
0.338644
0.0163207
0.340409
0.0198356
0.342487
0.0231746
0.344869
0.0263525
0.347551
0.0293797
0.350529
0.0322629
0.353799
0.0350056
0.357357
0.0376085
0.3612
0.04007
0.365323
0.0423871
0.369723
0.0445553
0.374391
0.0465691
0.379321
0.0484228
0.384504
0.0501104
0.389928
0.051626
0.395579
0.0529646
0.401444
0.0541218
0.407505
0.0550942
0.413743
0.0558799
0.420136
0.0564783
0.426664
0.0568904
0.433302
0.0571188
0.440026
0.0571676
0.44681
0.0570428
0.45363
0.0567514
0.46046
0.056302
0.0557062
0.467277
0.343457
0.00406944
0.344273
0.00786382
0.34546
0.0114237
0.347001
0.0147803
0.34888
0.0179566
0.351085
0.0209688
0.353608
0.0238297
0.35644
0.0265481
0.359573
0.0291298
0.363001
0.0315775
0.366718
0.0338919
0.370716
0.0360717
0.374989
0.0381144
0.379528
0.0400162
0.384324
0.041773
0.389366
0.0433802
0.394644