/*--------------------------------*- C++ -*----------------------------------*\
  =========                 |
  \\      /  F ield         | OpenFOAM: The Open Source CFD Toolbox
   \\    /   O peration     | Website:  https://openfoam.org
    \\  /    A nd           | Version:  dev
     \\/     M anipulation  |
\*---------------------------------------------------------------------------*/
FoamFile
{
    version     2.0;
    format      ascii;
    class       surfaceVectorField;
    location    "0.8";
    object      Uf;
}
// * * * * * * * * * * * * * * * * * * * * * * * * * * * * * * * * * * * * * //

dimensions      [0 1 -1 0 0 0 0];

internalField   nonuniform List<vector> 
5457
(
(9.91974 0 0.0255139)
(9.97078 0 0.0393063)
(9.82071 0 0.0334925)
(9.92661 0 0.0496663)
(9.70324 0 0.040225)
(9.8509 0 0.0603444)
(9.5652 0 0.0471569)
(9.74871 0 0.0726305)
(9.40657 0 0.0543115)
(9.62517 0 0.085478)
(9.22756 0 0.0617294)
(9.48133 0 0.0987922)
(9.02796 0 0.0695557)
(9.31656 0 0.112819)
(8.8072 0 0.0779386)
(9.13009 0 0.1278)
(8.56445 0 0.0870073)
(8.92118 0 0.143931)
(8.29868 0 0.0968836)
(8.68898 0 0.161387)
(8.00871 0 0.10769)
(8.43241 0 0.180342)
(7.69323 0 0.119549)
(8.15021 0 0.200962)
(7.3508 0 0.132582)
(7.84099 0 0.223399)
(6.97997 0 0.146897)
(7.50327 0 0.247777)
(6.57934 0 0.162583)
(7.13558 0 0.274167)
(6.14767 0 0.17969)
(6.73651 0 0.30256)
(5.68403 0 0.198205)
(6.30486 0 0.332823)
(5.18805 0 0.218022)
(5.83982 0 0.364647)
(4.66019 0 0.2389)
(5.34121 0 0.397481)
(4.10203 0 0.260416)
(4.80979 0 0.430458)
(3.51672 0 0.281903)
(4.24759 0 0.462315)
(2.90937 0 0.302401)
(3.6584 0 0.491334)
(2.28742 0 0.320629)
(3.04816 0 0.515312)
(1.66086 0 0.335225)
(2.42554 0 0.531688)
(1.04145 0 0.346127)
(1.80228 0 0.538331)
(0.438191 0 0.333616)
(1.19885 0 0.536983)
(-0.121417 0 0.128536)
(0.614922 0 0.510177)
(-0.39995 0 -0.159183)
(0.0897327 0 0.260072)
(-0.37031 0 -0.320184)
(-0.10224 0 -0.028345)
(-0.101723 0 -0.362696)
(9.99526 0 0.0529007)
(9.99659 0 0.0416268)
(9.95546 0 0.0728558)
(9.97655 0 0.069627)
(9.89183 0 0.090697)
(9.92922 0 0.0930336)
(9.80627 0 0.109359)
(9.85649 0 0.117644)
(9.69866 0 0.128907)
(9.7621 0 0.143463)
(9.56895 0 0.149392)
(9.64721 0 0.17038)
(9.41688 0 0.171116)
(9.51142 0 0.198772)
(9.24192 0 0.194406)
(9.35409 0 0.229085)
(9.04327 0 0.219549)
(9.17459 0 0.261713)
(8.81993 0 0.246807)
(8.97214 0 0.297016)
(8.5707 0 0.276436)
(8.74575 0 0.335348)
(8.29425 0 0.308675)
(8.49427 0 0.377055)
(7.98913 0 0.343731)
(8.21637 0 0.42246)
(7.65381 0 0.381753)
(7.91062 0 0.471832)
(7.28677 0 0.422792)
(7.57556 0 0.525345)
(6.88662 0 0.466749)
(7.2097 0 0.583021)
(6.45224 0 0.513303)
(6.81171 0 0.644646)
(5.98297 0 0.56182)
(6.38051 0 0.709659)
(5.47893 0 0.611249)
(5.91552 0 0.77702)
(4.94134 0 0.660004)
(5.41693 0 0.84505)
(4.37297 0 0.705841)
(4.88605 0 0.911252)
(3.77864 0 0.745749)
(4.32582 0 0.972134)
(3.16586 0 0.77586)
(3.74133 0 1.02302)
(2.54582 0 0.79139)
(3.14066 0 1.05785)
(1.93574 0 0.786294)
(2.53595 0 1.06856)
(1.36835 0 0.744413)
(1.94685 0 1.04203)
(0.895805 0 0.60956)
(1.38919 0 0.940984)
(0.438416 0 0.339894)
(0.899307 0 0.687144)
(0.0789022 0 -0.125659)
(0.456631 0 0.31546)
(0.164598 0 -0.285416)
(9.9879 0 0.0614964)
(9.99435 0 0.0475512)
(9.95107 0 0.0928171)
(9.97174 0 0.088099)
(9.891 0 0.122567)
(9.92534 0 0.123892)
(9.81036 0 0.153546)
(9.85562 0 0.16007)
(9.70957 0 0.186094)
(9.76523 0 0.197777)
(9.58855 0 0.220378)
(9.65534 0 0.237171)
(9.44712 0 0.256818)
(9.52586 0 0.278709)
(9.28491 0 0.295902)
(9.37633 0 0.322989)
(9.10131 0 0.338085)
(9.20627 0 0.370577)
(8.89548 0 0.383805)
(9.01511 0 0.422006)
(8.66643 0 0.43349)
(8.80209 0 0.477802)
(8.41301 0 0.487552)
(8.56629 0 0.538483)
(8.13391 0 0.546359)
(8.30665 0 0.604539)
(7.82775 0 0.610193)
(8.022 0 0.676403)
(7.49306 0 0.67919)
(7.71108 0 0.754386)
(7.12841 0 0.753253)
(7.37262 0 0.838606)
(6.73247 0 0.83193)
(7.00533 0 0.928864)
(6.30425 0 0.914267)
(6.60809 0 1.0245)
(5.84322 0 0.998621)
(6.18003 0 1.12417)
(5.34974 0 1.08244)
(5.72074 0 1.22563)
(4.82537 0 1.16203)
(5.23064 0 1.32543)
(4.2735 0 1.23227)
(4.71128 0 1.41858)
(3.70003 0 1.28632)
(4.16598 0 1.49817)
(3.11448 0 1.31494)
(3.6004 0 1.55474)
(2.53149 0 1.30496)
(3.02327 0 1.57524)
(1.9715 0 1.23274)
(2.44743 0 1.5405)
(1.44719 0 1.05452)
(1.88392 0 1.41899)
(0.933677 0 0.737331)
(1.34371 0 1.16662)
(0.459262 0 0.223045)
(0.807852 0 0.769146)
(0.397256 0 0.164403)
(9.98403 0 0.0744886)
(9.99321 0 0.0553727)
(9.94713 0 0.118275)
(9.96894 0 0.106605)
(9.88809 0 0.160432)
(9.92241 0 0.154223)
(9.80875 0 0.203409)
(9.85392 0 0.201814)
(9.70987 0 0.248061)
(9.76535 0 0.251058)
(9.59152 0 0.294855)
(9.65777 0 0.302485)
(9.45361 0 0.344385)
(9.53122 0 0.35666)
(9.29591 0 0.397306)
(9.3854 0 0.414282)
(9.11802 0 0.454254)
(9.21997 0 0.476054)
(8.91935 0 0.515845)
(9.03449 0 0.542647)
(8.69921 0 0.582681)
(8.82841 0 0.61472)
(8.45675 0 0.65535)
(8.60107 0 0.692927)
(8.19103 0 0.734393)
(8.35167 0 0.777892)
(7.90103 0 0.820256)
(8.07936 0 0.870177)
(7.58564 0 0.913219)
(7.78323 0 0.97022)
(7.24373 0 1.01328)
(7.4623 0 1.07824)
(6.87421 0 1.12003)
(7.11559 0 1.19413)
(6.47607 0 1.23241)
(6.74214 0 1.31721)
(6.04858 0 1.34849)
(6.34107 0 1.44607)
(5.59145 0 1.46514)
(5.91171 0 1.57818)
(5.10515 0 1.57769)
(5.45373 0 1.70954)
(4.59136 0 1.67946)
(4.96745 0 1.83423)
(4.05344 0 1.76126)
(4.45412 0 1.94386)
(3.497 0 1.81062)
(3.91636 0 2.02693)
(2.92998 0 1.81039)
(3.35833 0 2.06804)
(2.36112 0 1.73571)
(2.78583 0 2.04686)
(1.79393 0 1.55282)
(2.20345 0 1.93607)
(1.22044 0 1.23872)
(1.61439 0 1.7021)
(0.633335 0 0.772851)
(0.993118 0 1.3306)
(0.482498 0 0.784716)
(9.98225 0 0.0880946)
(9.99271 0 0.064066)
(9.94496 0 0.142796)
(9.96765 0 0.125307)
(9.88688 0 0.196112)
(9.92126 0 0.184058)
(9.809 0 0.25022)
(9.85407 0 0.242788)
(9.71209 0 0.306331)
(9.76754 0 0.30328)
(9.5963 0 0.365164)
(9.66251 0 0.366388)
(9.46156 0 0.427428)
(9.53905 0 0.432817)
(9.3077 0 0.493875)
(9.39696 0 0.503354)
(9.13439 0 0.565246)
(9.23595 0 0.578809)
(8.9412 0 0.642265)
(9.05567 0 0.659963)
(8.72758 0 0.725639)
(8.85567 0 0.747583)
(8.49289 0 0.816059)
(8.63542 0 0.842422)
(8.23643 0 0.914168)
(8.3943 0 0.945201)
(7.95746 0 1.02052)
(8.13164 0 1.05658)
(7.65519 0 1.13549)
(7.84674 0 1.17708)
(7.32877 0 1.25917)
(7.53887 0 1.30703)
(6.97738 0 1.39121)
(7.20726 0 1.44638)
(6.60016 0 1.53058)
(6.85109 0 1.59455)
(6.19633 0 1.67528)
(6.46952 0 1.75015)
(5.76522 0 1.82196)
(6.06169 0 1.91066)
(5.30641 0 1.96548)
(5.62672 0 2.07193)
(4.81998 0 2.09833)
(5.16383 0 2.22774)
(4.30669 0 2.21011)
(4.67245 0 2.36914)
(3.76819 0 2.28681)
(4.15236 0 2.4839)
(3.20678 0 2.31015)
(3.60376 0 2.55596)
(2.62456 0 2.25676)
(3.02728 0 2.56512)
(2.02067 0 2.09902)
(2.42266 0 2.48661)
(1.38781 0 1.81742)
(1.79052 0 2.29301)
(0.716052 0 1.38951)
(1.09948 0 1.97301)
(0.512502 0 1.48604)
(9.98152 0 0.101995)
(9.99254 0 0.0731156)
(9.9442 0 0.167042)
(9.96732 0 0.144026)
(9.88729 0 0.231202)
(9.9215 0 0.21329)
(9.81129 0 0.29635)
(9.8559 0 0.282774)
(9.71681 0 0.363816)
(9.77178 0 0.354192)
(9.60406 0 0.434492)
(9.66976 0 0.428614)
(9.473 0 0.509189)
(9.54994 0 0.506897)
(9.32347 0 0.588749)
(9.41214 0 0.589919)
(9.1552 0 0.674011)
(9.25614 0 0.678578)
(8.96781 0 0.765799)
(9.08164 0 0.773753)
(8.76085 0 0.86492)
(8.88824 0 0.876301)
(8.53379 0 0.972154)
(8.67548 0 0.98706)
(8.28603 0 1.08823)
(8.44281 0 1.10683)
(8.01698 0 1.21379)
(8.18968 0 1.23635)
(7.72597 0 1.3493)
(7.91544 0 1.37623)
(7.41233 0 1.49492)
(7.61946 0 1.52686)
(7.07532 0 1.65041)
(7.30102 0 1.68829)
(6.71416 0 1.81483)
(6.95931 0 1.86008)
(6.32792 0 1.98628)
(6.59342 0 2.04098)
(5.9156 0 2.16146)
(6.2022 0 2.22865)
(5.47599 0 2.33524)
(5.78426 0 2.41916)
(5.00779 0 2.50001)
(5.33782 0 2.6065)
(4.50956 0 2.64513)
(4.86077 0 2.78194)
(3.9798 0 2.75638)
(4.35057 0 2.93345)
(3.41686 0 2.81564)
(3.8044 0 3.04522)
(2.81867 0 2.80099)
(3.21925 0 3.09759)
(2.18161 0 2.6878)
(2.59148 0 3.0674)
(1.49982 0 2.45778)
(1.92159 0 2.92961)
(0.769262 0 2.08205)
(1.17412 0 2.67164)
(0.531042 0 2.23949)
(9.98139 0 0.115931)
(9.99257 0 0.0822302)
(9.94448 0 0.190897)
(9.96762 0 0.16254)
(9.88899 0 0.265444)
(9.92277 0 0.241791)
(9.81522 0 0.341234)
(9.85909 0 0.32159)
(9.72362 0 0.41964)
(9.77773 0 0.40355)
(9.61442 0 0.501697)
(9.67919 0 0.488878)
(9.48762 0 0.588338)
(9.56354 0 0.578568)
(9.34309 0 0.680498)
(9.43066 0 0.673591)
(9.18058 0 0.779109)
(9.28038 0 0.77493)
(8.99977 0 0.885084)
(9.11241 0 0.883549)
(8.80025 0 0.999314)
(8.92642 0 1.00039)
(8.58153 0 1.12266)
(8.72198 0 1.12638)
(8.34309 0 1.25593)
(8.49859 0 1.26239)
(8.08435 0 1.39982)
(8.25571 0 1.40924)
(7.80469 0 1.5549)
(7.99272 0 1.56761)
(7.50342 0 1.72142)
(7.70897 0 1.73801)
(7.17978 0 1.89927)
(7.40367 0 1.92062)
(6.83285 0 2.08767)
(7.0759 0 2.11515)
(6.46149 0 2.28496)
(6.7245 0 2.32062)
(6.06421 0 2.48817)
(6.34799 0 2.53503)
(5.63908 0 2.69254)
(5.94434 0 2.75496)
(5.18356 0 2.89094)
(5.5109 0 2.97501)
(4.69443 0 3.07326)
(5.04416 0 3.1872)
(4.16778 0 3.22584)
(4.5397 0 3.38035)
(3.59909 0 3.33121)
(3.99226 0 3.53948)
(2.98345 0 3.36832)
(3.39613 0 3.64559)
(2.31584 0 3.31334)
(2.74505 0 3.67604)
(1.59235 0 3.1467)
(2.04035 0 3.60515)
(0.814044 0 2.82985)
(1.24268 0 3.41594)
(0.549604 0 3.0368)
(9.98162 0 0.12969)
(9.99272 0 0.0912296)
(9.94552 0 0.214184)
(9.96836 0 0.18065)
(9.89174 0 0.298649)
(9.92484 0 0.269418)
(9.82052 0 0.384642)
(9.86339 0 0.359061)
(9.73222 0 0.473558)
(9.78514 0 0.451127)
(9.62708 0 0.566546)
(9.69052 0 0.546904)
(9.50512 0 0.664648)
(9.57956 0 0.647505)
(9.36624 0 0.768886)
(9.4522 0 0.753993)
(9.21022 0 0.880275)
(9.3083 0 0.867431)
(9.0368 0 0.999812)
(9.14762 0 0.988864)
(8.84558 0 1.12847)
(8.96987 0 1.11932)
(8.63613 0 1.26719)
(8.77465 0 1.2598)
(8.40795 0 1.41686)
(8.56149 0 1.41126)
(8.16044 0 1.57827)
(8.32987 0 1.57462)
(7.89296 0 1.75208)
(8.07915 0 1.75066)
(7.60476 0 1.93869)
(7.80861 0 1.94001)
(7.29492 0 2.13814)
(7.51735 0 2.14304)
(6.96229 0 2.34993)
(7.20427 0 2.3597)
(6.60539 0 2.57276)
(6.8679 0 2.58937)
(6.2222 0 2.80417)
(6.50633 0 2.83055)
(5.81001 0 3.0401)
(6.11691 0 3.08054)
(5.36516 0 3.27433)
(5.69607 0 3.33488)
(4.8829 0 3.49778)
(5.23906 0 3.58678)
(4.35729 0 3.69789)
(4.73976 0 3.82638)
(3.78145 0 3.8581)
(4.19071 0 4.03995)
(3.14819 0 3.95772)
(3.58371 0 4.20928)
(2.4512 0 3.97206)
(2.90976 0 4.31146)
(1.6876 0 3.87789)
(2.17045 0 4.31814)
(0.86201 0 3.62419)
(1.32185 0 4.20546)
(0.574842 0 3.88108)
(9.98211 0 0.143112)
(9.99295 0 0.0999923)
(9.94713 0 0.236742)
(9.96942 0 0.198195)
(9.89534 0 0.330658)
(9.92753 0 0.296021)
(9.82699 0 0.426388)
(9.86863 0 0.395019)
(9.7424 0 0.525346)
(9.79384 0 0.496709)
(9.64178 0 0.628767)
(9.70353 0 0.602434)
(9.5252 0 0.73779)
(9.59775 0 0.713404)
(9.39257 0 0.853521)
(9.47646 0 0.83077)
(9.24375 0 0.977053)
(9.33956 0 0.95567)
(9.07848 0 1.10946)
(9.18688 0 1.08923)
(8.89643 0 1.2518)
(9.01815 0 1.23254)
(8.69719 0 1.40511)
(8.83302 0 1.38671)
(8.48027 0 1.57035)
(8.63107 0 1.55278)
(8.24509 0 1.74843)
(8.41177 0 1.73176)
(7.99095 0 1.94014)
(8.17448 0 1.92458)
(7.71699 0 2.14605)
(7.91841 0 2.13202)
(7.42215 0 2.36646)
(7.64256 0 2.35469)
(7.10501 0 2.6012)
(7.34564 0 2.59286)
(6.7637 0 2.84946)
(7.0259 0 2.84637)
(6.39566 0 3.1095)
(6.68099 0 3.11439)
(5.99741 0 3.3782)
(6.30768 0 3.3951)
(5.56425 0 3.65059)
(5.90155 0 3.68529)
(5.08996 0 3.91906)
(5.45667 0 3.97975)
(4.56672 0 4.17261)
(4.96529 0 4.27039)
(3.98525 0 4.39587)
(4.4177 0 4.5453)
(3.33574 0 4.56842)
(3.80281 0 4.78743)
(2.60961 0 4.66364)
(3.10782 0 4.97345)
(1.80309 0 4.65255)
(2.33266 0 5.0712)
(0.922618 0 4.46867)
(1.42673 0 5.04746)
(0.613219 0 4.78473)
(9.98277 0 0.156072)
(9.99325 0 0.108431)
(9.94918 0 0.258429)
(9.97073 0 0.215041)
(9.89966 0 0.361317)
(9.93074 0 0.321462)
(9.83449 0 0.466286)
(9.87467 0 0.429307)
(9.75396 0 0.574773)
(9.80365 0 0.5401)
(9.6583 0 0.688084)
(9.71802 0 0.65523)
(9.54758 0 0.807439)
(9.61785 0 0.775985)
(9.42178 0 0.934025)
(9.50314 0 0.903595)
(9.28079 0 1.06901)
(9.37382 0 1.03927)
(9.12439 0 1.21354)
(9.22978 0 1.1842)
(8.95231 0 1.36876)
(9.0708 0 1.33957)
(8.76418 0 1.53578)
(8.89659 0 1.50655)
(8.55953 0 1.71568)
(8.70677 0 1.68629)
(8.3378 0 1.9095)
(8.50083 0 1.87991)
(8.09826 0 2.11818)
(8.27815 0 2.0885)
(7.83999 0 2.34253)
(8.03793 0 2.31305)
(7.56176 0 2.58312)
(7.7791 0 2.55441)
(7.26197 0 2.84025)
(7.50023 0 2.81328)
(6.93839 0 3.11371)
(7.19936 0 3.09003)
(6.58801 0 3.40263)
(6.87384 0 3.38461)
(6.20666 0 3.7051)
(6.51995 0 3.69632)
(5.78867 0 4.01768)
(6.13261 0 4.02343)
(5.32647 0 4.33473)
(5.70485 0 4.36269)
(4.81027 0 4.64734)
(5.22736 0 4.70843)
(4.22804 0 4.94204)
(4.688 0 5.05132)
(3.56627 0 5.1991)
(4.07207 0 5.3765)
(2.81197 0 5.38985)
(3.36113 0 5.66112)
(1.95722 0 5.47795)
(2.5498 0 5.8693)
(1.00711 0 5.37729)
(1.57615 0 5.95605)
(0.674094 0 5.77113)
(9.98357 0 0.168471)
(9.99359 0 0.116479)
(9.95159 0 0.279118)
(9.97223 0 0.231077)
(9.90458 0 0.390484)
(9.93436 0 0.345612)
(9.84286 0 0.504167)
(9.88139 0 0.461778)
(9.76673 0 0.621634)
(9.81442 0 0.581124)
(9.67641 0 0.744249)
(9.73381 0 0.705078)
(9.57201 0 0.873307)
(9.63965 0 0.834995)
(9.45355 0 1.01006)
(9.53196 0 0.972172)
(9.32096 0 1.15575)
(9.41074 0 1.11788)
(9.1741 0 1.31159)
(9.27593 0 1.27338)
(9.01273 0 1.4788)
(9.12736 0 1.43993)
(8.83655 0 1.6586)
(8.96482 0 1.61877)
(8.64514 0 1.85216)
(8.78797 0 1.81116)
(8.43796 0 2.06067)
(8.59639 0 2.01834)
(8.21431 0 2.28524)
(8.38949 0 2.24156)
(7.97324 0 2.52694)
(8.16651 0 2.48201)
(7.71348 0 2.78672)
(7.92637 0 2.74089)
(7.43327 0 3.06536)
(7.66762 0 3.01929)
(7.13023 0 3.36337)
(7.38826 0 3.31822)
(6.801 0 3.6809)
(7.08546 0 3.63851)
(6.44095 0 4.01744)
(6.75531 0 3.98071)
(6.04368 0 4.37145)
(6.39232 0 4.34482)
(5.60043 0 4.73975)
(5.98884 0 4.72995)
(5.09946 0 5.11638)
(5.53428 0 5.13355)
(4.52554 0 5.49097)
(5.01418 0 5.55012)
(3.86001 0 5.84606)
(4.40961 0 5.96891)
(3.0822 0 6.15234)
(3.69422 0 6.37022)
(2.17425 0 6.36581)
(2.85185 0 6.71707)
(1.1326 0 6.37489)
(1.7993 0 6.95218)
(0.774388 0 6.88044)
(9.98447 0 0.180231)
(9.99397 0 0.124086)
(9.95429 0 0.298699)
(9.9739 0 0.246213)
(9.91001 0 0.41803)
(9.93833 0 0.368359)
(9.852 0 0.539875)
(9.88867 0 0.4923)
(9.78055 0 0.665742)
(9.82601 0 0.619621)
(9.69591 0 0.797042)
(9.75073 0 0.751789)
(9.59823 0 0.935132)
(9.66292 0 0.890209)
(9.48756 0 1.08133)
(9.56265 0 1.03624)
(9.3639 0 1.23692)
(9.44998 0 1.1912)
(9.22715 0 1.40321)
(9.3249 0 1.35642)
(9.07717 0 1.58147)
(9.18734 0 1.53321)
(8.9137 0 1.77301)
(9.03713 0 1.7229)
(8.73641 0 1.97913)
(8.87403 0 1.92682)
(8.54483 0 2.20113)
(8.69772 0 2.14635)
(8.33832 0 2.44034)
(8.50768 0 2.38288)
(8.11598 0 2.69809)
(8.30325 0 2.63785)
(7.87658 0 2.97571)
(8.08346 0 2.91274)
(7.6184 0 3.27452)
(7.84695 0 3.20911)
(7.33902 0 3.59582)
(7.59182 0 3.52859)
(7.03506 0 3.94085)
(7.31539 0 3.87294)
(6.70172 0 4.31066)
(7.01383 0 4.24399)
(6.3323 0 4.70593)
(6.68173 0 4.64367)
(5.9173 0 5.12648)
(6.31136 0 5.07379)
(5.44346 0 5.57041)
(5.89163 0 5.53564)
(4.89235 0 6.03235)
(5.4065 0 6.0291)
(4.239 0 6.50032)
(4.83324 0 6.55049)
(3.45107 0 6.94883)
(4.13629 0 7.08856)
(2.49122 0 7.33017)
(3.28215 0 7.6133)
(1.33008 0 7.50172)
(2.14768 0 8.06258)
(0.949449 0 8.18318)
(9.98545 0 0.191287)
(9.99438 0 0.13121)
(9.95722 0 0.317081)
(9.97568 0 0.260375)
(9.91586 0 0.443839)
(9.94258 0 0.389606)
(9.86177 0 0.573275)
(9.89643 0 0.520757)
(9.79527 0 0.706933)
(9.83831 0 0.655454)
(9.71662 0 0.846267)
(9.7686 0 0.795195)
(9.626 0 0.992684)
(9.68743 0 0.941431)
(9.52352 0 1.14755)
(9.59492 0 1.09556)
(9.40923 0 1.31222)
(9.49119 0 1.25897)
(9.28311 0 1.48803)
(9.37629 0 1.43301)
(9.14509 0 1.67633)
(9.25022 0 1.61905)
(8.99501 0 1.87851)
(9.11292 0 1.8185)
(8.83263 0 2.09596)
(8.96425 0 2.03276)
(8.65759 0 2.33013)
(8.80399 0 2.26331)
(8.46937 0 2.58253)
(8.63178 0 2.51169)
(8.2672 0 2.85474)
(8.44709 0 2.77955)
(8.05 0 3.14849)
(8.24916 0 3.06865)
(7.81625 0 3.4656)
(8.03687 0 3.38097)
(7.56374 0 3.80817)
(7.80862 0 3.71873)
(7.28936 0 4.17852)
(7.56211 0 4.08454)
(6.98866 0 4.57932)
(7.29406 0 4.48151)
(6.65521 0 5.01363)
(6.99971 0 4.91342)
(6.27971 0 5.48475)
(6.67217 0 5.3849)
(5.84848 0 5.99589)
(6.30119 0 5.90158)
(5.34114 0 6.54913)
(5.8712 0 6.47003)
(4.727 0 7.14302)
(5.35832 0 7.09716)
(3.95951 0 7.76561)
(4.72051 0 7.78825)
(2.9693 0 8.38106)
(3.90479 0 8.53787)
(1.66407 0 8.82441)
(2.72133 0 9.31078)
(1.28266 0 9.81303)
(9.98651 0 0.201588)
(9.99482 0 0.137818)
(9.96033 0 0.334184)
(9.97757 0 0.273502)
(9.92205 0 0.467815)
(9.94705 0 0.409271)
(9.87207 0 0.604251)
(9.90458 0 0.547052)
(9.81074 0 0.745071)
(9.85118 0 0.688505)
(9.73833 0 0.891766)
(9.78725 0 0.835158)
(9.65506 0 1.04578)
(9.71298 0 0.988496)
(9.5611 0 1.20853)
(9.62851 0 1.14996)
(9.45656 0 1.38139)
(9.53403 0 1.32095)
(9.3415 0 1.56576)
(9.42967 0 1.50288)
(9.21593 0 1.76305)
(9.3155 0 1.69715)
(9.07981 0 1.97469)
(9.19158 0 1.90521)
(8.93301 0 2.20217)
(9.05789 0 2.12853)
(8.77532 0 2.44705)
(8.91433 0 2.36868)
(8.60638 0 2.71101)
(8.76074 0 2.6273)
(8.42564 0 2.99586)
(8.59681 0 2.90622)
(8.2323 0 3.30363)
(8.42203 0 3.20744)
(8.02516 0 3.63664)
(8.23566 0 3.53326)
(7.8025 0 3.99764)
(8.03657 0 3.88639)
(7.56182 0 4.38996)
(7.82313 0 4.27015)
(7.29952 0 4.81776)
(7.593 0 4.68869)
(7.01034 0 5.28632)
(7.34276 0 5.14736)
(6.68644 0 5.80248)
(7.0674 0 5.65327)
(6.31583 0 6.37511)
(6.7594 0 6.21608)
(5.87949 0 7.0157)
(6.40698 0 6.84925)
(5.34579 0 7.73902)
(5.99135 0 7.57223)
(4.65879 0 8.56215)
(5.47568 0 8.41456)
(3.71199 0 9.50202)
(4.80721 0 9.42192)
(2.28795 0 10.4618)
(3.73547 0 10.6726)
(2.00116 0 12.0539)
(9.98761 0 0.21109)
(9.99527 0 0.143885)
(9.9636 0 0.349942)
(9.97953 0 0.285545)
(9.92853 0 0.489867)
(9.95171 0 0.427289)
(9.88282 0 0.632684)
(9.91304 0 0.571101)
(9.82682 0 0.780004)
(9.86453 0 0.718676)
(9.76086 0 0.933345)
(9.80658 0 0.871563)
(9.68518 0 1.09418)
(9.73941 0 1.03127)
(9.60001 0 1.26396)
(9.66325 0 1.19926)
(9.50552 0 1.44409)
(9.57833 0 1.37698)
(9.40185 0 1.63601)
(9.48484 0 1.56583)
(9.28912 0 1.84114)
(9.38299 0 1.76726)
(9.16741 0 2.06098)
(9.27291 0 1.98274)
(9.03672 0 2.29708)
(9.15473 0 2.21379)
(8.89702 0 2.55108)
(9.02853 0 2.46202)
(8.74816 0 2.82477)
(8.89433 0 2.72917)
(8.58988 0 3.12015)
(8.7521 0 3.01716)
(8.42172 0 3.43949)
(8.60168 0 3.32815)
(8.24299 0 3.78546)
(8.44276 0 3.66467)
(8.05262 0 4.1613)
(8.27487 0 4.02974)
(7.84908 0 4.5711)
(8.09724 0 4.42713)
(7.63012 0 5.02012)
(7.90881 0 4.86164)
(7.39247 0 5.51536)
(7.70802 0 5.33961)
(7.13128 0 6.06646)
(7.49276 0 5.86968)
(6.83906 0 6.68709)
(7.26004 0 6.46405)
(6.50364 0 7.39756)
(7.00567 0 7.14077)
(6.10358 0 8.23031)
(6.72449 0 7.92833)
(5.59647 0 9.24279)
(6.40717 0 8.87688)
(4.88078 0 10.5676)
(6.07308 0 10.0902)
(3.62435 0 12.6431)
(5.76702 0 11.8741)
(4.86067 0 15.6038)
(-0.764441 0 0.550364)
(-0.562239 0 0.748723)
(-1.64521 0 0.554864)
(-1.33494 0 0.842288)
(-2.5528 0 0.5237)
(-2.29186 0 0.847433)
(-3.46883 0 0.490832)
(-3.23718 0 0.835111)
(-4.38044 0 0.45746)
(-4.17967 0 0.811456)
(-5.27817 0 0.42381)
(-5.10881 0 0.78023)
(-6.15428 0 0.389877)
(-6.01669 0 0.743454)
(-7.00214 0 0.355702)
(-6.89665 0 0.702486)
(-7.81586 0 0.321344)
(-7.74288 0 0.658276)
(-8.58998 0 0.286832)
(-8.55012 0 0.611452)
(-9.31919 0 0.252161)
(-9.31336 0 0.562377)
(-9.99807 0 0.217281)
(-10.0275 0 0.511198)
(-10.6209 0 0.182105)
(-10.6873 0 0.457906)
(-11.1814 0 0.146514)
(-11.2869 0 0.402377)
(-11.6728 0 0.110356)
(-11.8199 0 0.344422)
(-12.0876 0 0.0734321)
(-12.2793 0 0.283816)
(-12.4173 0 0.0355323)
(-12.6574 0 0.220318)
(-12.653 0 -0.0036311)
(-12.9457 0 0.153783)
(-12.7859 0 -0.0449364)
(-13.1352 0 0.0846335)
(-12.8009 0 -0.0911166)
(-13.2158 0 0.00936593)
(-12.6883 0 -0.143681)
(-13.1762 0 -0.0683873)
(-12.4263 0 -0.202713)
(-13.0033 0 -0.155334)
(-11.9965 0 -0.269868)
(-12.6815 0 -0.248836)
(-11.3772 0 -0.347675)
(-12.1945 0 -0.350035)
(-10.5412 0 -0.439881)
(-11.5266 0 -0.461386)
(-9.45443 0 -0.552723)
(-10.6564 0 -0.585607)
(-8.06988 0 -0.69833)
(-9.53367 0 -0.72845)
(-6.2929 0 -0.889101)
(-8.04623 0 -0.912828)
(-3.9552 0 -1.08473)
(-6.08909 0 -1.17251)
(-3.97906 0 -1.29986)
(-0.974904 0 1.25969)
(-0.654845 0 1.70358)
(-1.9552 0 1.29438)
(-1.48904 0 1.77975)
(-2.93728 0 1.27898)
(-2.50125 0 1.76442)
(-3.91487 0 1.24824)
(-3.48055 0 1.72634)
(-4.87893 0 1.20597)
(-4.44743 0 1.6696)
(-5.82154 0 1.15532)
(-5.39306 0 1.59946)
(-6.73598 0 1.09839)
(-6.3116 0 1.51944)
(-7.61655 0 1.03666)
(-7.19795 0 1.43207)
(-8.45817 0 0.971147)
(-8.04766 0 1.33913)
(-9.25612 0 0.902458)
(-8.85658 0 1.24172)
(-10.0057 0 0.830852)
(-9.62061 0 1.14045)
(-10.702 0 0.756318)
(-10.3355 0 1.0355)
(-11.3397 0 0.678651)
(-10.9965 0 0.926761)
(-11.913 0 0.597512)
(-11.5983 0 0.813913)
(-12.4154 0 0.512489)
(-12.1351 0 0.696532)
(-12.8396 0 0.423152)
(-12.6003 0 0.57415)
(-13.1779 0 0.329119)
(-12.9863 0 0.44636)
(-13.4218 0 0.230051)
(-13.2853 0 0.312906)
(-13.5609 0 0.125141)
(-13.4889 0 0.173254)
(-13.5899 0 0.012115)
(-13.5883 0 0.0273581)
(-13.4937 0 -0.110092)
(-13.5727 0 -0.126771)
(-13.2667 0 -0.240929)
(-13.4368 0 -0.289956)
(-12.8949 0 -0.381386)
(-13.1696 0 -0.464027)
(-12.364 0 -0.534202)
(-12.7596 0 -0.650141)
(-11.6578 0 -0.70357)
(-12.1979 0 -0.851157)
(-10.7588 0 -0.896344)
(-11.4745 0 -1.07001)
(-9.65031 0 -1.1271)
(-10.5622 0 -1.31165)
(-8.33081 0 -1.41192)
(-9.39463 0 -1.59065)
(-6.84768 0 -1.71126)
(-7.95652 0 -1.9164)
(-6.74172 0 -2.23976)
(-1.01742 0 2.21155)
(-0.655792 0 2.70008)
(-2.02227 0 2.23071)
(-1.48813 0 2.7407)
(-3.01216 0 2.1907)
(-2.49722 0 2.68869)
(-3.98517 0 2.12733)
(-3.45522 0 2.61341)
(-4.93609 0 2.04495)
(-4.39501 0 2.51605)
(-5.85999 0 1.94847)
(-5.30901 0 2.40243)
(-6.75248 0 1.8414)
(-6.19396 0 2.27679)
(-7.60973 0 1.72631)
(-7.04679 0 2.14235)
(-8.42824 0 1.60491)
(-7.86461 0 2.00128)
(-9.20456 0 1.47818)
(-8.64451 0 1.85491)
(-9.93505 0 1.34658)
(-9.38332 0 1.70381)
(-10.6157 0 1.21011)
(-10.0774 0 1.54801)
(-11.2419 0 1.06854)
(-10.7226 0 1.38713)
(-11.8083 0 0.921484)
(-11.3139 0 1.22055)
(-12.3091 0 0.768521)
(-11.8458 0 1.04752)
(-12.7375 0 0.609317)
(-12.3118 0 0.867305)
(-13.086 0 0.443711)
(-12.7046 0 0.679236)
(-13.3465 0 0.271768)
(-13.0167 0 0.48286)
(-13.511 0 0.0936937)
(-13.2399 0 0.278049)
(-13.5699 0 -0.0902192)
(-13.3662 0 0.0640024)
(-13.5188 0 -0.28267)
(-13.3864 0 -0.157819)
(-13.348 0 -0.487066)
(-13.2965 0 -0.391217)
(-13.0489 0 -0.704337)
(-13.0896 0 -0.637195)
(-12.6126 0 -0.936216)
(-12.7581 0 -0.89677)
(-12.0302 0 -1.18517)
(-12.2976 0 -1.17257)
(-11.2939 0 -1.45395)
(-11.7049 0 -1.46674)
(-10.4029 0 -1.74933)
(-10.9652 0 -1.78046)
(-9.37572 0 -2.08458)
(-10.0361 0 -2.1183)
(-8.22664 0 -2.44807)
(-8.92857 0 -2.49273)
(-8.06524 0 -2.89085)
(-0.985383 0 3.18651)
(-0.616114 0 3.6652)
(-1.95835 0 3.16871)
(-1.4047 0 3.67115)
(-2.91069 0 3.08805)
(-2.36801 0 3.57792)
(-3.84061 0 2.98268)
(-3.26919 0 3.46119)
(-4.74517 0 2.85669)
(-4.15265 0 3.32122)
(-5.622 0 2.71574)
(-5.01045 0 3.16449)
(-6.46888 0 2.56392)
(-5.8415 0 2.99544)
(-7.28366 0 2.40419)
(-6.64419 0 2.81743)
(-8.06407 0 2.23843)
(-7.41672 0 2.63261)
(-8.80751 0 2.06759)
(-8.15687 0 2.44213)
(-9.51087 0 1.89192)
(-8.86186 0 2.24625)
(-10.1704 0 1.71108)
(-9.52825 0 2.04463)
(-10.7816 0 1.52439)
(-10.1518 0 1.8365)
(-11.3393 0 1.33091)
(-10.7277 0 1.62086)
(-11.8373 0 1.1296)
(-11.2502 0 1.39663)
(-12.2691 0 0.91939)
(-11.7128 0 1.16279)
(-12.6272 0 0.699327)
(-12.1087 0 0.918515)
(-12.9037 0 0.468688)
(-12.43 0 0.663251)
(-13.0904 0 0.227058)
(-12.6694 0 0.396958)
(-13.1805 0 -0.0259158)
(-12.8193 0 0.120046)
(-13.1672 0 -0.290211)
(-12.8717 0 -0.165886)
(-13.0465 0 -0.566398)
(-12.8224 0 -0.462783)
(-12.8128 0 -0.85585)
(-12.6702 0 -0.772532)
(-12.461 0 -1.16026)
(-12.41 0 -1.09559)
(-11.9872 0 -1.48144)
(-12.041 0 -1.43403)
(-11.3896 0 -1.81935)
(-11.5637 0 -1.7888)
(-10.6734 0 -2.17437)
(-10.9702 0 -2.15722)
(-9.85767 0 -2.55521)
(-10.2331 0 -2.53736)
(-8.96171 0 -2.95585)
(-9.37446 0 -2.94212)
(-8.73295 0 -3.35021)
(-0.912408 0 4.11036)
(-0.555435 0 4.55885)
(-1.81492 0 4.05298)
(-1.27161 0 4.53423)
(-2.69797 0 3.93015)
(-2.15831 0 4.40244)
(-3.55935 0 3.78282)
(-2.97833 0 4.24648)
(-4.39723 0 3.61494)
(-3.78613 0 4.06705)
(-5.21072 0 3.4324)
(-4.57194 0 3.8715)
(-5.99885 0 3.23915)
(-5.33619 0 3.66423)
(-6.76038 0 3.03791)
(-6.07794 0 3.44838)
(-7.49358 0 2.83016)
(-6.79587 0 3.22575)
(-8.19609 0 2.61638)
(-7.48795 0 2.99702)
(-8.86484 0 2.39629)
(-8.15142 0 2.762)
(-9.49599 0 2.16909)
(-8.78272 0 2.51988)
(-10.0849 0 1.93369)
(-9.37759 0 2.26951)
(-10.6264 0 1.68891)
(-9.93102 0 2.00953)
(-11.1143 0 1.43367)
(-10.4374 0 1.73863)
(-11.5422 0 1.16711)
(-10.8903 0 1.45561)
(-11.9029 0 0.888715)
(-11.283 0 1.15954)
(-12.189 0 0.59853)
(-11.6082 0 0.84989)
(-12.393 0 0.297356)
(-11.8584 0 0.52686)
(-12.5084 0 -0.0134777)
(-12.0268 0 0.191841)
(-12.5299 0 -0.334181)
(-12.107 0 -0.152825)
(-12.4549 0 -0.666705)
(-12.0933 0 -0.507274)
(-12.2809 0 -1.01213)
(-11.9905 0 -0.87326)
(-12.0065 0 -1.37134)
(-11.7955 0 -1.25064)
(-11.6316 0 -1.74522)
(-11.5103 0 -1.64099)
(-11.1574 0 -2.13167)
(-11.1379 0 -2.0443)
(-10.5909 0 -2.52667)
(-10.6739 0 -2.45529)
(-9.94803 0 -2.93332)
(-10.1007 0 -2.86758)
(-9.25927 0 -3.33981)
(-9.4436 0 -3.28758)
(-8.96379 0 -3.67965)
(-0.811932 0 4.94929)
(-0.482294 0 5.35409)
(-1.6189 0 4.85834)
(-1.10548 0 5.30594)
(-2.41079 0 4.69828)
(-1.89378 0 5.14184)
(-3.18547 0 4.51383)
(-2.61535 0 4.95273)
(-3.94183 0 4.30949)
(-3.33331 0 4.74031)
(-4.67968 0 4.0914)
(-4.0351 0 4.51278)
(-5.39857 0 3.86325)
(-4.72232 0 4.27428)
(-6.09758 0 3.62738)
(-5.3942 0 4.02754)
(-6.7751 0 3.38479)
(-6.04945 0 3.77385)
(-7.42873 0 3.13553)
(-6.68596 0 3.5133)
(-8.05528 0 2.87889)
(-7.30079 0 3.24521)
(-8.65082 0 2.61372)
(-7.89024 0 2.96832)
(-9.21071 0 2.33864)
(-8.4499 0 2.68114)
(-9.72965 0 2.05219)
(-8.97473 0 2.38205)
(-10.2017 0 1.75301)
(-9.45909 0 2.06951)
(-10.6205 0 1.43991)
(-9.8968 0 1.7422)
(-10.9791 0 1.11206)
(-10.2812 0 1.39915)
(-11.2703 0 0.769269)
(-10.6051 0 1.03987)
(-11.487 0 0.412552)
(-10.8612 0 0.664866)
(-11.6229 0 0.0442175)
(-11.0432 0 0.276347)
(-11.6735 0 -0.333676)
(-11.1461 0 -0.122087)
(-11.6383 0 -0.721164)
(-11.1622 0 -0.528113)
(-11.518 0 -1.11875)
(-11.1027 0 -0.942892)
(-11.3144 0 -1.5269)
(-10.9666 0 -1.36574)
(-11.03 0 -1.94603)
(-10.7584 0 -1.79798)
(-10.6678 0 -2.3729)
(-10.4825 0 -2.23945)
(-10.2334 0 -2.80041)
(-10.1362 0 -2.68381)
(-9.73992 0 -3.22495)
(-9.70753 0 -3.1211)
(-9.22206 0 -3.62568)
(-9.2196 0 -3.54732)
(-8.86697 0 -3.91574)
(-0.692167 0 5.68278)
(-0.401442 0 6.03202)
(-1.38628 0 5.56705)
(-0.916138 0 5.96972)
(-2.07138 0 5.37743)
(-1.59023 0 5.78153)
(-2.7458 0 5.16336)
(-2.20052 0 5.56758)
(-3.40906 0 4.93022)
(-2.81768 0 5.3307)
(-4.06136 0 4.68427)
(-3.42581 0 5.0797)
(-4.70236 0 4.42879)
(-4.02769 0 4.81822)
(-5.33112 0 4.16554)
(-4.62231 0 4.54849)
(-5.94587 0 3.89495)
(-5.2082 0 4.27116)
(-6.54399 0 3.61646)
(-5.78296 0 3.98574)
(-7.12208 0 3.32889)
(-6.34335 0 3.69103)
(-7.67599 0 3.03067)
(-6.88543 0 3.38542)
(-8.20096 0 2.72011)
(-7.40459 0 3.06711)
(-8.69165 0 2.39551)
(-7.89571 0 2.73429)
(-9.14217 0 2.05538)
(-8.35314 0 2.38528)
(-9.54622 0 1.69855)
(-8.77078 0 2.01871)
(-9.89712 0 1.32434)
(-9.14212 0 1.63361)
(-10.1881 0 0.932941)
(-9.46014 0 1.22967)
(-10.4123 0 0.52599)
(-9.71755 0 0.807683)
(-10.5636 0 0.10694)
(-9.90797 0 0.370475)
(-10.638 0 -0.320164)
(-10.0278 0 -0.0769236)
(-10.6369 0 -0.753848)
(-10.0672 0 -0.528736)
(-10.5641 0 -1.19407)
(-10.0441 0 -0.985048)
(-10.4246 0 -1.64093)
(-9.95949 0 -1.44461)
(-10.2234 0 -2.09498)
(-9.82101 0 -1.909)
(-9.96435 0 -2.55298)
(-9.63398 0 -2.37904)
(-9.65034 0 -3.00589)
(-9.39628 0 -2.84902)
(-9.29001 0 -3.44289)
(-9.09807 0 -3.3062)
(-8.91552 0 -3.83372)
(-8.75685 0 -3.73515)
(-8.5107 0 -4.08026)
(-0.558573 0 6.29617)
(-0.315847 0 6.57911)
(-1.12708 0 6.16554)
(-0.709597 0 6.51339)
(-1.69359 0 5.95553)
(-1.25762 0 6.31048)
(-2.25727 0 5.7211)
(-1.7466 0 6.08147)
(-2.81825 0 5.46838)
(-2.25434 0 5.83005)
(-3.377 0 5.20353)
(-2.7611 0 5.56531)
(-3.93308 0 4.92921)
(-3.27099 0 5.2901)
(-4.48528 0 4.64654)
(-3.78245 0 5.00602)
(-5.0315 0 4.35532)
(-4.29367 0 4.71304)
(-5.56877 0 4.05444)
(-4.8018 0 4.41012)
(-6.09335 0 3.7423)
(-5.30324 0 4.09559)
(-6.60084 0 3.41706)
(-5.79368 0 3.76756)
(-7.08634 0 3.07684)
(-6.26839 0 3.42406)
(-7.54446 0 2.71983)
(-6.72216 0 3.06315)
(-7.96934 0 2.34448)
(-7.14933 0 2.68308)
(-8.35471 0 1.94965)
(-7.54385 0 2.28243)
(-8.69402 0 1.53473)
(-7.89921 0 1.86033)
(-8.98058 0 1.10009)
(-8.20832 0 1.41662)
(-9.20775 0 0.647748)
(-8.46346 0 0.952393)
(-9.36941 0 0.182133)
(-8.65784 0 0.471017)
(-9.46079 0 -0.289866)
(-8.78834 0 -0.0214342)
(-9.48624 0 -0.763945)
(-8.84323 0 -0.513647)
(-9.45275 0 -1.23918)
(-8.8478 0 -1.00444)
(-9.36901 0 -1.71575)
(-8.80559 0 -1.49194)
(-9.24298 0 -2.19532)
(-8.72756 0 -1.97856)
(-9.07875 0 -2.67618)
(-8.62077 0 -2.46753)
(-8.87616 0 -3.14884)
(-8.48311 0 -2.95561)
(-8.63757 0 -3.59589)
(-8.30441 0 -3.42877)
(-8.38691 0 -3.97743)
(-8.09431 0 -3.86087)
(-7.94295 0 -4.18664)
(-0.414509 0 6.77833)
(-0.227446 0 6.9851)
(-0.847559 0 6.64348)
(-0.489432 0 6.92752)
(-1.28613 0 6.42328)
(-0.902182 0 6.71998)
(-1.73074 0 6.17901)
(-1.26165 0 6.48682)
(-2.18218 0 5.91713)
(-1.65321 0 6.23189)
(-2.64109 0 5.64336)
(-2.05256 0 5.96416)
(-3.10674 0 5.3595)
(-2.46543 0 5.68523)
(-3.5775 0 5.06602)
(-2.8893 0 5.39606)
(-4.05078 0 4.76207)
(-3.32189 0 5.09591)
(-4.52316 0 4.44608)
(-3.75979 0 4.78323)
(-4.9905 0 4.1161)
(-4.19891 0 4.45601)
(-5.44815 0 3.77014)
(-4.63461 0 4.11216)
(-5.89111 0 3.40622)
(-5.06201 0 3.74973)
(-6.31398 0 3.02244)
(-5.47598 0 3.36671)
(-6.71089 0 2.6172)
(-5.87091 0 2.96126)
(-7.07546 0 2.18935)
(-6.24075 0 2.53193)
(-7.40098 0 1.73845)
(-6.57888 0 2.07783)
(-7.68051 0 1.26508)
(-6.87778 0 1.59898)
(-7.90712 0 0.771718)
(-7.12872 0 1.09674)
(-8.07467 0 0.263946)
(-7.32329 0 0.575221)
(-8.17584 0 -0.248605)
(-7.45695 0 0.0400033)
(-8.21909 0 -0.757441)
(-7.52273 0 -0.488007)
(-8.2151 0 -1.25973)
(-7.54534 0 -1.00674)
(-8.17674 0 -1.75656)
(-7.535 0 -1.51363)
(-8.11557 0 -2.25171)
(-7.50616 0 -2.01231)
(-8.03669 0 -2.74676)
(-7.46859 0 -2.51004)
(-7.93715 0 -3.2337)
(-7.42085 0 -3.00798)
(-7.81181 0 -3.69008)