/*--------------------------------*- C++ -*----------------------------------*\
  =========                 |
  \\      /  F ield         | OpenFOAM: The Open Source CFD Toolbox
   \\    /   O peration     | Website:  https://openfoam.org
    \\  /    A nd           | Version:  dev
     \\/     M anipulation  |
\*---------------------------------------------------------------------------*/
FoamFile
{
    version     2.0;
    format      ascii;
    class       surfaceScalarField;
    location    "7.2";
    object      phi;
}
// * * * * * * * * * * * * * * * * * * * * * * * * * * * * * * * * * * * * * //

dimensions      [0 3 -1 0 0 0 0];

internalField   nonuniform List<scalar> 
5457
(
0.198418
0.00158236
0.19648
0.00193734
0.194192
0.00228804
0.191509
0.00268352
0.188428
0.00308112
0.184951
0.00347668
0.181072
0.00387849
0.176779
0.00429392
0.17205
0.00472813
0.166865
0.00518514
0.161197
0.00566842
0.155016
0.00618096
0.148291
0.0067249
0.14099
0.00730128
0.13308
0.00790946
0.124534
0.00854642
0.115328
0.00920587
0.105451
0.00987718
0.0949067
0.0105441
0.0837232
0.0111835
0.0719585
0.0117647
0.0597101
0.0122484
0.0471214
0.0125887
0.0343812
0.0127402
0.0216861
0.0126951
0.00903587
0.0126502
-0.00291732
0.0119532
-0.00847261
0.0055553
-0.0080432
-0.000429415
-0.0080432
0.199928
0.00165419
0.199176
0.00268974
0.197965
0.00349893
0.196332
0.00431664
0.194272
0.00514111
0.191782
0.00596668
0.188855
0.00680539
0.185478
0.00767071
0.181633
0.00857296
0.177298
0.00952046
0.172446
0.0105205
0.167048
0.0115792
0.161071
0.0127016
0.154482
0.0138902
0.147247
0.0151445
0.139334
0.0164595
0.130716
0.0178238
0.121376
0.0192173
0.111311
0.0206089
0.100541
0.0219534
0.0891165
0.0231892
0.0771289
0.024236
0.0647228
0.0249948
0.0521153
0.0253478
0.0396549
0.0251554
0.0281049
0.0242002
0.0185943
0.0214638
0.00879641
0.0153532
0.0011831
0.0071839
-0.0068601
0.199781
0.00187361
0.199087
0.00338356
0.197946
0.00463981
0.196409
0.0058532
0.194483
0.00706718
0.192164
0.00828566
0.189447
0.00952275
0.186322
0.0107961
0.182774
0.0121208
0.178785
0.0135093
0.174333
0.0149725
0.169392
0.0165202
0.163933
0.0181601
0.157926
0.0198973
0.151338
0.0217327
0.144136
0.0236613
0.136291
0.0256693
0.127777
0.0277313
0.11858
0.0298059
0.108702
0.0318314
0.09817
0.0337211
0.0870476
0.0353584
0.0754508
0.0365916
0.0635736
0.037225
0.0517317
0.0369973
0.0403965
0.0355355
0.0297383
0.032122
0.0191655
0.0259259
0.0095973
0.0167521
0.0027372
0.199703
0.00217053
0.199008
0.00407883
0.197887
0.0057603
0.196376
0.00736406
0.194488
0.00895523
0.192222
0.0105516
0.189575
0.0121704
0.186539
0.013832
0.183105
0.0155552
0.179258
0.0173557
0.174983
0.0192475
0.170261
0.0212428
0.165069
0.0233518
0.159385
0.0255815
0.153183
0.0279344
0.146438
0.0304064
0.139124
0.0329837
0.131216
0.0356386
0.122697
0.0383251
0.113556
0.0409724
0.103799
0.0434781
0.0934563
0.0457011
0.082595
0.0474529
0.0713321
0.0484878
0.0598401
0.0484893
0.0483161
0.0470595
0.0368103
0.0436279
0.0251873
0.0375489
0.0133353
0.0286042
0.0160725
0.199667
0.0025031
0.198964
0.00478207
0.197863
0.00686157
0.196381
0.00884569
0.194533
0.0108039
0.192318
0.0127662
0.189734
0.0147541
0.186776
0.0167905
0.183434
0.0188968
0.179698
0.0210913
0.175556
0.0233903
0.170991
0.0258078
0.165987
0.0283555
0.160527
0.0310417
0.154591
0.03387
0.148161
0.036837
0.141215
0.0399295
0.133733
0.0431202
0.125696
0.046362
0.117087
0.0495818
0.107893
0.0526717
0.098114
0.0554802
0.0877639
0.057803
0.0768778
0.059374
0.0655077
0.0598594
0.053707
0.0588602
0.0414531
0.0558818
0.0285871
0.0504149
0.014852
0.0423392
0.0309245
0.199653
0.00285029
0.198949
0.0054861
0.197871
0.00793947
0.196427
0.0102898
0.194627
0.0126039
0.192473
0.0149196
0.189964
0.0172637
0.187093
0.0196613
0.183854
0.022136
0.180237
0.0247085
0.17623
0.0273968
0.171822
0.0302164
0.166997
0.0331803
0.161741
0.0362976
0.156038
0.0395728
0.149871
0.0430036
0.143223
0.0465778
0.136074
0.0502696
0.128401
0.0540344
0.120182
0.0578016
0.111387
0.0614662
0.101988
0.0648792
0.0919536
0.0678374
0.0812527
0.0700749
0.0698528
0.0712593
0.0577155
0.0709975
0.0447594
0.0688379
0.0308482
0.0643261
0.0158726
0.0573148
0.0467971
0.19965
0.00320022
0.198954
0.00618205
0.197905
0.00898906
0.196505
0.0116895
0.194763
0.014346
0.192681
0.0170015
0.190257
0.0196872
0.187488
0.0224308
0.184366
0.025258
0.180883
0.0281913
0.177029
0.0312507
0.172792
0.034453
0.16816
0.0378123
0.163119
0.0413392
0.157653
0.0450391
0.151745
0.0489112
0.145377
0.0529454
0.138528
0.0571192
0.131169
0.0613929
0.123268
0.0657026
0.114781
0.0699532
0.105653
0.0740073
0.0958153
0.0776754
0.0851845
0.0807057
0.0736664
0.0827774
0.0611596
0.0835043
0.0475536
0.0824439
0.0327574
0.0791223
0.0167822
0.07329
0.0635793
0.199655
0.00354555
0.198975
0.00686214
0.197959
0.0100048
0.19661
0.0130381
0.194934
0.016022
0.192934
0.019002
0.190608
0.0220132
0.187953
0.025086
0.184963
0.0282479
0.181631
0.0315234
0.177947
0.034934
0.173902
0.0384983
0.169483
0.0422318
0.164675
0.0461465
0.159464
0.05025
0.153832
0.0545435
0.147757
0.0590207
0.141212
0.0636641
0.134163
0.0684413
0.126566
0.0732997
0.118361
0.0781586
0.109468
0.0829004
0.0997846
0.0873585
0.0891851
0.0913052
0.0775227
0.0944397
0.064645
0.0963821
0.0504152
0.0966737
0.0347664
0.0947711
0.0177889
0.0902675
0.0813681
0.199664
0.00388136
0.199006
0.00751991
0.19803
0.010981
0.196739
0.0143295
0.195137
0.017624
0.193227
0.0209118
0.191009
0.024231
0.188481
0.0276145
0.185637
0.0310917
0.182471
0.034689
0.178976
0.0384293
0.175141
0.0423331
0.170955
0.0464176
0.166405
0.0506969
0.161474
0.055181
0.156143
0.0598749
0.150386
0.0647771
0.144173
0.0698771
0.137461
0.075153
0.130195
0.0805665
0.122297
0.0860567
0.113665
0.091532
0.104166
0.0968575
0.0936312
0.10184
0.0818616
0.106209
0.0686462
0.109598
0.053799
0.111521
0.0372342
0.111336
0.0190821
0.10842
0.10045
0.199677
0.00420413
0.199047
0.00815013
0.198116
0.0119123
0.196888
0.0155577
0.195367
0.0191448
0.193556
0.0227223
0.191456
0.0263307
0.189066
0.0300052
0.186381
0.0337769
0.183396
0.0376737
0.180105
0.0417204
0.176499
0.0459392
0.172567
0.0503492
0.168297
0.054967
0.163672
0.0598058
0.158672
0.0648752
0.153269
0.0701798
0.147428
0.0757182
0.1411
0.0814809
0.134219
0.0874475
0.126695
0.0935815
0.118403
0.0998235
0.109181
0.10608
0.0988161
0.112205
0.0870487
0.117977
0.0735857
0.12306
0.0581444
0.126962
0.0405486
0.128932
0.0208994
0.128069
0.12135
0.199693
0.00451118
0.199095
0.00874848
0.198213
0.0127938
0.197053
0.0167174
0.19562
0.0205781
0.193916
0.024426
0.191943
0.0283036
0.189701
0.032248
0.187186
0.0362918
0.184395
0.0404645
0.181323
0.0447925
0.177962
0.0492995
0.174305
0.054007
0.170337
0.0589342
0.166045
0.0640978
0.161408
0.0695126
0.156398
0.0751902
0.150976
0.0811394
0.145092
0.0873651
0.138673
0.093867
0.131617
0.100637
0.123787
0.107653
0.114993
0.114874
0.104979
0.122219
0.0934141
0.129541
0.0798926
0.136582
0.0639624
0.142892
0.04523
0.147664
0.0236087
0.14969
0.144958
0.199711
0.00480048
0.199148
0.00931146
0.19832
0.0136214
0.197234
0.0178036
0.195894
0.0219182
0.194304
0.0260163
0.192465
0.030142
0.190379
0.034334
0.188045
0.0386264
0.185459
0.0430499
0.182619
0.0476324
0.17952
0.0523991
0.176153
0.0573736
0.17251
0.0625776
0.168576
0.0680318
0.164332
0.0737557
0.159754
0.0797687
0.154803
0.08609
0.149429
0.0927392
0.143559
0.0997373
0.13709
0.107106
0.129876
0.114867
0.121712
0.123038
0.11231
0.131621
0.101267
0.140584
0.0880382
0.149811
0.0719153
0.159015
0.0520791
0.1675
0.0278809
0.173888
0.172839
0.19973
0.00507039
0.199205
0.0098362
0.198435
0.0143913
0.197427
0.0188122
0.196185
0.0231602
0.194714
0.0274874
0.193016
0.0318393
0.191095
0.0362558
0.188949
0.0407721
0.186579
0.0454202
0.183982
0.0502288
0.181156
0.0552249
0.178097
0.0604334
0.174796
0.0658787
0.171243
0.0715847
0.167423
0.0775758
0.163313
0.083878
0.158883
0.0905202
0.154086
0.0975363
0.148856
0.104967
0.143099
0.112863
0.136677
0.121289
0.129389
0.130326
0.120936
0.140073
0.110876
0.150645
0.0985339
0.162153
0.0828903
0.174659
0.0624245
0.187966
0.0351166
0.201196
0.207956
0.199751
0.00531967
0.199267
0.0103204
0.198557
0.0151007
0.19763
0.0197396
0.19649
0.0242999
0.195143
0.0288346
0.193592
0.0333901
0.191841
0.0380071
0.189891
0.042722
0.187744
0.0475673
0.1854
0.0525727
0.182859
0.0577661
0.180118
0.0631738
0.177175
0.0688221
0.174022
0.0747374
0.17065
0.0809479
0.167043
0.0874852
0.163177
0.0943859
0.159018
0.101695
0.154515
0.10947
0.149593
0.117786
0.14414
0.126742
0.137988
0.136478
0.130879
0.147182
0.122398
0.159127
0.111848
0.172702
0.098002
0.188505
0.0785191
0.207449
0.048648
0.231067
0.256604
0.199772
0.00554735
0.19933
0.0107623
0.198684
0.0157471
0.197841
0.0205831
0.196806
0.0253343
0.195587
0.0300542
0.194187
0.03479
0.192611
0.0395833
0.190862
0.0444706
0.188944
0.0494852
0.18686
0.0546571
0.184611
0.0600147
0.1822
0.0655852
0.179626
0.0713959
0.176888
0.0774749
0.173983
0.0838529
0.170904
0.0905647
0.167638
0.097652
0.164166
0.105167
0.160459
0.113177
0.156474
0.121771
0.152143
0.131073
0.147368
0.141253
0.141988
0.152562
0.135741
0.165373
0.128156
0.180288
0.11829
0.198371
0.103894
0.221846
0.0776558
0.257305
0.33426
0.00381352
-0.00381352
0.00743098
-0.00361746
0.0103863
-0.00295529
0.0126535
-0.00226728
0.0143094
-0.00165588
0.0154461
-0.00113673
0.0161527
-0.000706521
0.0165121
-0.000359387
0.0166044
-9.23745e-05
0.0164923
0.000112182
0.0162427
0.000249518
0.0159094
0.000333367
0.0155345
0.000374885
0.0151505
0.000384017
0.0147811
0.000369377
0.0144421
0.000338965
0.0141427
0.000299394
0.0138865
0.000256249
0.0136718
0.000214711
0.0134949
0.000176851
0.0133506
0.000144355
0.0132343
0.000116263
0.0131374
9.69464e-05
0.0130499
8.74523e-05
0.0129596
9.03394e-05
0.0128542
0.000105372
0.0127245
0.000129688
0.0125694
0.000155111
0.0124017
0.000167697
0.000136721
0.00352509
-0.00733861
0.00690496
-0.00699733
0.00973709
-0.00578742
0.0120034
-0.00453363
0.0137766
-0.00342903
0.0151387
-0.00249878
0.0161661
-0.00173397
0.0169263
-0.00111961
0.017472
-0.000638044
0.0178524
-0.000268169
0.0181073
-5.4712e-06
0.0182585
0.000182195
0.0183511
0.000282258
0.0184153
0.000319816
0.0184739
0.000310817
0.0185415
0.00027139
0.018626
0.000214836
0.0187303
0.00015201
0.0188512
9.38232e-05
0.0189851
4.29171e-05
0.0191272
2.25545e-06
0.0192792
-3.57333e-05
0.0194362
-6.00818e-05
0.0195927
-6.90391e-05
0.0197389
-5.58119e-05
0.019864
-1.97543e-05
0.0199591
3.45544e-05
0.0200238
9.04521e-05
0.0200701
0.0001214
0.000116969
0.00298229
-0.0103209
0.00575652
-0.00977157
0.00805035
-0.00808125
0.00988363
-0.0063669
0.0113272
-0.00487259
0.0124489
-0.00362045
0.0133109
-0.00259602
0.013968
-0.00177672
0.0144671
-0.00113715
0.0148529
-0.000653925
0.0151594
-0.000312009
0.0154239
-8.23464e-05
0.0156505
5.56985e-05
0.0158454
0.000124883
0.0160215
0.000134711
0.016186
0.000106987
0.0163401
6.07122e-05
0.0164855
6.63334e-06
0.0166225
-4.32466e-05
0.0167592
-9.37858e-05
0.0169011
-0.000139574
0.0170464
-0.00018103
0.0171976
-0.000211353
0.0173537
-0.000225134
0.017512
-0.000214101
0.0176676
-0.00017533
0.0178185
-0.0001164
0.0179625
-5.35235e-05
0.0180938
-9.86804e-06
3.56862e-05
0.00238395
-0.0127048
0.00443933
-0.0118269
0.00607153
-0.00971345
0.00736308
-0.00765845
0.00838044
-0.00588995
0.00917365
-0.00441365
0.00978779
-0.00321016
0.0102607
-0.00224959
0.0106228
-0.00149931
0.0109012
-0.000932326
0.0111218
-0.000532562
0.0113113
-0.000271841
0.0114826
-0.000115666
0.0116374
-2.98519e-05
0.0117712
8.98914e-07
0.0118849
-6.74417e-06
0.0119806
-3.49382e-05
0.0120593
-7.2065e-05
0.0121225
-0.000106462
0.0121674
-0.000138709
0.0121983
-0.000170483
0.0122191
-0.000201818
0.0122356
-0.000227868
0.012251
-0.00024054
0.0122654
-0.000228449
0.0122747
-0.000184651
0.0122776
-0.000119303
0.0122741
-5.00789e-05
0.0122559
8.3896e-06
5.806e-05
0.00168668
-0.0143915
0.00293599
-0.0130763
0.00383081
-0.0106083
0.00451602
-0.00834366
0.00504736
-0.00642129
0.00545919
-0.00482548
0.0057796
-0.00353058
0.00602835
-0.00249833
0.00621694
-0.0016879
0.00635329
-0.00106868
0.00645514
-0.000634409
0.00653883
-0.000355533
0.00660739
-0.000184221
0.0066561
-7.85591e-05
0.00667559
-1.85937e-05
0.00666436
4.48423e-06
0.00662038
9.04631e-06
0.0065395
8.81179e-06
0.00642228
1.07593e-05
0.00627159
1.19769e-05
0.00609187
9.23637e-06
0.00589009
-3.80476e-08
0.00567717
-1.495e-05
0.00546192
-2.52856e-05
0.00524529
-1.18183e-05
0.00500238
5.82588e-05
0.00470512
0.000177953
0.00437538
0.000279668
0.0040677
0.000316067
0.000279538
0.000884818
-0.0152763
0.00123732
-0.0134288
0.00133812
-0.0107091
0.00136617
-0.00837171
0.00134781
-0.00640293
0.00131159
-0.00478926
0.00127489
-0.00349388
0.00124077
-0.00246422
0.00119972
-0.00164684
0.0011415
-0.00101047
0.00108224
-0.000575148
0.000999485
-0.000272775
0.000861537
-4.62722e-05
0.000666695
0.000116283
0.000414318
0.000233783
0.000117079
0.000301723
-0.000219598
0.000345723
-0.00060236
0.000391574
-0.00103861
0.00044701
-0.00152608
0.000499446
-0.00204774
0.000530899
-0.00257722
0.000529437
-0.00308972
0.000497557
-0.00356496
0.000449949
-0.00398201
0.000405235
-0.00431085
0.000387092
-0.00455835
0.000425462
-0.00476798
0.000489289
-0.00495741
0.000505505
0.000444393
-9.38272e-05
-0.0151825
-0.000659835
-0.0128627
-0.00138478
-0.00998413
-0.0020935
-0.00766299
-0.00275334
-0.00574309
-0.00333973
-0.00420287
-0.00384639
-0.00298722
-0.00428248
-0.00202813
-0.00467341
-0.00125591
-0.005087
-0.000596878
-0.00562955
-3.25927e-05
-0.00625588
0.000353555
-0.00684618
0.000544033
-0.00737277
0.000642869
-0.00784963
0.000710638
-0.00830471
0.00075681
-0.00874506
0.000786072
-0.00916585
0.000812363
-0.00956598
0.000847141
-0.00995398
0.00088745
-0.0103405
0.000917421
-0.0107294
0.00091828
-0.011112
0.000880188
-0.0114706
0.000808593
-0.0117885
0.00072315
-0.0120571
0.000655635
-0.0122689
0.000637258
-0.0124313
0.000651668
-0.0125672
0.000641476
0.000593223
-0.00110336
-0.0140792
-0.00271674
-0.0112494
-0.00434654
-0.00835433
-0.00589638
-0.00611316
-0.00730482
-0.00433465
-0.00856622
-0.00294148
-0.00969606
-0.00185737
-0.0107224
-0.00100182
-0.0116626
-0.000315642
-0.0124703
0.000210809
-0.0130817
0.000578813
-0.013551
0.000822864
-0.0139892
0.000982171
-0.0144246
0.00107831
-0.0148526
0.00113863
-0.0152702
0.00117436
-0.0156755
0.00119144
-0.0160637
0.00120055
-0.0164307
0.00121408
-0.0167791
0.00123588
-0.0171172
0.00125556
-0.0174515
0.00125252
-0.0177791
0.00120784
-0.0180878
0.00111727
-0.0183629
0.000998274
-0.0185945
0.000887245
-0.0187754
0.00081818
-0.0189108
0.000787042
-0.0190263
0.000756926
0.000722792
-0.00226415
-0.011815
-0.00496407
-0.00854945
-0.00760274
-0.00571565
-0.0100174
-0.00369852
-0.0121399
-0.00221216
-0.0139592
-0.00112217
-0.0154931
-0.000323464
-0.0167372
0.000242304
-0.0176903
0.000637448
-0.0184053
0.000925788
-0.0189784
0.00115198
-0.019476
0.00132038
-0.0199252
0.00143144
-0.0203473
0.00150042
-0.0207529
0.00154418
-0.0211467
0.00156819
-0.0215281
0.00157277
-0.0218916
0.00156411
-0.0222333
0.00155577
-0.0225557
0.00155826
-0.022867
0.00156689
-0.0231741
0.00155957
-0.0234744
0.0015082
-0.0237552
0.00139809
-0.0240006
0.00124365
-0.0242003
0.00108693
-0.0243525
0.000970321
-0.024467
0.000901583
-0.0245685
0.000858447
0.000836999
-0.00362991
-0.0081851
-0.00751156
-0.00466779
-0.0111754
-0.00205185
-0.0143723
-0.000501567
-0.0169886
0.000404123
-0.0190262
0.000915394
-0.0205653
0.00121567
-0.0217347
0.00141168
-0.0226564
0.00155921
-0.0234108
0.00168015
-0.024037
0.00177819
-0.0245652
0.0018486
-0.0250242
0.00189042
-0.025439
0.00191526
-0.0258289
0.00193409
-0.0262046
0.00194385
-0.0265661
0.00193424
-0.0269068
0.00190484
-0.0272228
0.00187178
-0.0275193
0.00185475
-0.027808
0.00185557
-0.0280974
0.00184894
-0.0283836
0.00179438
-0.0286494
0.00166397
-0.0288744
0.00146856
-0.0290472
0.0012598
-0.0291724
0.00109548
-0.0292668
0.00099602
-0.029354
0.000945651
0.000934235
-0.00559292
-0.00259218
-0.0111058
0.000845084
-0.0154956
0.00233794
-0.0188491
0.00285197
-0.0213763
0.00293133
-0.0233208
0.00285988
-0.0248511
0.00274594
-0.0260656
0.00262617
-0.0270322
0.00252584
-0.0278117
0.00245962
-0.0284534
0.00241994
-0.0289897
0.00238488
-0.0294446
0.00234535
-0.029844
0.0023146
-0.0302142
0.0023043
-0.0305718
0.00230147
-0.0309162
0.00227866
-0.0312363
0.00222489
-0.0315259
0.00216142
-0.0317943
0.00212313
-0.0320602
0.00212147
-0.0323365
0.00212526
-0.0326176
0.00207545
-0.0328787
0.00192506
-0.0330903
0.0016802
-0.0332388
0.00140829
-0.033336
0.00119273
-0.0334087
0.00106871
-0.0334801
0.00101705
0.00101382
-0.00787029
0.0052781
-0.0142916
0.00726644
-0.0190015
0.00704782
-0.0225445
0.00639491
-0.0252257
0.00561259
-0.0272505
0.00488467
-0.0288013
0.00429669
-0.030008
0.0038329
-0.0309518
0.00346961
-0.0317037
0.00321152
-0.0323236
0.00303989
-0.0328429
0.00290421
-0.0332754
0.00277786
-0.0336441
0.00268328
-0.0339846
0.00264475
-0.0343217
0.00263864
-0.0346522
0.00260916
-0.0349544
0.00252708
-0.035216
0.002423
-0.0354514
0.00235853
-0.0356916
0.00236167
-0.0359578
0.00239145
-0.0362423
0.00235997
-0.0365089
0.00219168
-0.0367137
0.001885
-0.0368373
0.0015319
-0.0369017
0.00125711
-0.0369486
0.00111559
-0.037003
0.00107145
0.00107599
-0.00976578
0.0150439
-0.0174803
0.0149809
-0.0228314
0.0123989
-0.0265295
0.010093
-0.0291766
0.00825968
-0.0310837
0.00679179
-0.0325107
0.00572365
-0.033617
0.00493924
-0.0344665
0.00431915
-0.0351321
0.00387713
-0.0356923
0.0036
-0.0361751
0.00338708
-0.0365696
0.00317234
-0.0368886
0.0030023
-0.0371841
0.00294026
-0.0374974
0.00295186
-0.0378197
0.00293147
-0.0381089
0.00281632
-0.0383389
0.002653
-0.0385317
0.00255127
-0.0387391
0.00256909
-0.0389967
0.00264911
-0.0392945
0.00265776
-0.0395791
0.00247626
-0.0397841
0.00209003
-0.0398793
0.00162709
-0.0399006
0.00127836
-0.0399147
0.00112973
-0.0399524
0.00110916
0.00112292
-0.012978
0.0280219
-0.0224343
0.0244372
-0.0277883
0.0177529
-0.0310271
0.0133318
-0.0333389
0.0105715
-0.0348781
0.00833096
-0.0359893
0.0068349
-0.0369
0.00584994
-0.0375927
0.00501186
-0.0381096
0.00439401
-0.038572
0.0040624
-0.039011
0.00382607
-0.0393589
0.00352021
-0.0396026
0.00324601
-0.0398279
0.00316558
-0.040112
0.003236
-0.040438
0.0032574
-0.0407246
0.003103
-0.0409178
0.00284615
-0.0410505
0.00268393
-0.0412116
0.00273023
-0.0414613
0.00289878
-0.041785
0.0029815
-0.0421042
0.00279547
-0.0423186
0.00230445
-0.0423783
0.00168673
-0.0423383
0.0012384
-0.0423082
0.00109965
-0.0423328
0.00113378
0.00116193
-0.0184876
0.0465095
-0.0299464
0.035896
-0.0345867
0.0223932
-0.0361169
0.014862
-0.0377706
0.0122253
-0.0385818
0.00914213
-0.0391049
0.00735808
-0.0398019
0.00654694
-0.0403512
0.00556108
-0.0406397
0.00468258
-0.0409428
0.00436541
-0.0413414
0.00422472
-0.0416467
0.00382546
-0.0417818
0.00338118
-0.0418953
0.00327909
-0.0421465
0.00348715
-0.0425021
0.00361297
-0.0428081
0.00340902
-0.0429558
0.00299391
-0.042996
0.00272405
-0.0430852
0.00281944
-0.0433253
0.00313891
-0.0436917
0.0033479
-0.0440682
0.00317201
-0.0443049
0.00254111
-0.0443173
0.00169915
-0.0441854
0.00110647
-0.0440914
0.00100563
-0.0441124
0.0011548
0.00121244
0.207447
0.00576009
0.207034
0.0111748
0.206432
0.0163496
0.205647
0.0213675
0.204688
0.0262934
0.203561
0.0311816
0.202272
0.0360794
0.200826
0.0410289
0.19923
0.0460668
0.197489
0.0512263
0.195608
0.0565377
0.193593
0.0620293
0.19145
0.0677285
0.189183
0.0736627
0.186798
0.0798603
0.184298
0.0863529
0.181686
0.0931761
0.178965
0.100373
0.176134
0.107998
0.173192
0.116119
0.170134
0.124829
0.166956
0.134251
0.163652
0.144557
0.160223
0.15599
0.156693
0.168904
0.153153
0.183828
0.149967
0.201556
0.148808
0.223005
0.160451
0.245662
0.258868
0.235842
0.21249
0.0059525
0.212118
0.0115477
0.211574
0.0168931
0.210868
0.0220733
0.210008
0.0271538
0.209001
0.0321889
0.207854
0.0372264
0.206575
0.0423079
0.205171
0.0474703
0.203651
0.0527462
0.202023
0.0581655
0.200297
0.063756
0.198481
0.0695444
0.196586
0.0755571
0.194625
0.0818218
0.192609
0.0883685
0.190554
0.0952313
0.188477
0.102451
0.186398
0.110076
0.184348
0.11817
0.182364
0.126812
0.18051
0.136106
0.178883
0.146184
0.177654
0.157219
0.177146
0.169413
0.178009
0.182964
0.181659
0.197906
0.190695
0.21397
0.206121
0.230236
0.245786
0.219202
0.217658
0.00612241
0.217329
0.0118766
0.21685
0.0173717
0.21623
0.022693
0.215478
0.0279061
0.214602
0.0330655
0.21361
0.0382185
0.212511
0.0434064
0.211316
0.0486655
0.210035
0.0540276
0.208679
0.0595216
0.207261
0.0651739
0.205795
0.0710098
0.204298
0.0770539
0.202789
0.0833314
0.201288
0.089869
0.199823
0.0966966
0.198426
0.103848
0.197138
0.111364
0.196016
0.119292
0.195137
0.12769
0.194616
0.136627
0.194621
0.146179
0.195417
0.156424
0.197412
0.167417
0.201218
0.179158
0.207604
0.19152
0.217233
0.204341
0.229829
0.21764
0.22884
0.246775
0.222951
0.00626785
0.22267
0.0121579
0.222262
0.0177798
0.221736
0.0232192
0.2211
0.0285415
0.220365
0.0338009
0.219539
0.039044
0.218634
0.0443113
0.217662
0.0496379
0.216635
0.0550547
0.215568
0.0605888
0.214477
0.0662648
0.213381
0.0721056
0.212302
0.078133
0.211265
0.0843684
0.2103
0.0908338
0.209444
0.0975524
0.208743
0.104549
0.208255
0.111852
0.208057
0.11949
0.208251
0.127496
0.208978
0.1359
0.21043
0.144727
0.212872
0.153982
0.216649
0.16364
0.222182
0.173625
0.22992
0.183782
0.240437
0.193825
0.25465
0.203426
0.210334
0.273156
0.228374
0.00638695
0.228144
0.0123878
0.227812
0.0181123
0.227386
0.0236454
0.226875
0.0290522
0.22629
0.0343859
0.225641
0.0396924
0.224942
0.0450108
0.224205
0.0503751
0.223445
0.0558141
0.222681
0.061353
0.221932
0.0670141
0.22122
0.0728172
0.220573
0.0787804
0.220021
0.0849204
0.219601
0.0912531
0.21936
0.0977939
0.219352
0.104558
0.219646
0.111557
0.220331
0.118805
0.22152
0.126307
0.223357
0.134063
0.226028
0.142056
0.229764
0.150247
0.234844
0.15856
0.241597
0.166871
0.250404
0.174975
0.26171
0.182518
0.275991
0.189146
0.193772
0.292553
0.233929
0.00647802
0.233754
0.0125633
0.233502
0.0183645
0.233182
0.0239656
0.232803
0.0294309
0.232376
0.0348124
0.231914
0.0401545
0.23143
0.0454952
0.230939
0.0508664
0.230458
0.0562949
0.230007
0.0618036
0.22961
0.0674117
0.229291
0.0731356
0.229083
0.078989
0.229019
0.0849835
0.229144
0.0911284
0.229507
0.0974308
0.23017
0.103895
0.231207
0.11052
0.23271
0.117302
0.23479
0.124227
0.237584
0.131269
0.241254
0.138385
0.245995
0.145506
0.252026
0.152529
0.25959
0.159307
0.26893
0.165636
0.280225
0.171224
0.293571
0.175799
0.178848
0.308494
0.23962
0.00653958
0.239502
0.0126813
0.239334
0.0185322
0.239125
0.0241747
0.238884
0.0296715
0.238623
0.0350733
0.238355
0.040423
0.238094
0.0457566
0.237856
0.0511039
0.237662
0.0564895
0.237532
0.0619335
0.237492
0.0674518
0.23757
0.0730572
0.2378
0.0787588
0.238221
0.0845627
0.238878
0.0904717
0.239824
0.0964848
0.241122
0.102597
0.242846
0.108796
0.245085
0.115063
0.247942
0.121371
0.251535
0.127676
0.256
0.133919
0.261488
0.140018
0.268155
0.145863
0.27615
0.151312
0.285595
0.156191
0.296536
0.160283
0.308961
0.163374
0.165196
0.322613
0.245448
0.00657036
0.24539
0.0127396
0.24531
0.018612
0.245217
0.0242682
0.245119
0.0297689
0.245029
0.0351633
0.24496
0.0404921
0.244928
0.0457892
0.244949
0.0510823
0.245045
0.0563934
0.245239
0.0617396
0.245557
0.0671337
0.24603
0.0725843
0.246692
0.0780964
0.247584
0.0836707
0.248752
0.089304
0.250249
0.0949884
0.252135
0.10071
0.254481
0.10645
0.257367
0.112178
0.260882
0.117856
0.265124
0.123434
0.270198
0.128845
0.276211
0.134005
0.283263
0.138811
0.291434
0.14314
0.300774
0.146851
0.31127
0.149788
0.322855
0.151789
0.152724
0.335327
0.251418
0.00656935
0.251422
0.012736
0.251432
0.0186013
0.251458
0.0242429
0.251507
0.0297196
0.251592
0.0350784
0.251726
0.0403579
0.251926
0.0455898
0.252209
0.0507993
0.252596
0.0560056
0.253113
0.0612231
0.253785
0.0664612
0.254645
0.0717249
0.255726
0.0770149
0.25707
0.0823275
0.258719
0.0876542
0.260726
0.0929815
0.263147
0.0982898
0.266043
0.103553
0.269485
0.108736
0.273544
0.113797
0.278297
0.118681
0.28382
0.123322
0.290182
0.127643
0.29744
0.131553
0.305628
0.134952
0.314747
0.137732
0.324752
0.139782
0.335545
0.140996
0.141316
0.346953
0.257532
0.0065358
0.257599
0.0126693
0.257702
0.018498
0.257849
0.0240964
0.258047
0.029521
0.258309
0.0348163
0.258649
0.0400187
0.259081
0.0451574
0.259625
0.0502552
0.260302
0.0553285
0.261136
0.0603889
0.262155
0.0654427
0.263388
0.0704917
0.26487
0.0755329
0.266639
0.0805587
0.268736
0.0855568
0.271208
0.0905095
0.274105
0.0953932
0.277479
0.100178
0.281388
0.104828
0.285887
0.109298
0.291031
0.113536
0.296871
0.117482
0.303446
0.121068
0.310782
0.124218
0.318879
0.126855
0.327711
0.1289
0.337214
0.130279
0.347282
0.130928
0.130823
0.357775
0.263794
0.00646923
0.263925
0.0125386
0.264122
0.018301
0.264391
0.0238277
0.264739
0.0291722
0.265179
0.0343766
0.265723
0.0394749
0.266387
0.0444937
0.267189
0.0494532
0.26815
0.0543676
0.269293
0.0592455
0.270645
0.0640907
0.272235
0.0689019
0.274094
0.0736733
0.276258
0.0783946
0.278765
0.0830504
0.281654
0.0876206
0.284967
0.0920796
0.288749
0.0963968
0.293042
0.100535
0.297886
0.104453
0.30332
0.108103
0.309371
0.111431
0.316057
0.114382
0.323378
0.116896
0.331317
0.118916
0.339831
0.120387
0.348849
0.121262
0.358273
0.121504
0.121114
0.367982
0.270207
0.00636948
0.270402
0.0123435
0.270693
0.01801
0.271084
0.0234365
0.271583
0.0286735
0.272199
0.0337604
0.272945
0.0387286
0.273836
0.0436024
0.27489
0.0483994
0.276126
0.0531315
0.277567
0.0578049
0.279237
0.0624209
0.281162
0.0669762
0.283373
0.0714628
0.285899
0.0758683
0.288774
0.0801758
0.292031
0.0843639
0.295703
0.088407
0.299825
0.0922749
0.304427
0.0959332
0.309537
0.0993438
0.315175
0.102465
0.321353
0.105253
0.328072
0.107663
0.335318
0.10965
0.34306
0.111174
0.351249
0.112198
0.359814
0.112696
0.368667
0.112651
0.112073
0.377707
0.276774
0.00623664
0.277033
0.0120843
0.277417
0.0176256
0.27793
0.022924
0.278577
0.0280267
0.279366
0.0329705
0.280311
0.0377842
0.281424
0.0424895
0.282721
0.047102
0.284221
0.0516312
0.285945
0.0560814
0.287914
0.060452
0.290152
0.0647381
0.292685
0.0689301
0.295538
0.0730146
0.29874
0.0769742
0.302316
0.0807877
0.306293
0.0844302
0.310694
0.0878739
0.315539
0.0910878
0.320844
0.0940387
0.326617
0.0966919
0.332858
0.0990123
0.339555
0.100966
0.346685
0.10252
0.354211
0.103648
0.362081
0.104328
0.37023
0.104548
0.378579
0.104301
0.103607
0.387045
0.283498
0.0060711
0.283821
0.0117618
0.284297
0.0171491
0.284929
0.0222921
0.285721
0.0272348
0.28668
0.0320112
0.287817
0.0366474
0.289144
0.041163
0.290674
0.0455713
0.292425
0.04988
0.294415
0.0540918
0.296662
0.0582047
0.299188
0.0622126
0.302013
0.0661052
0.305158
0.0698688
0.308646
0.0734865
0.312496
0.0769379
0.316726
0.0802004
0.321351
0.0832488
0.326382
0.0860565
0.331825
0.0885957
0.337679
0.0908386
0.343933
0.0927582
0.350569
0.0943295
0.357558
0.0955309
0.364861
0.0963456
0.372427
0.0967625
0.380196
0.0967779
0.388103
0.0963952
0.0956349
0.396075
0.290384
0.00587349
0.290768
0.0113773
0.291335
0.0165825
0.292083
0.0215439
0.293016
0.026302
0.294139
0.0308881
0.295461
0.0353257
0.296992
0.0396323
0.298744
0.0438194
0.300731
0.047893
0.302968
0.0518545
0.305472
0.055701
0.308259
0.0594256
0.311346
0.0630183
0.314749
0.0664656
0.318484
0.0697515
0.322564
0.0728575
0.327001
0.0757634
0.331802
0.0784477
0.336971
0.080888
0.342505
0.0830619
0.348395
0.0849481
0.354627
0.0865268
0.361175
0.0877806
0.36801
0.0886962
0.375091
0.0892645
0.382372
0.089482
0.389799
0.0893511
0.397314
0.0888801
0.0880902
0.404858
0.297435
0.00564468
0.297879
0.0109325
0.298533
0.0159285
0.299394
0.0206831
0.300463
0.0252334
0.301743
0.0296078
0.303241
0.0338277
0.304965
0.0379083
0.306925
0.0418595
0.309132
0.0456861
0.311598
0.0493885
0.314336
0.0529632
0.317358
0.0564034
0.320677
0.0596991
0.324305
0.062838
0.328251
0.0658054
0.332523
0.0685853
0.337126
0.07116
0.342062
0.0735118
0.347328
0.0756226
0.352915
0.0774751
0.358809
0.0790535
0.364992
0.080344
0.371437
0.0813358
0.378111
0.0820215
0.384978
0.0823979
0.391993
0.0824665
0.399111
0.0822337
0.406281
0.0817103
0.0809171
0.413454
0.304654
0.00538574
0.305157
0.0104295
0.305895
0.0151904
0.306864
0.0197142
0.308062
0.0240349
0.309492
0.0281781
0.311157
0.0321629
0.313063
0.0360027
0.315216
0.0397058
0.317626
0.0432761
0.320302
0.0467133
0.323251
0.0500139
0.326483
0.053171
0.330007
0.0561758
0.333828
0.0590168
0.337952
0.0616814
0.342381
0.0641558
0.347116
0.0664254
0.352152
0.0684758
0.357481
0.0702932
0.363092
0.0718646
0.368966
0.073179
0.375083
0.0742276
0.381414
0.0750045
0.387929
0.0755067
0.394591
0.0757354
0.401363
0.0756952
0.408202
0.0753946
0.415066
0.074846
0.0740688
0.421914
0.312046
0.00509789
0.312605
0.0098707
0.313424
0.0143717
0.314495
0.0186423
0.315817
0.0227132
0.317388
0.0266072
0.31921
0.0303414
0.321285
0.0339275
0.323618
0.0373726
0.326214
0.0406797
0.329079
0.0438482
0.332219
0.0468746
0.335637
0.0497528
0.339338
0.0524745
0.343325
0.0550301
0.347597
0.0574087
0.352154
0.0595989
0.356991
0.0615891
0.362098
0.0633681
0.367466
0.0649256
0.373078
0.0662525
0.378915
0.0673417
0.384955
0.0681883
0.391169
0.0687901
0.397528
0.0691474
0.404
0.0692641
0.410548
0.0691468
0.417137
0.0688052
0.423731
0.0682518
0.0675047
0.430295
0.319615
0.00478243
0.320227
0.00925872
0.321122
0.0134765
0.322292
0.0174728
0.32373
0.0212751
0.325433
0.0249038
0.327401
0.0283737
0.329633
0.0316953
0.332132
0.0348743
0.334898
0.0379134
0.337934
0.0408117
0.341243
0.043566
0.344825
0.0461707
0.348681
0.048619
0.352808
0.0509026
0.357204
0.0530127
0.361863
0.0549399
0.366777
0.0566755
0.371934
0.0582111
0.37732
0.0595393
0.382918
0.0606545
0.388707
0.0615525
0.394664
0.0622314
0.400763
0.0626916
0.406974
0.0629359
0.413269
0.0629696
0.419615
0.0628004
0.425982
0.0624387
0.432337
0.0618963
0.0611897
0.438652
0.327365
0.00444074
0.328027
0.00859624
0.328995
0.0125087
0.330257
0.0162111
0.331804
0.0197276
0.333632
0.0230764
0.335735
0.0262702
0.338113
0.029318
0.340762
0.0322249
0.343683
0.0349928
0.346873
0.037621
0.350333
0.0401066
0.354059
0.0424449
0.358047
0.0446302
0.362294
0.0466557
0.366793
0.0485145
0.371533
0.0501993
0.376505
0.0517036
0.381695
0.0530215
0.387086
0.0541483
0.39266
0.0550807
0.398395
0.055817
0.404269
0.0563575