/*--------------------------------*- C++ -*----------------------------------*\
  =========                 |
  \\      /  F ield         | OpenFOAM: The Open Source CFD Toolbox
   \\    /   O peration     | Website:  https://openfoam.org
    \\  /    A nd           | Version:  dev
     \\/     M anipulation  |
\*---------------------------------------------------------------------------*/
FoamFile
{
    version     2.0;
    format      ascii;
    class       volVectorField;
    location    "7.2";
    object      U;
}
// * * * * * * * * * * * * * * * * * * * * * * * * * * * * * * * * * * * * * //

dimensions      [0 1 -1 0 0 0 0];

internalField   nonuniform List<vector> 
2790
(
(9.94399 0 0.0205231)
(9.87572 0 0.0295876)
(9.77521 0 0.0359894)
(9.64944 0 0.0425561)
(9.50409 0 0.0493853)
(9.34007 0 0.0564283)
(9.15655 0 0.063816)
(8.95263 0 0.0717119)
(8.72747 0 0.0802558)
(8.48009 0 0.0895744)
(8.20927 0 0.0997948)
(7.91365 0 0.111047)
(7.59168 0 0.123463)
(7.24177 0 0.137168)
(6.86231 0 0.152277)
(6.45177 0 0.168876)
(6.00885 0 0.187004)
(5.53264 0 0.206626)
(5.02292 0 0.227598)
(4.48039 0 0.249619)
(3.90709 0 0.272184)
(3.30676 0 0.294533)
(2.68522 0 0.315626)
(2.05055 0 0.334293)
(1.41173 0 0.35061)
(0.797978 0 0.372888)
(0.110627 0 0.325029)
(-0.469568 0 -0.114876)
(-0.453787 0 -0.297141)
(-0.231164 0 -0.423854)
(9.9985 0 0.0407029)
(9.98145 0 0.0623825)
(9.93575 0 0.0791398)
(9.86416 0 0.0966244)
(9.77098 0 0.115124)
(9.65715 0 0.134488)
(9.52206 0 0.154975)
(9.36486 0 0.176944)
(9.18472 0 0.200709)
(8.98068 0 0.226552)
(8.75153 0 0.254747)
(8.49589 0 0.285565)
(8.2122 0 0.319256)
(7.89882 0 0.356031)
(7.55403 0 0.39603)
(7.17618 0 0.439275)
(6.76376 0 0.485606)
(6.31563 0 0.534602)
(5.83121 0 0.585477)
(5.31083 0 0.636969)
(4.7561 0 0.687218)
(4.17036 0 0.733659)
(3.55924 0 0.772962)
(2.93149 0 0.801098)
(2.29989 0 0.813751)
(1.6929 0 0.807252)
(1.10711 0 0.74724)
(0.658865 0 0.547913)
(0.186397 0 0.224585)
(-0.0081988 0 -0.453744)
(9.99559 0 0.0432067)
(9.97556 0 0.0752712)
(9.9318 0 0.103345)
(9.8649 0 0.13237)
(9.77778 0 0.163059)
(9.67155 0 0.195398)
(9.54588 0 0.229742)
(9.40014 0 0.266603)
(9.23366 0 0.306472)
(9.04564 0 0.34981)
(8.83509 0 0.397076)
(8.60081 0 0.448728)
(8.34145 0 0.5052)
(8.0555 0 0.566874)
(7.74137 0 0.634024)
(7.39743 0 0.706746)
(7.02209 0 0.784854)
(6.61393 0 0.867742)
(6.1719 0 0.954213)
(5.6956 0 1.04227)
(5.18558 0 1.1289)
(4.64391 0 1.2098)
(4.07474 0 1.27917)
(3.48532 0 1.32934)
(2.88679 0 1.35009)
(2.29942 0 1.32642)
(1.7318 0 1.22076)
(1.21622 0 0.972985)
(0.701122 0 0.570122)
(0.358027 0 -0.156596)
(9.99403 0 0.0494989)
(9.97181 0 0.0932056)
(9.92788 0 0.133571)
(9.86225 0 0.174208)
(9.77694 0 0.216432)
(9.67299 0 0.26066)
(9.55032 0 0.30743)
(9.4085 0 0.357416)
(9.24703 0 0.411292)
(9.06534 0 0.469708)
(8.86269 0 0.533307)
(8.6382 0 0.602731)
(8.39085 0 0.678602)
(8.11952 0 0.761487)
(7.82299 0 0.851835)
(7.49999 0 0.949892)
(7.14922 0 1.05557)
(6.76942 0 1.16826)
(6.35946 0 1.28663)
(5.91856 0 1.40829)
(5.44648 0 1.52949)
(4.94395 0 1.6447)
(4.41311 0 1.74615)
(3.85821 0 1.82322)
(3.28576 0 1.86136)
(2.70635 0 1.84031)
(2.1256 0 1.72598)
(1.55423 0 1.47784)
(0.957928 0 1.08366)
(0.509418 0 0.502286)
(9.99331 0 0.0572131)
(9.96994 0 0.110958)
(9.92593 0 0.162103)
(9.86146 0 0.213346)
(9.77799 0 0.266355)
(9.67635 0 0.321913)
(9.55654 0 0.380701)
(9.41822 0 0.443489)
(9.26098 0 0.511058)
(9.08434 0 0.584174)
(8.88771 0 0.663593)
(8.67039 0 0.750071)
(8.43159 0 0.844345)
(8.17045 0 0.947098)
(7.88607 0 1.05889)
(7.57747 0 1.18009)
(7.24364 0 1.31071)
(6.88358 0 1.4502)
(6.49625 0 1.59725)
(6.08069 0 1.74935)
(5.63611 0 1.90243)
(5.16206 0 2.05033)
(4.65871 0 2.18419)
(4.12715 0 2.29174)
(3.56934 0 2.35655)
(2.98883 0 2.3573)
(2.38678 0 2.26493)
(1.76635 0 2.0476)
(1.08997 0 1.69135)
(0.536641 0 1.15409)
(9.99302 0 0.065538)
(9.96923 0 0.1287)
(9.92556 0 0.190112)
(9.86253 0 0.251842)
(9.78129 0 0.315577)
(9.68245 0 0.382317)
(9.56601 0 0.452874)
(9.43172 0 0.528102)
(9.27921 0 0.608882)
(9.10807 0 0.696088)
(8.91778 0 0.790585)
(8.70774 0 0.893233)
(8.47728 0 1.00487)
(8.22567 0 1.12627)
(7.95214 0 1.25811)
(7.65587 0 1.40083)
(7.33601 0 1.55457)
(6.99161 0 1.71889)
(6.62165 0 1.89258)
(6.22496 0 2.07325)
(5.80023 0 2.25688)
(5.34598 0 2.43722)
(4.86064 0 2.60521)
(4.34263 0 2.74822)
(3.79033 0 2.84954)
(3.20251 0 2.88817)
(2.57651 0 2.83819)
(1.91342 0 2.67156)
(1.17272 0 2.37393)
(0.549952 0 1.89433)
(9.99297 0 0.0740741)
(9.96927 0 0.146312)
(9.92637 0 0.217481)
(9.86509 0 0.28929)
(9.78643 0 0.363353)
(9.69085 0 0.440825)
(9.57835 0 0.522659)
(9.44872 0 0.609811)
(9.30166 0 0.703257)
(9.13679 0 0.803968)
(8.95365 0 0.912906)
(8.75171 0 1.03102)
(8.53034 0 1.15923)
(8.28887 0 1.29842)
(8.02658 0 1.44932)
(7.74268 0 1.61251)
(7.43628 0 1.78822)
(7.10638 0 1.9762)
(6.75177 0 2.17544)
(6.37097 0 2.38385)
(5.96205 0 2.59777)
(5.52258 0 2.81141)
(5.04945 0 3.01617)
(4.53893 0 3.19997)
(3.98658 0 3.34667)
(3.38783 0 3.43594)
(2.73717 0 3.44326)
(2.03618 0 3.34142)
(1.24171 0 3.11349)
(0.563494 0 2.69305)
(9.99306 0 0.0825871)
(9.96981 0 0.163604)
(9.92807 0 0.244048)
(9.86885 0 0.325477)
(9.79313 0 0.409443)
(9.70126 0 0.497204)
(9.59324 0 0.589837)
(9.46889 0 0.688395)
(9.32797 0 0.793941)
(9.17015 0 0.907533)
(8.99503 0 1.03022)
(8.80211 0 1.16305)
(8.59082 0 1.30702)
(8.36051 0 1.46311)
(8.11045 0 1.63217)
(7.8398 0 1.8149)
(7.54759 0 2.0117)
(7.23265 0 2.22255)
(6.89347 0 2.44678)
(6.52812 0 2.68273)
(6.13403 0 2.9274)
(5.70778 0 3.17581)
(5.24489 0 3.42039)
(4.73969 0 3.65021)
(4.18538 0 3.85023)
(3.57465 0 4.00086)
(2.89942 0 4.07784)
(2.16202 0 4.05229)
(1.31606 0 3.90158)
(0.583191 0 3.54002)
(9.99326 0 0.0909272)
(9.97072 0 0.180406)
(9.93046 0 0.269665)
(9.87362 0 0.360238)
(9.80118 0 0.453643)
(9.71344 0 0.551206)
(9.61039 0 0.654109)
(9.49189 0 0.763494)
(9.35777 0 0.880505)
(9.20774 0 1.00628)
(9.04147 0 1.14196)
(8.85849 0 1.28868)
(8.65828 0 1.44753)
(8.44022 0 1.61961)
(8.20358 0 1.80589)
(7.94746 0 2.00724)
(7.67077 0 2.22429)
(7.37214 0 2.45732)
(7.04976 0 2.7061)
(6.70123 0 2.96962)
(6.32329 0 3.24571)
(5.91157 0 3.53058)
(5.46027 0 3.8181)
(4.9619 0 4.09901)
(4.40728 0 4.35986)
(3.78626 0 4.58207)
(3.08743 0 4.741)
(2.31258 0 4.80434)
(1.41055 0 4.74093)
(0.614266 0 4.44174)
(9.99352 0 0.0989908)
(9.97191 0 0.196576)
(9.93341 0 0.294191)
(9.87925 0 0.393412)
(9.81041 0 0.495751)
(9.72717 0 0.602584)
(9.62954 0 0.715178)
(9.51743 0 0.834759)
(9.3907 0 0.962543)
(9.24914 0 1.09975)
(9.09247 0 1.2476)
(8.92029 0 1.4073)
(8.73214 0 1.58008)
(8.52743 0 1.76713)
(8.30544 0 1.96959)
(8.06526 0 2.18852)
(7.80572 0 2.42484)
(7.52528 0 2.67922)
(7.22188 0 2.95198)
(6.89272 0 3.24289)
(6.53397 0 3.55086)
(6.14039 0 3.87356)
(5.70494 0 4.20676)
(5.21835 0 4.54342)
(4.66883 0 4.87245)
(4.04268 0 5.17694)
(3.3235 0 5.43222)
(2.50958 0 5.60182)
(1.54173 0 5.64328)
(0.663992 0 5.41778)
(9.99384 0 0.106702)
(9.9733 0 0.211997)
(9.9368 0 0.317498)
(9.88558 0 0.42485)
(9.82064 0 0.535583)
(9.74226 0 0.651114)
(9.65046 0 0.772782)
(9.54519 0 0.901881)
(9.42639 0 1.0397)
(9.29392 0 1.18752)
(9.14754 0 1.34664)
(8.98696 0 1.51836)
(8.81177 0 1.70401)
(8.62145 0 1.90489)
(8.41533 0 2.12234)
(8.19253 0 2.35764)
(7.95188 0 2.61201)
(7.69178 0 2.8866)
(7.41003 0 3.18235)
(7.1036 0 3.49994)
(6.76828 0 3.83956)
(6.39824 0 4.20063)
(5.98543 0 4.58126)
(5.51892 0 4.9774)
(4.98417 0 5.38135)
(4.36302 0 5.77954)
(3.63163 0 6.14905)
(2.77985 0 6.45049)
(1.73324 0 6.62822)
(0.74473 0 6.50273)
(9.9942 0 0.114004)
(9.97487 0 0.226571)
(9.94056 0 0.339468)
(9.89252 0 0.454417)
(9.83174 0 0.572976)
(9.75852 0 0.696601)
(9.6729 0 0.826686)
(9.57489 0 0.964587)
(9.4645 0 1.11165)
(9.34164 0 1.26921)
(9.20618 0 1.43865)
(9.05789 0 1.62134)
(8.89647 0 1.8187)
(8.72149 0 2.03218)
(8.53239 0 2.26327)
(8.32838 0 2.51348)
(8.10836 0 2.7844)
(7.87081 0 3.07763)
(7.61359 0 3.39481)
(7.33369 0 3.73759)
(7.02685 0 4.10756)
(6.68704 0 4.50614)
(6.30573 0 4.93423)
(5.87088 0 5.39155)
(5.3655 0 5.87543)
(4.76656 0 6.37826)
(4.04032 0 6.88315)
(3.16106 0 7.35329)
(2.02441 0 7.72282)
(0.880558 0 7.75655)
(9.99459 0 0.120851)
(9.97657 0 0.24022)
(9.94462 0 0.360001)
(9.89996 0 0.481993)
(9.84357 0 0.607787)
(9.77576 0 0.738873)
(9.69663 0 0.876688)
(9.60625 0 1.02264)
(9.50466 0 1.17811)
(9.39187 0 1.34451)
(9.26784 0 1.52325)
(9.13245 0 1.71579)
(8.98551 0 1.92362)
(8.82672 0 2.14832)
(8.65566 0 2.39152)
(8.4717 0 2.65498)
(8.27394 0 2.94059)
(8.06108 0 3.25042)
(7.83125 0 3.58678)
(7.58175 0 3.95229)
(7.30871 0 4.34997)
(7.00653 0 4.78331)
(6.66703 0 5.25627)
(6.27822 0 5.77311)
(5.82211 0 6.33783)
(5.27203 0 6.95249)
(4.58397 0 7.6136)
(3.70934 0 8.3007)
(2.48762 0 8.95771)
(1.12415 0 9.29238)
(9.99501 0 0.127208)
(9.97838 0 0.252879)
(9.94891 0 0.379014)
(9.9078 0 0.507478)
(9.85599 0 0.639897)
(9.79383 0 0.77779)
(9.72144 0 0.922627)
(9.63895 0 1.07585)
(9.54649 0 1.23888)
(9.44415 0 1.41317)
(9.33198 0 1.60016)
(9.20998 0 1.80136)
(9.07809 0 2.01835)
(8.93618 0 2.25277)
(8.78402 0 2.50642)
(8.6212 0 2.78123)
(8.44711 0 3.07936)
(8.26083 0 3.40328)
(8.06095 0 3.75588)
(7.84542 0 4.14064)
(7.61123 0 4.56185)
(7.35395 0 5.02491)
(7.06694 0 5.53676)
(6.7401 0 6.10639)
(6.35749 0 6.74549)
(5.89348 0 7.46912)
(5.3 0 8.2964)
(4.50791 0 9.24781)
(3.26784 0 10.3412)
(1.60437 0 11.3577)
(9.99545 0 0.133048)
(9.98027 0 0.264498)
(9.95339 0 0.396434)
(9.91596 0 0.530778)
(9.86889 0 0.669187)
(9.81254 0 0.813199)
(9.74709 0 0.964308)
(9.67273 0 1.12398)
(9.58966 0 1.29367)
(9.49805 0 1.47483)
(9.39806 0 1.66895)
(9.28982 0 1.87757)
(9.17341 0 2.1023)
(9.04891 0 2.34486)
(8.91628 0 2.60713)
(8.77543 0 2.89117)
(8.62611 0 3.19934)
(8.46786 0 3.53441)
(8.29996 0 3.89967)
(8.12127 0 4.29923)
(7.93008 0 4.7383)
(7.72383 0 5.22372)
(7.49868 0 5.76471)
(7.24872 0 6.3741)
(6.96445 0 7.0703)
(6.63032 0 7.88114)
(6.21352 0 8.85201)
(5.66458 0 10.0658)
(4.68853 0 11.7304)
(2.68612 0 14.5895)
(0.12007 0 -0.119138)
(0.28141 0 -0.107542)
(0.444855 0 -0.0835234)
(0.579518 0 -0.0603232)
(0.679894 0 -0.0407246)
(0.750032 0 -0.0248661)
(0.795523 0 -0.0123416)
(0.821314 0 -0.00270491)
(0.83163 0 0.00439452)
(0.830186 0 0.00898592)
(0.820356 0 0.0114898)
(0.805048 0 0.0126326)
(0.786709 0 0.0127713)
(0.767255 0 0.0122161)
(0.74808 0 0.0112191)
(0.730152 0 0.00999583)
(0.714074 0 0.00871936)
(0.700147 0 0.00750717)
(0.6884 0 0.00643272)
(0.678679 0 0.00550398)
(0.670736 0 0.0047257)
(0.664313 0 0.00407491)
(0.659076 0 0.00361918)
(0.654564 0 0.00336963)
(0.650235 0 0.00333788)
(0.645477 0 0.00347494)
(0.639725 0 0.00367618)
(0.632664 0 0.00382737)
(0.624497 0 0.00373554)
(0.614711 0 0.00289424)
(0.103625 0 -0.280422)
(0.262038 0 -0.261385)
(0.416109 0 -0.210328)
(0.546478 0 -0.159534)
(0.649125 0 -0.116118)
(0.727744 0 -0.0806475)
(0.787054 0 -0.0523433)
(0.83111 0 -0.0302579)
(0.863163 0 -0.0135105)
(0.885761 0 -0.00136768)
(0.901212 0 0.00701846)
(0.91063 0 0.0121042)
(0.916149 0 0.0146289)
(0.919615 0 0.0152702)
(0.922363 0 0.0145809)
(0.925312 0 0.0130173)
(0.929015 0 0.0109813)
(0.933716 0 0.00880947)
(0.939384 0 0.00681762)
(0.945824 0 0.00509116)
(0.952776 0 0.00366286)
(0.960134 0 0.00261708)
(0.967891 0 0.00186181)
(0.975785 0 0.00149162)
(0.983437 0 0.00163088)
(0.990367 0 0.00233388)
(0.995992 0 0.00339626)
(0.999972 0 0.00440342)
(1.00254 0 0.00487835)
(1.00479 0 0.00422858)
(0.0830096 0 -0.444442)
(0.22076 0 -0.414063)
(0.345277 0 -0.336155)
(0.450705 0 -0.259147)
(0.533771 0 -0.193555)
(0.598132 0 -0.140043)
(0.647513 0 -0.097465)
(0.685067 0 -0.0643856)
(0.713466 0 -0.0393386)
(0.735075 0 -0.0208785)
(0.751653 0 -0.0078439)
(0.765764 0 0.000582249)
(0.777828 0 0.00538497)
(0.788002 0 0.00739754)
(0.79706 0 0.00736414)
(0.805449 0 0.00601962)
(0.81336 0 0.00404157)
(0.820797 0 0.00191488)
(0.827751 0 -0.000151314)
(0.834548 0 -0.00193687)
(0.841508 0 -0.00338234)
(0.84871 0 -0.00439945)
(0.856099 0 -0.00507518)
(0.863732 0 -0.00526737)
(0.871567 0 -0.00479307)
(0.879425 0 -0.00357509)
(0.887192 0 -0.00185567)
(0.894767 0 -8.11333e-05)
(0.901801 0 0.00128164)
(0.90857 0 0.00185452)
(0.0629732 0 -0.575881)
(0.173987 0 -0.529259)
(0.261883 0 -0.42744)
(0.337405 0 -0.329858)
(0.395793 0 -0.247763)
(0.441377 0 -0.181042)
(0.476642 0 -0.128077)
(0.503646 0 -0.0869589)
(0.52421 0 -0.0557945)
(0.539905 0 -0.0329672)
(0.55204 0 -0.0173491)
(0.56187 0 -0.00741477)
(0.570491 0 -0.00170041)
(0.578619 0 0.00101197)
(0.585735 0 0.00170687)
(0.591773 0 0.00112066)
(0.596849 0 -0.000127715)
(0.601142 0 -0.00157086)
(0.604726 0 -0.00305891)
(0.607445 0 -0.00440281)
(0.609354 0 -0.00552762)
(0.610616 0 -0.00647566)
(0.611461 0 -0.00714177)
(0.612117 0 -0.00735616)
(0.612723 0 -0.00686492)
(0.613325 0 -0.00568781)
(0.61382 0 -0.00421095)
(0.613989 0 -0.00300732)
(0.61363 0 -0.00199667)
(0.612428 0 -0.000483459)
(0.04214 0 -0.676212)
(0.120808 0 -0.608749)
(0.16627 0 -0.486697)
(0.209301 0 -0.375212)
(0.239696 0 -0.282733)
(0.263872 0 -0.207944)
(0.282652 0 -0.148797)
(0.297008 0 -0.102955)
(0.30785 0 -0.0681527)
(0.315922 0 -0.0425935)
(0.321787 0 -0.0250649)
(0.326109 0 -0.0134702)
(0.329538 0 -0.00627349)
(0.332283 0 -0.00280364)
(0.333913 0 -0.00168992)
(0.334018 0 -0.00182665)
(0.332523 0 -0.00246668)
(0.32932 0 -0.00318207)
(0.324286 0 -0.00392536)
(0.31756 0 -0.00478381)
(0.309348 0 -0.00569532)
(0.299853 0 -0.00648142)
(0.289428 0 -0.00693391)
(0.278462 0 -0.00700972)
(0.267213 0 -0.00640794)
(0.256014 0 -0.00453579)
(0.243103 0 -0.00157914)
(0.227798 0 0.00100673)
(0.211068 0 0.00264885)
(0.19446 0 0.00361938)
(0.0198546 0 -0.739813)
(0.060537 0 -0.647835)
(0.0592751 0 -0.509471)
(0.0675301 0 -0.390635)
(0.0666817 0 -0.293045)
(0.0663792 0 -0.214785)
(0.0653802 0 -0.153433)
(0.0639595 0 -0.106151)
(0.0621954 0 -0.0702035)
(0.0600487 0 -0.0434884)
(0.0573567 0 -0.0259007)
(0.0533129 0 -0.0161359)
(0.0480013 0 -0.00952969)
(0.0399168 0 -0.00385969)
(0.0277859 0 8.21548e-05)
(0.013783 0 0.00209761)
(-0.00231815 0 0.00307224)
(-0.0203313 0 0.0038212)
(-0.040828 0 0.00474536)
(-0.0639098 0 0.00576493)
(-0.0891803 0 0.00649728)
(-0.115652 0 0.00671076)
(-0.141952 0 0.00647938)
(-0.166897 0 0.0060193)
(-0.189973 0 0.00600101)
(-0.209813 0 0.00742969)
(-0.222941 0 0.00996412)
(-0.232584 0 0.0120897)
(-0.243269 0 0.0121069)
(-0.252577 0 0.00972966)
(-0.00548827 0 -0.759428)
(-0.00857299 0 -0.64036)
(-0.0579064 0 -0.491143)
(-0.0887383 0 -0.371756)
(-0.123767 0 -0.275203)
(-0.153621 0 -0.19962)
(-0.180002 0 -0.141881)
(-0.203087 0 -0.098319)
(-0.223587 0 -0.0650569)
(-0.242428 0 -0.038161)
(-0.263078 0 -0.0160388)
(-0.296035 0 -0.000858834)
(-0.328684 0 0.00758978)
(-0.356371 0 0.0132429)
(-0.380641 0 0.0168202)
(-0.403961 0 0.0187226)
(-0.426669 0 0.0198815)
(-0.448372 0 0.0209994)
(-0.468788 0 0.0223156)
(-0.488181 0 0.0234575)
(-0.507274 0 0.0238313)
(-0.526691 0 0.0230657)
(-0.546264 0 0.0212452)
(-0.565153 0 0.0187888)
(-0.582428 0 0.0162215)
(-0.597293 0 0.014305)
(-0.608907 0 0.0138155)
(-0.617856 0 0.0143513)
(-0.625557 0 0.0140799)
(-0.630769 0 0.0125047)
(-0.0370405 0 -0.727113)
(-0.0882923 0 -0.583929)
(-0.184545 0 -0.433577)
(-0.260382 0 -0.318402)
(-0.333603 0 -0.228117)
(-0.398902 0 -0.158546)
(-0.457697 0 -0.105298)
(-0.511065 0 -0.0639164)
(-0.55991 0 -0.0310021)
(-0.605003 0 -0.00504941)
(-0.641652 0 0.0137128)
(-0.665527 0 0.0247286)
(-0.688133 0 0.0297922)
(-0.710359 0 0.0319089)
(-0.732042 0 0.0330346)
(-0.753262 0 0.0334389)
(-0.773988 0 0.0332496)
(-0.793938 0 0.032891)
(-0.812775 0 0.0327688)
(-0.830484 0 0.0329173)
(-0.847484 0 0.0329346)
(-0.864291 0 0.0322247)
(-0.881009 0 0.0303948)
(-0.897171 0 0.0275257)
(-0.912005 0 0.0241844)
(-0.924746 0 0.0212868)
(-0.93489 0 0.019577)
(-0.942774 0 0.0187294)
(-0.948994 0 0.0176346)
(-0.952479 0 0.0161774)
(-0.0751628 0 -0.640555)
(-0.175855 0 -0.47788)
(-0.32367 0 -0.331702)
(-0.447179 0 -0.225894)
(-0.559442 0 -0.147712)
(-0.656458 0 -0.0893009)
(-0.73922 0 -0.0458796)
(-0.809128 0 -0.01429)
(-0.864201 0 0.00769131)
(-0.904338 0 0.0226286)
(-0.935217 0 0.0328639)
(-0.961701 0 0.0399324)
(-0.985202 0 0.0442927)
(-1.00696 0 0.04641)
(-1.02767 0 0.0472177)
(-1.04772 0 0.0471891)
(-1.0672 0 0.0465087)
(-1.08589 0 0.0454688)
(-1.10347 0 0.0444737)
(-1.11995 0 0.0437427)
(-1.13568 0 0.0430643)
(-1.15117 0 0.0418454)
(-1.16652 0 0.0394668)
(-1.18126 0 0.0357364)
(-1.19456 0 0.0311633)
(-1.20567 0 0.0268352)
(-1.21437 0 0.0237195)
(-1.22115 0 0.0218003)
(-1.22637 0 0.0203298)
(-1.22901 0 0.0191747)
(-0.123864 0 -0.495858)
(-0.278754 0 -0.322424)
(-0.479451 0 -0.190926)
(-0.647403 0 -0.101363)
(-0.792709 0 -0.0401918)
(-0.907743 0 -0.00226538)
(-0.995161 0 0.0209079)
(-1.06074 0 0.0353495)
(-1.11174 0 0.044888)
(-1.15322 0 0.0518)
(-1.1873 0 0.0568042)
(-1.21579 0 0.0599096)
(-1.24019 0 0.0612981)
(-1.26187 0 0.0615211)
(-1.28193 0 0.0611313)
(-1.30112 0 0.0602548)
(-1.31963 0 0.0587797)
(-1.33721 0 0.0568152)
(-1.35354 0 0.054824)
(-1.36871 0 0.0532612)
(-1.38326 0 0.0520823)
(-1.39779 0 0.0506062)
(-1.41239 0 0.0478969)
(-1.42641 0 0.0434352)
(-1.43876 0 0.0376511)
(-1.4486 0 0.0318505)
(-1.45596 0 0.0273461)
(-1.4616 0 0.0244711)
(-1.4659 0 0.0227043)
(-1.46797 0 0.0217528)
(-0.194622 0 -0.295556)
(-0.427462 0 -0.110476)
(-0.686921 0 0.0111157)
(-0.872981 0 0.0603947)
(-1.01415 0 0.0781074)
(-1.12293 0 0.0835964)
(-1.2085 0 0.0847215)
(-1.27607 0 0.084152)
(-1.32976 0 0.0830844)
(-1.37284 0 0.0820982)
(-1.40796 0 0.0812181)
(-1.43704 0 0.079972)
(-1.46147 0 0.0781492)
(-1.48256 0 0.0761718)
(-1.5017 0 0.0744575)
(-1.51997 0 0.0727864)
(-1.53763 0 0.0705638)
(-1.55423 0 0.0676048)
(-1.56931 0 0.0644865)
(-1.58305 0 0.0620373)
(-1.59633 0 0.0604537)
(-1.61004 0 0.0589089)
(-1.62429 0 0.0560161)
(-1.6381 0 0.0508168)
(-1.64994 0 0.0436496)
(-1.65875 0 0.0361797)
(-1.66476 0 0.0302721)
(-1.66915 0 0.0266206)
(-1.67252 0 0.0247065)
(-1.6741 0 0.0239238)
(-0.296592 0 0.067762)
(-0.57787 0 0.206515)
(-0.852863 0 0.222738)
(-1.05192 0 0.212228)
(-1.20341 0 0.191752)
(-1.31827 0 0.169943)
(-1.4059 0 0.150733)
(-1.4736 0 0.134857)
(-1.5264 0 0.122116)
(-1.56815 0 0.112589)
(-1.60209 0 0.105683)
(-1.63026 0 0.0999761)
(-1.65364 0 0.0946218)
(-1.67329 0 0.0900875)
(-1.6909 0 0.0869612)
(-1.70799 0 0.0846579)
(-1.72487 0 0.0818195)
(-1.74066 0 0.0777773)
(-1.75448 0 0.0733178)
(-1.76658 0 0.0699036)
(-1.77837 0 0.0681179)
(-1.79128 0 0.0668834)
(-1.80552 0 0.06412)
(-1.81966 0 0.0582221)
(-1.83142 0 0.0493968)
(-1.83929 0 0.0398792)
(-1.84376 0 0.0324188)
(-1.84665 0 0.0281549)
(-1.849 0 0.0262833)
(-1.85016 0 0.0256604)
(-0.369862 0 0.506817)
(-0.709415 0 0.536734)
(-1.03369 0 0.459698)
(-1.24919 0 0.379993)
(-1.4026 0 0.31261)
(-1.51308 0 0.256643)
(-1.5945 0 0.21425)
(-1.65655 0 0.182864)
(-1.70432 0 0.158645)
(-1.7415 0 0.140843)
(-1.77196 0 0.128575)
(-1.79788 0 0.118938)
(-1.81932 0 0.109927)
(-1.83659 0 0.102467)
(-1.8518 0 0.0979938)
(-1.86733 0 0.0955746)
(-1.8836 0 0.0925453)
(-1.89887 0 0.0873636)
(-1.91139 0 0.0811828)
(-1.92142 0 0.0765985)
(-1.93127 0 0.0748889)
(-1.9433 0 0.0745629)
(-1.95792 0 0.0724435)
(-1.97301 0 0.0659499)
(-1.98516 0 0.0550728)
(-1.99209 0 0.0429036)
(-1.99461 0 0.0335943)
(-1.99559 0 0.0289306)
(-1.99682 0 0.0274167)
(-1.9976 0 0.0269806)
(-0.493642 0 1.02734)
(-0.92564 0 0.942993)
(-1.28637 0 0.722262)
(-1.48654 0 0.543978)
(-1.6194 0 0.424521)
(-1.71135 0 0.331221)
(-1.77566 0 0.267735)
(-1.82531 0 0.225535)
(-1.86413 0 0.19163)
(-1.89352 0 0.16534)
(-1.91818 0 0.148425)
(-1.94095 0 0.135994)
(-1.96001 0 0.123497)
(-1.97384 0 0.112792)
(-1.98532 0 0.107347)
(-1.99869 0 0.105975)
(-2.0147 0 0.103607)
(-2.03004 0 0.0971123)
(-2.04125 0 0.0883317)
(-2.04851 0 0.081964)
(-2.0556 0 0.0805954)
(-2.06649 0 0.0820322)
(-2.08195 0 0.0813171)
(-2.09885 0 0.0743996)
(-2.11202 0 0.060897)
(-2.11791 0 0.0451248)
(-2.11773 0 0.0334422)
(-2.11613 0 0.0287092)
(-2.1161 0 0.0281318)
(-2.11662 0 0.0279811)
(-0.730118 0 2.05204)
(-1.26701 0 1.61938)
(-1.65221 0 1.01757)
(-1.78214 0 0.629231)
(-1.85638 0 0.495283)
(-1.9123 0 0.385863)
(-1.94423 0 0.31198)
(-1.97567 0 0.264007)
(-2.00535 0 0.216563)
(-2.02464 0 0.177743)
(-2.0402 0 0.159887)
(-2.05889 0 0.150446)
(-2.0757 0 0.136458)
(-2.08494 0 0.121328)
(-2.09067 0 0.114031)
(-2.10103 0 0.114836)
(-2.11769 0 0.114122)
(-2.13435 0 0.105902)
(-2.14435 0 0.0931413)
(-2.14754 0 0.0841795)
(-2.15036 0 0.0839)
(-2.15955 0 0.0888214)
(-2.17644 0 0.0909366)
(-2.19633 0 0.0840322)
(-2.21138 0 0.0671565)
(-2.216 0 0.046323)
(-2.21187 0 0.031356)
(-2.20655 0 0.0270903)
(-2.20514 0 0.0285296)
(-2.20564 0 0.0289419)
(9.9959 0 0.138442)
(9.98225 0 0.275232)
(9.95811 0 0.412515)
(9.92454 0 0.552261)
(9.88243 0 0.696146)
(9.83217 0 0.845723)
(9.774 0 1.0025)
(9.70817 0 1.16795)
(9.63495 0 1.34354)
(9.55461 0 1.53073)
(9.46743 0 1.73102)
(9.37368 0 1.94595)
(9.2736 0 2.17715)
(9.16748 0 2.42637)
(9.05554 0 2.69552)
(8.93802 0 2.98673)
(8.8151 0 3.30245)
(8.68691 0 3.64559)
(8.55354 0 4.01966)
(8.41497 0 4.42902)
(8.27112 0 4.87933)
(8.12189 0 5.37805)
(7.96721 0 5.93535)
(7.80733 0 6.56558)
(7.64345 0 7.28982)
(7.48051 0 8.14064)
(7.3317 0 9.172)
(7.28692 0 10.4774)
(7.74348 0 12.2016)
(7.92206 0 14.9194)
(9.99638 0 0.143402)
(9.98434 0 0.285086)
(9.96306 0 0.427242)
(9.93352 0 0.571869)
(9.89657 0 0.720659)
(9.85263 0 0.875169)
(9.80198 0 1.03691)
(9.74494 0 1.20735)
(9.68186 0 1.38796)
(9.61312 0 1.58018)
(9.53911 0 1.7855)
(9.46023 0 2.00545)
(9.37693 0 2.24163)
(9.28969 0 2.49579)
(9.19903 0 2.76979)
(9.10552 0 3.06576)
(9.00982 0 3.38613)
(8.91267 0 3.73374)
(8.815 0 4.11205)
(8.71797 0 4.52532)
(8.6232 0 4.97897)
(8.53303 0 5.48003)
(8.45119 0 6.03783)
(8.38391 0 6.66496)
(8.34236 0 7.37865)
(8.34858 0 8.20233)
(8.44135 0 9.16616)
(8.67649 0 10.3035)
(9.32266 0 11.5592)
(9.81145 0 12.6498)
(9.99688 0 0.147838)
(9.98651 0 0.293897)
(9.96819 0 0.440391)
(9.94283 0 0.589337)
(9.91122 0 0.74243)
(9.87378 0 0.90122)
(9.83087 0 1.06721)
(9.78285 0 1.24185)
(9.73016 0 1.42657)
(9.67326 0 1.62281)
(9.61266 0 1.83201)
(9.54893 0 2.05565)
(9.48267 0 2.29528)
(9.41458 0 2.55258)
(9.34547 0 2.82933)
(9.27624 0 3.12753)
(9.20801 0 3.44947)
(9.14211 0 3.79778)
(9.08022 0 4.17557)
(9.02456 0 4.58662)
(8.97815 0 5.03552)
(8.94525 0 5.52796)
(8.93216 0 6.07092)
(8.94839 0 6.6728)
(9.00842 0 7.34307)
(9.13438 0 8.0904)
(9.35728 0 8.9167)
(9.68664 0 9.81098)
(10.2524 0 10.722)
(10.9402 0 11.4401)
(9.9974 0 0.151699)
(9.98874 0 0.301557)
(9.97347 0 0.451796)
(9.95239 0 0.604434)
(9.92624 0 0.761158)
(9.89545 0 0.923502)
(9.86043 0 1.09294)
(9.82159 0 1.2709)
(9.77945 0 1.45877)
(9.73455 0 1.65793)
(9.68751 0 1.86977)
(9.63903 0 2.09569)
(9.58988 0 2.33716)
(9.54097 0 2.59571)
(9.49335 0 2.873)
(9.44825 0 3.17083)
(9.40715 0 3.49121)
(9.37189 0 3.8364)
(9.34475 0 4.20899)
(9.32871 0 4.61194)
(9.32771 0 5.04867)
(9.34703 0 5.52303)
(9.39393 0 6.03913)
(9.47831 0 6.60097)
(9.61338 0 7.21133)
(9.81598 0 7.86989)
(10.1089 0 8.56961)
(10.5008 0 9.29586)
(11.0588 0 10.0385)
(11.8525 0 10.6845)
(9.99792 0 0.154938)
(9.99101 0 0.307975)
(9.97884 0 0.461322)
(9.96212 0 0.616984)
(9.94151 0 0.776625)
(9.91746 0 0.941754)
(9.89041 0 1.11381)
(9.86083 0 1.29416)
(9.8293 0 1.48416)
(9.79643 0 1.6851)
(9.76295 0 1.8983)
(9.72967 0 2.12504)
(9.69751 0 2.36668)
(9.66754 0 2.62458)
(9.64102 0 2.9002)
(9.61943 0 3.19507)
(9.60455 0 3.51084)
(9.59857 0 3.8493)
(9.60416 0 4.21236)
(9.62473 0 4.60208)
(9.66459 0 5.02056)
(9.72926 0 5.46982)
(9.82584 0 5.95147)
(9.96327 0 6.46623)
(10.1526 0 7.01302)
(10.407 0 7.58798)
(10.7437 0 8.183)
(11.1744 0 8.78339)
(11.7222 0 9.37758)
(12.4761 0 9.89065)
(9.99845 0 0.157512)
(9.9933 0 0.313065)
(9.98427 0 0.468842)
(9.97194 0 0.626819)
(9.9569 0 0.788628)
(9.93962 0 0.955736)
(9.92055 0 1.12953)
(9.90023 0 1.31133)
(9.87926 0 1.5024)
(9.85835 0 1.70396)
(9.83828 0 1.91721)
(9.81996 0 2.14332)
(9.80442 0 2.38348)
(9.79288 0 2.63886)
(9.78673 0 2.91067)
(9.78764 0 3.20012)
(9.79756 0 3.50848)
(9.81887 0 3.83698)
(9.85443 0 4.18684)
(9.90773 0 4.5592)
(9.98306 0 4.95495)
(10.0856 0 5.37458)
(10.2218 0 5.81782)
(10.3992 0 6.28322)
(10.6264 0 6.76753)
(10.9134 0 7.26498)
(11.2713 0 7.76635)
(11.7081 0 8.25607)
(12.2247 0 8.71745)
(12.9013 0 9.10894)
(9.99898 0 0.159381)
(9.9956 0 0.31675)
(9.98971 0 0.474243)
(9.98176 0 0.633793)
(9.97229 0 0.796986)
(9.96174 0 0.965237)
(9.9506 0 1.13987)
(9.93943 0 1.32214)
(9.92888 0 1.51321)
(9.9197 0 1.71422)
(9.91273 0 1.92623)
(9.90896 0 2.15028)
(9.90948 0 2.38735)
(9.9156 0 2.63843)
(9.9288 0 2.90443)
(9.95082 0 3.18625)
(9.9837 0 3.48471)
(10.0299 0 3.80053)
(10.0921 0 4.13427)
(10.1738 0 4.48623)
(10.2789 0 4.85632)
(10.4121 0 5.24382)
(10.5785 0 5.64718)
(10.7842 0 6.06358)
(11.0356 0 6.48853)
(11.3391 0 6.91535)
(11.7008 0 7.33468)
(12.125 0 7.73308)
(12.6054 0 8.09598)
(13.2115 0 8.40282)
(9.99951 0 0.160511)
(9.99789 0 0.318963)
(9.9951 0 0.477428)
(9.99151 0 0.637779)
(9.98753 0 0.801548)
(9.98362 0 0.970087)
(9.98027 0 1.14465)
(9.97807 0 1.32639)
(9.97769 0 1.51641)
(9.9799 0 1.7157)
(9.98559 0 1.92521)
(9.99576 0 2.1458)
(10.0116 0 2.37828)
(10.0343 0 2.6234)
(10.0656 0 2.88179)
(10.1071 0 3.15403)
(10.1608 0 3.44053)
(10.229 0 3.74151)
(10.3144 0 4.05697)
(10.4201 0 4.38653)
(10.5494 0 4.72933)
(10.7062 0 5.08385)
(10.8946 0 5.4477)
(11.119 0 5.81735)
(11.3836 0 6.1879)
(11.6922 0 6.5528)
(12.0478 0 6.90375)
(12.4517 0 7.23042)
(12.8965 0 7.52165)
(13.4401 0 7.76609)
(10 0 0.160876)
(10.0001 0 0.31965)
(10.0004 0 0.478317)
(10.0011 0 0.638678)
(10.0025 0 0.802197)
(10.0051 0 0.970154)
(10.0093 0 1.14372)
(10.0158 0 1.32397)
(10.0252 0 1.51187)
(10.0384 0 1.70832)
(10.0561 0 1.91411)
(10.0795 0 2.12994)
(10.1097 0 2.35643)
(10.1479 0 2.5941)
(10.1957 0 2.84332)
(10.2548 0 3.10435)
(10.3269 0 3.37724)
(10.4144 0 3.66181)
(10.5194 0 3.95757)
(10.6446 0 4.26364)
(10.7929 0 4.57864)
(10.9672 0 4.90055)
(11.1705 0 5.22656)
(11.4058 0 5.55298)
(11.6757 0 5.87505)
(11.9821 0 6.1869)
(12.3258 0 6.48166)
(12.7065 0 6.75148)
(13.1166 0 6.98801)
(13.6049 0 7.18437)
(10.0005 0 0.160452)
(10.0023 0 0.318768)
(10.0056 0 0.47685)
(10.0104 0 0.636414)
(10.0171 0 0.79885)
(10.0259 0 0.965355)
(10.0375 0 1.13701)
(10.0523 0 1.31479)
(10.0711 0 1.49957)
(10.0946 0 1.69209)
(10.1237 0 1.89302)
(10.1594 0 2.1029)
(10.2028 0 2.32215)
(10.2552 0 2.55107)
(10.3179 0 2.78981)
(10.3925 0 3.03834)
(10.4807 0 3.29641)
(10.5844 0 3.56351)
(10.7055 0 3.83881)
(10.8463 0 4.12107)
(11.0088 0 4.4086)
(11.1953 0 4.69916)
(11.4079 0 4.98985)
(11.6483 0 5.2771)
(11.9178 0 5.5566)
(12.2171 0 5.82338)
(12.5457 0 6.07188)
(12.9023 0 6.29622)
(13.2799 0 6.49032)
(13.7202 0 6.65003)
(10.001 0 0.159226)
(10.0044 0 0.316289)
(10.0106 0 0.472987)
(10.0194 0 0.630943)
(10.0311 0 0.79146)
(10.0459 0 0.955651)
(10.0645 0 1.1245)
(10.0872 0 1.29889)
(10.1148 0 1.47956)
(10.148 0 1.66714)
(10.1877 0 1.86216)
(10.2347 0 2.065)
(10.2902 0 2.27592)
(10.3553 0 2.49501)
(10.4312 0 2.72222)
(10.5193 0 2.95729)
(10.6211 0 3.19973)
(10.7382 0 3.44879)
(10.8722 0 3.7034)
(11.0247 0 3.96214)
(11.1974 0 4.22317)
(11.3918 0 4.4842)
(11.609 0 4.74246)
(11.8501 0 4.9947)
(12.1154 0 5.23718)
(12.4046 0 5.46582)
(12.7167 0 5.67626)
(13.0497 0 5.86415)
(13.3975 0 6.02524)
(13.7966 0 6.15701)
(10.0015 0 0.15719)
(10.0065 0 0.312199)
(10.0154 0 0.466711)
(10.028 0 0.622247)
(10.0445 0 0.780021)
(10.065 0 0.941051)
(10.0901 0 1.10623)
(10.1203 0 1.27632)
(10.1561 0 1.45197)
(10.1983 0 1.63369)
(10.2476 0 1.82185)
(10.3049 0 2.01671)
(10.3712 0 2.21837)
(10.4475 0 2.42676)
(10.5348 0 2.64165)
(10.6344 0 2.86261)
(10.7475 0 3.08897)
(10.8754 0 3.31982)
(11.0192 0 3.55397)
(11.1803 0 3.78991)
(11.3597 0 4.02579)
(11.5583 0 4.25943)
(11.7767 0 4.48829)
(12.0152 0 4.70952)
(12.2737 0 4.92)
(12.5512 0 5.11645)
(12.8463 0 5.29554)
(13.1571 0 5.4541)
(13.4782 0 5.58922)
(13.8419 0 5.69938)
(10.0019 0 0.154342)
(10.0084 0 0.306495)
(10.0199 0 0.458024)
(10.0361 0 0.61034)
(10.0571 0 0.76456)
(10.083 0 0.921609)
(10.1142 0 1.08228)
(10.1512 0 1.24724)
(10.1946 0 1.41703)
(10.245 0 1.59203)
(10.3031 0 1.77251)
(10.3696 0 1.95859)
(10.4454 0 2.15023)
(10.5313 0 2.34725)
(10.6284 0 2.54928)
(10.7375 0 2.75575)
(10.8597 0 2.96589)
(10.9958 0 3.1787)
(11.1469 0 3.39293)
(11.3137 0 3.6071)
(11.4969 0 3.81945)
(11.6969 0 4.02795)
(11.9139 0 4.23039)
(12.1477 0 4.42432)
(12.3976 0 4.60722)
(12.6627 0 4.77649)
(12.9413 0 4.92965)
(13.2314 0 5.06442)
(13.5285 0 5.17882)
(13.8617 0 5.27198)
(10.0024 0 0.150688)
(10.0102 0 0.299193)
(10.0241 0 0.446951)
(10.0438 0 0.595261)
(10.0689 0 0.745142)
(10.0997 0 0.897425)
(10.1366 0 1.05281)
(10.18 0 1.21186)
(10.2302 0 1.375)
(10.288 0 1.54254)
(10.3538 0 1.71461)
(10.4283 0 1.89125)
(10.5123 0 2.0723)
(10.6065 0 2.25748)
(10.7116 0 2.44631)
(10.8284 0 2.63815)
(10.9576 0 2.83218)
(11.1 0 3.02737)
(11.256 0 3.22249)
(11.4262 0 3.41611)
(11.6109 0 3.60663)
(11.8101 0 3.79226)
(12.0237 0 3.97107)
(12.2512 0 4.14106)
(12.4918 0 4.30018)
(12.7442 0 4.44646)
(13.0069 0 4.57804)
(13.2781 0 4.69331)
(13.5539 0 4.79095)
(13.8607 0 4.87053)
(10.0027 0 0.146242)
(10.0119 0 0.290317)
(10.0281 0 0.433535)
(10.0508 0 0.577078)
(10.0798 0 0.721865)
(10.1152 0 0.868636)
(10.1572 0 1.01799)
(10.2062 0 1.17041)
(10.2627 0 1.32623)
(10.3269 0 1.48564)
(10.3996 0 1.64872)
(10.4811 0 1.81539)
(10.572 0 1.98542)
(10.673 0 2.15844)
(10.7846 0 2.33394)
(10.9074 0 2.51123)
(11.0419 0 2.68946)
(11.1885 0 2.86763)
(11.3475 0 3.04457)
(11.5191 0 3.21898)
(11.7034 0 3.38941)
(11.9002 0 3.55431)
(12.1091 0 3.71208)
(12.3294 0 3.86107)
(12.5602 0 3.99968)
(12.8002 0 4.12641)
(13.048 0 4.2399)
(13.3019 0 4.33903)
(13.5587 0 4.42294)
(13.8424 0 4.49147)
(10.0031 0 0.141021)
(10.0134 0 0.279907)
(10.0317 0 0.417837)
(10.0573 0 0.55588)
(10.0898 0 0.694856)
(10.1293 0 0.835414)
(10.1759 0 0.97807)
(10.23 0 1.12321)
(10.2919 0 1.27109)
(10.3619 0 1.42183)
(10.4403 0 1.57542)
(10.5277 0 1.73171)
(10.6245 0 1.89043)
(10.731 0 2.05116)
(10.8477 0 2.21335)
(10.9749 0 2.3763)
(11.113 0 2.5392)
(11.2622 0 2.70108)
(11.4226 0 2.86088)
(11.5942 0 3.01741)
(11.7767 0 3.16944)
(11.9699 0 3.31563)
(12.1731 0 3.45467)
(12.3857 0 3.58525)
(12.6066 0 3.70611)
(12.8347 0 3.81613)
(13.0685 0 3.91433)
(13.3067 0 3.99996)
(13.5465 0 4.07246)
(13.8101 0 4.13183)
(10.0034 0 0.135048)