/*--------------------------------*- C++ -*----------------------------------*\
  =========                 |
  \\      /  F ield         | OpenFOAM: The Open Source CFD Toolbox
   \\    /   O peration     | Website:  https://openfoam.org
    \\  /    A nd           | Version:  dev
     \\/     M anipulation  |
\*---------------------------------------------------------------------------*/
FoamFile
{
    version     2.0;
    format      ascii;
    class       surfaceVectorField;
    location    "7.2";
    object      Uf;
}
// * * * * * * * * * * * * * * * * * * * * * * * * * * * * * * * * * * * * * //

dimensions      [0 1 -1 0 0 0 0];

internalField   nonuniform List<vector> 
5457
(
(9.92088 0 0.0251095)
(9.97125 0 0.0387457)
(9.82402 0 0.0328267)
(9.92859 0 0.048585)
(9.70961 0 0.039312)
(9.85548 0 0.058768)
(9.57544 0 0.0460115)
(9.7568 0 0.0705932)
(9.42138 0 0.0529489)
(9.63753 0 0.0830133)
(9.24755 0 0.0601663)
(9.49861 0 0.0959366)
(9.05362 0 0.0678111)
(9.3393 0 0.109613)
(8.83893 0 0.0760349)
(9.15874 0 0.124289)
(8.60252 0 0.0849708)
(8.9561 0 0.140168)
(8.34326 0 0.0947457)
(8.73038 0 0.157435)
(8.05984 0 0.105488)
(8.4804 0 0.176272)
(7.75079 0 0.117329)
(8.20477 0 0.19686)
(7.41455 0 0.130398)
(7.90194 0 0.219365)
(7.04948 0 0.144813)
(7.57029 0 0.243928)
(6.65401 0 0.160675)
(7.20817 0 0.270638)
(6.22669 0 0.178048)
(6.81397 0 0.299507)
(5.7664 0 0.196932)
(6.3863 0 0.330421)
(5.27254 0 0.217237)
(5.92414 0 0.363091)
(4.74533 0 0.23874)
(5.42707 0 0.396983)
(4.18616 0 0.261037)
(4.89561 0 0.431244)
(3.59792 0 0.283492)
(4.3316 0 0.464626)
(2.98551 0 0.305205)
(3.73856 0 0.49543)
(2.35607 0 0.325071)
(3.12223 0 0.521516)
(1.71906 0 0.342549)
(2.49102 0 0.540558)
(1.0843 0 0.361882)
(1.85581 0 0.551672)
(0.451793 0 0.348673)
(1.24544 0 0.563019)
(-0.145866 0 0.102448)
(0.608868 0 0.544866)
(-0.423631 0 -0.207098)
(0.0946485 0 0.259354)
(-0.40216 0 -0.361255)
(-0.133695 0 -0.0205326)
(-0.119681 0 -0.393891)
(9.99641 0 0.0516722)
(9.99705 0 0.0405044)
(9.95879 0 0.0708613)
(9.97851 0 0.0674541)
(9.89824 0 0.0879865)
(9.93377 0 0.0898696)
(9.81659 0 0.105984)
(9.86453 0 0.113554)
(9.71359 0 0.124921)
(9.77438 0 0.138514)
(9.58909 0 0.144854)
(9.66435 0 0.164646)
(9.44274 0 0.166091)
(9.53397 0 0.192332)
(9.2739 0 0.188968)
(9.3825 0 0.222032)
(9.08166 0 0.213785)
(9.20919 0 0.25415)
(8.8649 0 0.240818)
(9.01316 0 0.289067)
(8.62229 0 0.27034)
(8.79331 0 0.327157)
(8.35238 0 0.302612)
(8.54835 0 0.368792)
(8.05355 0 0.337863)
(8.27682 0 0.414323)
(7.7241 0 0.376269)
(7.97716 0 0.464055)
(7.36235 0 0.417911)
(7.6477 0 0.518199)
(6.96669 0 0.462717)
(7.2868 0 0.576818)
(6.5358 0 0.510397)
(6.89292 0 0.639739)
(6.06879 0 0.560343)
(6.46478 0 0.706442)
(5.56555 0 0.611531)
(6.00156 0 0.775923)
(5.02705 0 0.662394)
(5.50321 0 0.846537)
(4.45583 0 0.710716)
(4.97084 0 0.915818)
(3.85644 0 0.753545)
(4.40713 0 0.980316)
(3.23614 0 0.787198)
(3.81699 0 1.03546)
(2.60576 0 0.8075)
(3.2084 0 1.07549)
(1.98275 0 0.810463)
(2.59334 0 1.09314)
(1.40525 0 0.776887)
(1.99616 0 1.07707)
(0.929715 0 0.646385)
(1.41946 0 0.978391)
(0.439821 0 0.384317)
(0.937544 0 0.716778)
(0.059155 0 -0.118632)
(0.44376 0 0.3435)
(0.174914 0 -0.335952)
(9.98903 0 0.0594305)
(9.99481 0 0.0458772)
(9.95434 0 0.0894761)
(9.97368 0 0.0848537)
(9.89729 0 0.118031)
(9.92984 0 0.119173)
(9.82047 0 0.147898)
(9.86357 0 0.153976)
(9.72416 0 0.179422)
(9.77736 0 0.190408)
(9.60821 0 0.212775)
(9.67227 0 0.228637)
(9.47235 0 0.248393)
(9.5481 0 0.26913)
(9.31608 0 0.286776)
(9.40432 0 0.312498)
(9.13868 0 0.328399)
(9.24034 0 0.359328)
(8.93924 0 0.373725)
(9.05549 0 0.410177)
(8.71664 0 0.423211)
(8.84889 0 0.465603)
(8.46959 0 0.477302)
(8.61951 0 0.526159)
(8.19667 0 0.536406)
(8.36615 0 0.59238)
(7.89631 0 0.60085)
(8.08751 0 0.664747)
(7.5669 0 0.67082)
(7.78218 0 0.743628)
(7.20681 0 0.746267)
(7.44871 0 0.829201)
(6.81454 0 0.826793)
(7.08565 0 0.921332)
(6.38884 0 0.911495)
(6.69167 0 1.01942)
(5.92899 0 0.998769)
(6.26568 0 1.12219)
(5.4351 0 1.0861)
(5.80708 0 1.22744)
(4.9085 0 1.16983)
(5.31603 0 1.33176)
(4.35238 0 1.2449)
(4.79393 0 1.4302)
(3.77254 0 1.30455)
(4.24392 0 1.51588)
(3.17868 0 1.33984)
(3.67176 0 1.57943)
(2.58659 0 1.33811)
(3.08628 0 1.60774)
(2.01982 0 1.27296)
(2.50288 0 1.58157)
(1.48691 0 1.09539)
(1.9287 0 1.46423)
(0.958276 0 0.769147)
(1.38522 0 1.21038)
(0.479865 0 0.202421)
(0.829525 0 0.801007)
(0.433722 0 0.134046)
(9.98515 0 0.0716134)
(9.99367 0 0.0531475)
(9.95039 0 0.11363)
(9.97087 0 0.10229)
(9.89437 0 0.154132)
(9.92691 0 0.147953)
(9.81882 0 0.195572)
(9.86185 0 0.19372)
(9.72442 0 0.238811)
(9.77746 0 0.241277)
(9.61112 0 0.284324)
(9.67467 0 0.291163)
(9.47874 0 0.332721)
(9.55343 0 0.343956)
(9.32695 0 0.384676)
(9.41336 0 0.400373)
(9.15523 0 0.440849)
(9.254 0 0.461142)
(8.96291 0 0.501888)
(9.07484 0 0.526965)
(8.74916 0 0.568434)
(8.8752 0 0.598541)
(8.51303 0 0.641119)
(8.65429 0 0.67657)
(8.25345 0 0.72054)
(8.41122 0 0.76173)
(7.96924 0 0.807201)
(8.14498 0 0.854648)
(7.65916 0 0.90145)
(7.85453 0 0.955832)
(7.3219 0 1.00336)
(7.53873 0 1.06558)
(6.95618 0 1.11259)
(7.19643 0 1.18386)
(6.56081 0 1.22815)
(6.8265 0 1.3101)
(6.13485 0 1.34818)
(6.42785 0 1.44293)
(5.6778 0 1.46961)
(5.99962 0 1.57992)
(5.18995 0 1.58778)
(5.5413 0 1.7171)
(4.67282 0 1.69603)
(5.05301 0 1.84855)
(4.12975 0 1.78515)
(4.53591 0 1.96584)
(3.56661 0 1.84252)
(3.99268 0 2.0573)
(2.99201 0 1.85071)
(3.42755 0 2.10713)
(2.41581 0 1.78247)
(2.84759 0 2.09446)
(1.84051 0 1.60043)
(2.25619 0 1.98871)
(1.25937 0 1.27839)
(1.66029 0 1.753)
(0.666764 0 0.789499)
(1.02395 0 1.36772)
(0.523029 0 0.787101)
(9.98337 0 0.0844067)
(9.99316 0 0.0612908)
(9.94821 0 0.136836)
(9.96958 0 0.119926)
(9.89315 0 0.188031)
(9.92575 0 0.176239)
(9.81906 0 0.240168)
(9.86199 0 0.232696)
(9.72663 0 0.294466)
(9.77964 0 0.291086)
(9.6159 0 0.351658)
(9.6794 0 0.352273)
(9.48671 0 0.41247)
(9.56128 0 0.416977)
(9.33879 0 0.477677)
(9.42497 0 0.486009)
(9.17171 0 0.548053)
(9.27009 0 0.560206)
(8.98492 0 0.624358)
(9.0962 0 0.64039)
(8.77778 0 0.707349)
(8.90274 0 0.727372)
(8.54953 0 0.797772)
(8.68906 0 0.821963)
(8.29934 0 0.896336)
(8.45444 0 0.924951)
(8.02633 0 1.00366)
(8.19806 0 1.03707)
(7.72956 0 1.12022)
(7.9191 0 1.15893)
(7.40803 0 1.24618)
(7.61667 0 1.29094)
(7.06074 0 1.38129)
(7.28983 0 1.43317)
(6.68666 0 1.5246)
(6.9376 0 1.58512)
(6.28481 0 1.67421)
(6.55895 0 1.74552)
(5.85434 0 1.82681)
(6.15283 0 1.9119)
(5.39466 0 1.97727)
(5.71817 0 2.08018)
(4.9057 0 2.11806)
(5.25402 0 2.2441)
(4.3882 0 2.23861)
(4.75968 0 2.39461)
(3.84389 0 2.32454)
(4.23489 0 2.51919)
(3.27539 0 2.35693)
(3.67983 0 2.60122)
(2.68535 0 2.31056)
(3.09567 0 2.61968)
(2.07265 0 2.15497)
(2.48165 0 2.54728)
(1.42935 0 1.86735)
(1.83988 0 2.35367)
(0.742599 0 1.41951)
(1.13134 0 2.02446)
(0.543297 0 1.51443)
(9.98264 0 0.0974967)
(9.99299 0 0.0697921)
(9.94744 0 0.159773)
(9.96925 0 0.137582)
(9.89354 0 0.221346)
(9.92597 0 0.203925)
(9.82134 0 0.28409)
(9.86381 0 0.270686)
(9.73134 0 0.349346)
(9.78386 0 0.33958)
(9.62367 0 0.418017)
(9.68665 0 0.411695)
(9.49819 0 0.490937)
(9.57218 0 0.487901)
(9.35465 0 0.568974)
(9.44022 0 0.569104)
(9.19269 0 0.653006)
(9.29043 0 0.656235)
(9.01183 0 0.743901)
(9.12243 0 0.750217)
(8.81151 0 0.842522)
(8.93571 0 0.851962)
(8.59108 0 0.949718)
(8.72972 0 0.962374)
(8.34984 0 1.0663)
(8.50381 0 1.08233)
(8.08705 0 1.19298)
(8.25727 0 1.21266)
(7.8019 0 1.33032)
(7.98936 0 1.35406)
(7.49357 0 1.47862)
(7.69928 0 1.50705)
(7.16116 0 1.63771)
(7.38614 0 1.67179)
(6.80369 0 1.80677)
(7.049 0 1.84794)
(6.42007 0 1.984)
(6.68671 0 2.03439)
(6.00908 0 2.16616)
(6.29796 0 2.22886)
(5.56935 0 2.34813)
(5.88114 0 2.42751)
(5.0994 0 2.52222)
(5.43428 0 2.62428)
(4.59768 0 2.67757)
(4.95505 0 2.81031)
(4.06264 0 2.79949)
(4.44078 0 2.97322)
(3.49264 0 2.86909)
(3.88845 0 3.09661)
(2.88577 0 2.86288)
(3.29517 0 3.15987)
(2.23797 0 2.75388)
(2.65684 0 3.13786)
(1.54241 0 2.52097)
(1.9748 0 3.00313)
(0.793631 0 2.13127)
(1.20721 0 2.74052)
(0.556723 0 2.29174)
(9.9825 0 0.110625)
(9.99302 0 0.0783604)
(9.94771 0 0.182322)
(9.96954 0 0.155035)
(9.89523 0 0.253815)
(9.92722 0 0.230883)
(9.82524 0 0.326764)
(9.86697 0 0.307506)
(9.73813 0 0.402552)
(9.78978 0 0.386519)
(9.63404 0 0.482231)
(9.69606 0 0.469145)
(9.51286 0 0.566756)
(9.5858 0 0.556395)
(9.37438 0 0.657092)
(9.4588 0 0.649269)
(9.21828 0 0.754214)
(9.31481 0 0.748787)
(9.04414 0 0.859088)
(9.15347 0 0.855965)
(8.85145 0 0.972669)
(8.97434 0 0.971806)
(8.63962 0 1.09589)
(8.77691 0 1.09731)
(8.40802 0 1.22966)
(8.56058 0 1.23343)
(8.15594 0 1.37477)
(8.32469 0 1.38109)
(7.88263 0 1.53189)
(8.06852 0 1.5411)
(7.58725 0 1.70141)
(7.79124 0 1.71408)
(7.26887 0 1.88333)
(7.49194 0 1.90034)
(6.92639 0 2.07701)
(7.16951 0 2.09974)
(6.55847 0 2.28089)
(6.82262 0 2.31143)
(6.16342 0 2.49209)
(6.44954 0 2.53353)
(5.73907 0 2.70587)
(6.04804 0 2.76269)
(5.28267 0 2.91501)
(5.61518 0 2.9935)
(4.79076 0 3.10917)
(5.14717 0 3.21787)
(4.25922 0 3.2742)
(4.63931 0 3.42428)
(3.68332 0 3.39184)
(4.08598 0 3.59714)
(3.05798 0 3.43964)
(3.48124 0 3.7165)
(2.37768 0 3.39173)
(2.81829 0 3.75807)
(1.63787 0 3.22609)
(2.0991 0 3.6939)
(0.839109 0 2.90076)
(1.27888 0 3.50438)
(0.573342 0 3.1136)
(9.98273 0 0.12358)
(9.99316 0 0.0868162)
(9.94873 0 0.204307)
(9.97027 0 0.172091)
(9.89794 0 0.285249)
(9.92927 0 0.256972)
(9.83051 0 0.367962)
(9.87124 0 0.342984)
(9.74671 0 0.453848)
(9.79716 0 0.431674)
(9.64669 0 0.544074)
(9.70735 0 0.524347)
(9.53039 0 0.639705)
(9.60181 0 0.622132)
(9.39763 0 0.741799)
(9.48039 0 0.726123)
(9.24814 0 0.851416)
(9.34287 0 0.837424)
(9.08153 0 0.969611)
(9.18895 0 0.957134)
(8.89737 0 1.09743)
(9.01825 0 1.08635)
(8.6951 0 1.23589)
(8.8303 0 1.22615)
(8.47413 0 1.386)
(8.62455 0 1.37759)
(8.23376 0 1.54865)
(8.40037 0 1.5417)
(7.97322 0 1.72463)
(8.15701 0 1.7194)
(7.6916 0 1.91448)
(7.89363 0 1.91146)
(7.38783 0 2.11839)
(7.60918 0 2.1184)
(7.06059 0 2.336)
(7.3024 0 2.34033)
(6.70817 0 2.56616)
(6.97162 0 2.57681)
(6.32832 0 2.80653)
(6.61468 0 2.82648)
(5.91804 0 3.05308)
(6.22866 0 3.08675)
(5.47339 0 3.29956)
(5.80968 0 3.35321)
(4.98923 0 3.53667)
(5.35258 0 3.61901)
(4.45926 0 3.75141)
(4.85079 0 3.87401)
(3.87614 0 3.92644)
(4.29633 0 4.10393)
(3.23225 0 4.03981)
(3.68046 0 4.28965)
(2.52076 0 4.06491)
(2.99342 0 4.40671)
(1.73832 0 3.97603)
(2.2373 0 4.42448)
(0.889443 0 3.71864)
(1.36331 0 4.31617)
(0.598729 0 3.98475)
(9.98321 0 0.136201)
(9.99339 0 0.0950389)
(9.95032 0 0.225569)
(9.97131 0 0.188586)
(9.90151 0 0.315492)
(9.93193 0 0.282045)
(9.83694 0 0.407499)
(9.87643 0 0.376955)
(9.75684 0 0.503007)
(9.80579 0 0.474835)
(9.66136 0 0.603272)
(9.72031 0 0.577044)
(9.55047 0 0.709455)
(9.61996 0 0.68481)
(9.42404 0 0.822699)
(9.50466 0 0.799312)
(9.28185 0 0.944146)
(9.37423 0 0.921733)
(9.12357 0 1.07493)
(9.22844 0 1.05325)
(8.9488 0 1.2162)
(9.06697 0 1.19504)
(8.75706 0 1.36906)
(8.88939 0 1.34828)
(8.54777 0 1.5346)
(8.69521 0 1.51413)
(8.32025 0 1.71386)
(8.48383 0 1.69373)
(8.0737 0 1.90777)
(8.25451 0 1.88813)
(7.80713 0 2.11706)
(8.00636 0 2.0983)
(7.51931 0 2.3422)
(7.73825 0 2.32501)
(7.20866 0 2.5832)
(7.44871 0 2.56873)
(6.87307 0 2.83944)
(7.13582 0 2.8295)
(6.50973 0 3.10932)
(6.79698 0 3.10669)
(6.11483 0 3.38985)
(6.42863 0 3.39867)
(5.68325 0 3.67606)
(6.02598 0 3.70235)
(5.2083 0 3.96024)
(5.58261 0 4.01253)
(4.68156 0 4.23099)
(5.09012 0 4.32099)
(4.09308 0 4.47229)
(4.53806 0 4.61539)
(3.43231 0 4.66248)
(3.91447 0 4.87783)
(2.68995 0 4.77305)
(3.20546 0 5.0835)
(1.86171 0 4.77226)
(2.41108 0 5.19783)
(0.954103 0 4.58955)
(1.47614 0 5.18412)
(0.639129 0 4.91924)
(9.98386 0 0.148367)
(9.99368 0 0.102942)
(9.95235 0 0.245967)
(9.97261 0 0.204391)
(9.90579 0 0.344395)
(9.9351 0 0.305965)
(9.84438 0 0.445193)
(9.88241 0 0.409265)
(9.76833 0 0.549806)
(9.81552 0 0.51581)
(9.67781 0 0.659554)
(9.73472 0 0.627005)
(9.57282 0 0.775683)
(9.64 0 0.744152)
(9.45329 0 0.899415)
(9.53131 0 0.868512)
(9.31903 0 1.03197)
(9.40854 0 1.00133)
(9.16979 0 1.17456)
(9.27153 0 1.14387)
(9.00524 0 1.3284)
(9.12001 0 1.29739)
(8.82494 0 1.49472)
(8.95363 0 1.46313)
(8.62836 0 1.67472)
(8.77196 0 1.64238)
(8.41485 0 1.86957)
(8.57444 0 1.83638)
(8.18361 0 2.08036)
(8.36039 0 2.04638)
(7.9336 0 2.30809)
(8.1289 0 2.27353)
(7.66347 0 2.55355)
(7.8788 0 2.51892)
(7.37142 0 2.81723)
(7.60853 0 2.78345)
(7.05502 0 3.09917)
(7.31596 0 3.06775)
(6.71097 0 3.39871)
(6.99816 0 3.37203)
(6.33473 0 3.71414)
(6.65112 0 3.69585)
(5.92016 0 4.04215)
(6.26932 0 4.03773)
(5.45905 0 4.3771)
(5.84519 0 4.39458)
(4.94081 0 4.7099)
(5.36863 0 4.76076)
(4.35243 0 5.02651)
(4.8265 0 5.12675)
(3.67929 0 5.30611)
(4.20285 0 5.47702)
(2.90722 0 5.51803)
(3.47756 0 5.78736)
(2.02743 0 5.6228)
(2.64472 0 6.01931)
(1.04497 0 5.52919)
(1.63749 0 6.12365)
(0.704361 0 5.94272)
(9.98465 0 0.159979)
(9.99402 0 0.110461)
(9.95473 0 0.265378)
(9.97409 0 0.219397)
(9.91065 0 0.371815)
(9.93868 0 0.328607)
(9.85267 0 0.480878)
(9.88905 0 0.43977)
(9.78101 0 0.594039)
(9.82619 0 0.554427)
(9.69582 0 0.712675)
(9.75039 0 0.674018)
(9.59717 0 0.838103)
(9.66168 0 0.799911)
(9.48503 0 0.971612)
(9.56004 0 0.93343)
(9.35929 0 1.11449)
(9.44545 0 1.07589)
(9.21975 0 1.26803)
(9.31778 0 1.22861)
(9.06614 0 1.43353)
(9.17686 0 1.39292)
(8.89812 0 1.61229)
(9.02242 0 1.57016)
(8.71523 0 1.80565)
(8.85412 0 1.7617)
(8.51687 0 2.01492)
(8.67147 0 1.96892)
(8.30227 0 2.24139)
(8.47386 0 2.19324)
(8.0704 0 2.48635)
(8.26046 0 2.43605)
(7.81988 0 2.75095)
(8.03012 0 2.69876)
(7.54882 0 3.03625)
(7.78129 0 2.98274)
(7.25461 0 3.34305)
(7.51181 0 3.28929)
(6.93363 0 3.67178)
(7.21864 0 3.61957)
(6.58086 0 4.02225)
(6.89757 0 3.97449)
(6.18936 0 4.39322)
(6.54264 0 4.35444)
(5.74963 0 4.7817)
(6.14558 0 4.75891)
(5.24893 0 5.18179)
(5.6949 0 5.18565)
(4.67071 0 5.58283)
(5.17484 0 5.62929)
(3.99463 0 5.9665)
(4.56479 0 6.07882)
(3.19812 0 6.30157)
(3.83598 0 6.51351)
(2.2615 0 6.54042)
(2.97046 0 6.89385)
(1.18044 0 6.56473)
(1.87883 0 7.15747)
(0.812644 0 7.09889)
(9.98554 0 0.17096)
(9.9944 0 0.117544)
(9.95739 0 0.283694)
(9.97572 0 0.233515)
(9.91601 0 0.397629)
(9.94259 0 0.349863)
(9.8617 0 0.514405)
(9.89624 0 0.468344)
(9.79469 0 0.635527)
(9.83765 0 0.590532)
(9.71518 0 0.762421)
(9.76714 0 0.717901)
(9.62326 0 0.89646)
(9.68477 0 0.851867)
(9.51896 0 1.039)
(9.59057 0 0.993811)
(9.40223 0 1.19137)
(9.48458 0 1.1451)
(9.27296 0 1.35495)
(9.36676 0 1.30711)
(9.13096 0 1.53109)
(9.23701 0 1.48123)
(8.97598 0 1.7212)
(9.09517 0 1.66888)
(8.80765 0 1.92672)
(8.94099 0 1.87152)
(8.62548 0 2.1491)
(8.77411 0 2.09065)
(8.42878 0 2.38987)
(8.59403 0 2.32784)
(8.21662 0 2.65056)
(8.40004 0 2.58475)
(7.98769 0 2.93277)
(8.19115 0 2.86309)
(7.74017 0 3.23812)
(7.96595 0 3.16472)
(7.47146 0 3.56825)
(7.72242 0 3.49162)
(7.17795 0 3.92478)
(7.45772 0 3.84593)
(6.85448 0 4.30923)
(7.16778 0 4.22998)
(6.49379 0 4.72274)
(6.84678 0 4.64623)
(6.08561 0 5.16562)
(6.48638 0 5.09711)
(5.61549 0 5.63638)
(6.07455 0 5.58459)
(5.06336 0 6.12985)
(5.59381 0 6.10916)
(4.40191 0 6.63372)
(5.01929 0 6.6676)
(3.59576 0 7.12103)
(4.31215 0 7.24845)
(2.60395 0 7.54026)
(3.4352 0 7.81992)
(1.39404 0 7.73989)
(2.25601 0 8.31452)
(1.00236 0 8.46427)
(9.9865 0 0.181249)
(9.9948 0 0.124153)
(9.96027 0 0.300826)
(9.97747 0 0.246675)
(9.92177 0 0.421726)
(9.94676 0 0.369639)
(9.87134 0 0.545641)
(9.90388 0 0.494876)
(9.80924 0 0.674113)
(9.84978 0 0.623994)
(9.73569 0 0.808604)
(9.7848 0 0.758495)
(9.65082 0 0.950534)
(9.70904 0 0.899835)
(9.55473 0 1.1013)
(9.6226 0 1.04944)
(9.44745 0 1.26231)
(9.52557 0 1.20871)
(9.32893 0 1.43495)
(9.41801 0 1.37908)
(9.19911 0 1.62067)
(9.29991 0 1.56197)
(9.05782 0 1.82095)
(9.17122 0 1.75888)
(8.90483 0 2.03731)
(9.0318 0 1.97133)
(8.73978 0 2.27137)
(8.88145 0 2.20093)
(8.56213 0 2.52482)
(8.71984 0 2.44941)
(8.37113 0 2.79949)
(8.54645 0 2.71862)
(8.16566 0 3.09736)
(8.36053 0 3.01058)
(7.94415 0 3.42061)
(8.16096 0 3.32758)
(7.7043 0 3.77172)
(7.9461 0 3.67223)
(7.44282 0 4.15351)
(7.71359 0 4.04759)
(7.15496 0 4.56923)
(7.45997 0 4.45735)
(6.83386 0 5.02261)
(7.18024 0 4.906)
(6.46943 0 5.51778)
(6.86699 0 5.39905)
(6.04682 0 6.05885)
(6.50916 0 5.94321)
(5.54379 0 6.64883)
(6.0898 0 6.54635)
(4.92669 0 7.287)
(5.58275 0 7.21689)
(4.14452 0 7.96126)
(4.94199 0 7.96153)
(3.12122 0 8.63313)
(4.10863 0 8.77539)
(1.75583 0 9.12704)
(2.87773 0 9.62025)
(1.36426 0 10.184)
(9.98754 0 0.190795)
(9.99523 0 0.130257)
(9.96333 0 0.3167)
(9.97932 0 0.258818)
(9.92786 0 0.444013)
(9.95115 0 0.38786)
(9.88148 0 0.574479)
(9.91188 0 0.519275)
(9.82449 0 0.709668)
(9.86244 0 0.654702)
(9.75713 0 0.851074)
(9.80318 0 0.79567)
(9.6796 0 1.00015)
(9.73427 0 0.943662)
(9.59203 0 1.15834)
(9.65584 0 1.10013)
(9.49454 0 1.32706)
(9.56808 0 1.26652)
(9.38718 0 1.50778)
(9.4711 0 1.44427)
(9.26999 0 1.70196)
(9.36502 0 1.63486)
(9.14293 0 1.91115)
(9.2499 0 1.83981)
(9.00591 0 2.13696)
(9.12575 0 2.06072)
(8.85874 0 2.38111)
(8.99255 0 2.29927)
(8.70111 0 2.64547)
(8.85015 0 2.55729)
(8.53251 0 2.93207)
(8.69832 0 2.83679)
(8.35215 0 3.24325)
(8.53661 0 3.14005)
(8.15886 0 3.58169)
(8.36434 0 3.46969)
(7.95092 0 3.95056)
(8.18045 0 3.82881)
(7.72576 0 4.35376)
(7.98335 0 4.22123)
(7.47964 0 4.79615)
(7.77066 0 4.65175)
(7.20699 0 5.28389)
(7.53889 0 5.12656)
(6.89942 0 5.82498)
(7.28281 0 5.65388)
(6.54397 0 6.42976)
(6.99441 0 6.24484)
(6.11988 0 7.11163)
(6.66097 0 6.91493)
(5.59242 0 7.88771)
(6.2619 0 7.6864)
(4.9001 0 8.77779)
(5.75676 0 8.5927)
(3.92595 0 9.80103)
(5.08625 0 9.68497)
(2.4324 0 10.8555)
(3.97818 0 11.0485)
(2.14525 0 12.5664)
(9.98862 0 0.199558)
(9.99567 0 0.135832)
(9.96652 0 0.331254)
(9.98124 0 0.269899)
(9.9342 0 0.464409)
(9.95571 0 0.404462)
(9.89203 0 0.600809)
(9.92017 0 0.541464)
(9.84031 0 0.742053)
(9.87553 0 0.682569)
(9.77933 0 0.889656)
(9.82217 0 0.829324)
(9.70933 0 1.0451)
(9.7603 0 0.983228)
(9.63053 0 1.20984)
(9.69012 0 1.14575)
(9.5431 0 1.38533)
(9.61188 0 1.31836)
(9.4472 0 1.57305)
(9.5258 0 1.5025)
(9.34298 0 1.77451)
(9.43209 0 1.69968)
(9.23055 0 1.99128)
(9.33096 0 1.91143)
(9.10998 0 2.22503)
(9.22257 0 2.13938)
(8.98129 0 2.47756)
(9.10708 0 2.38526)
(8.84441 0 2.75084)
(8.9846 0 2.65096)
(8.69916 0 3.0471)
(8.8552 0 2.9386)
(8.54519 0 3.36888)
(8.71883 0 3.25058)
(8.38188 0 3.71922)
(8.57533 0 3.58975)
(8.20829 0 4.10184)
(8.42437 0 3.95952)
(8.02295 0 4.52139)
(8.26536 0 4.36417)
(7.82368 0 4.98391)
(8.0974 0 4.80915)
(7.60717 0 5.49745)
(7.91912 0 5.30171)
(7.36839 0 6.07305)
(7.72854 0 5.85172)
(7.09942 0 6.72636)
(7.52278 0 6.47309)
(6.78707 0 7.48057)
(7.29757 0 7.18639)
(6.40779 0 8.37238)
(7.04743 0 8.02402)
(5.91452 0 9.46616)
(6.7621 0 9.0424)
(5.19468 0 10.908)
(6.46051 0 10.3571)
(3.88279 0 13.177)
(6.1873 0 12.3031)
(5.2549 0 16.3693)
(0.190676 0 -0.11341)
(0.111848 0 -0.186756)
(0.371549 0 -0.0956763)
(0.271724 0 -0.17297)
(0.519313 0 -0.0720619)
(0.430482 0 -0.137971)
(0.632677 0 -0.050641)
(0.562998 0 -0.10335)
(0.715471 0 -0.0328901)
(0.66451 0 -0.0736977)
(0.772307 0 -0.0186786)
(0.738888 0 -0.049397)
(0.807634 0 -0.00758081)
(0.791288 0 -0.0299771)
(0.825603 0 0.000802388)
(0.826212 0 -0.0148884)
(0.830222 0 0.00666279)
(0.847396 0 -0.00373643)
(0.824613 0 0.0102229)
(0.857974 0 0.00443044)
(0.812137 0 0.0120544)
(0.860784 0 0.00962157)
(0.795468 0 0.0127012)
(0.857839 0 0.0125512)
(0.776724 0 0.012497)
(0.851429 0 0.013781)
(0.757523 0 0.0117236)
(0.843435 0 0.0137833)
(0.739054 0 0.0106148)
(0.835221 0 0.0129447)
(0.722106 0 0.00936522)
(0.827732 0 0.0115984)
(0.707136 0 0.00812051)
(0.821545 0 0.0100024)
(0.694324 0 0.00697636)
(0.816932 0 0.00835881)
(0.683588 0 0.0059739)
(0.813892 0 0.0068384)
(0.674746 0 0.00511949)
(0.812252 0 0.00549955)
(0.667528 0 0.00440419)
(0.811756 0 0.00438299)
(0.661715 0 0.00384977)
(0.812223 0 0.00344668)
(0.656868 0 0.00349589)
(0.813483 0 0.00280615)
(0.652495 0 0.00335394)
(0.815174 0 0.00247156)
(0.647978 0 0.00340559)
(0.816836 0 0.00249285)
(0.642709 0 0.00357436)
(0.817922 0 0.00283899)
(0.636225 0 0.00375087)
(0.817859 0 0.00341161)
(0.62847 0 0.003782)
(0.816318 0 0.003984)
(0.620085 0 0.00331992)
(0.813519 0 0.00420555)
(0.809752 0 0.00334775)
(0.176254 0 -0.271017)
(0.0933174 0 -0.359386)
(0.345248 0 -0.236161)
(0.241399 0 -0.334579)
(0.486855 0 -0.185234)
(0.380693 0 -0.270191)
(0.600172 0 -0.138085)
(0.498591 0 -0.206658)
(0.68883 0 -0.0985944)
(0.591448 0 -0.152615)
(0.756933 0 -0.0666645)
(0.662938 0 -0.108586)
(0.808306 0 -0.0414326)
(0.717283 0 -0.0735711)
(0.846317 0 -0.0219843)
(0.758089 0 -0.0463823)
(0.8736 0 -0.00751165)
(0.788315 0 -0.025808)
(0.892618 0 0.00277528)
(0.810418 0 -0.0105909)
(0.905367 0 0.00953094)
(0.826433 0 -0.000210973)
(0.912926 0 0.0133515)
(0.838197 0 0.00685962)
(0.917557 0 0.0149457)
(0.846988 0 0.010376)
(0.920767 0 0.0149297)
(0.853808 0 0.011479)
(0.923695 0 0.0138084)
(0.859711 0 0.0108925)
(0.927074 0 0.0120115)
(0.865381 0 0.00928617)
(0.931302 0 0.00990837)
(0.871187 0 0.00717743)
(0.936514 0 0.00782544)
(0.877257 0 0.00495853)
(0.942558 0 0.00596471)
(0.883568 0 0.00298821)
(0.949255 0 0.00438555)
(0.890186 0 0.0013346)
(0.95636 0 0.00314622)
(0.897142 0 6.84815e-05)
(0.96396 0 0.00224396)
(0.904422 0 -0.00105933)
(0.971811 0 0.00167893)
(0.911995 0 -0.00173909)
(0.979636 0 0.00156042)
(0.919759 0 -0.00195117)
(0.986943 0 0.00197818)
(0.927502 0 -0.00154009)
(0.9932 0 0.00285872)
(0.934896 0 -0.00053223)
(0.997956 0 0.00389382)
(0.941592 0 0.000908996)
(1.00119 0 0.00463805)
(0.947369 0 0.00232325)
(1.0035 0 0.00455735)
(0.952171 0 0.0030445)
(0.956682 0 0.00286409)
(0.149114 0 -0.429434)
(0.0729914 0 -0.505434)
(0.287826 0 -0.375575)
(0.197374 0 -0.46723)
(0.402518 0 -0.298111)
(0.30358 0 -0.377281)
(0.494181 0 -0.226743)
(0.394055 0 -0.290225)
(0.566359 0 -0.167119)
(0.464782 0 -0.216863)
(0.622443 0 -0.119009)
(0.519754 0 -0.157329)
(0.665545 0 -0.081123)
(0.562077 0 -0.110147)
(0.6984 0 -0.0520118)
(0.594357 0 -0.0736044)
(0.723356 0 -0.0302189)
(0.618838 0 -0.0459961)
(0.742643 0 -0.0144391)
(0.63749 0 -0.0258257)
(0.75797 0 -0.00368117)
(0.651846 0 -0.0120312)
(0.771197 0 0.00295491)
(0.663817 0 -0.00310033)
(0.782525 0 0.00637923)
(0.674159 0 0.00204751)
(0.792272 0 0.00738104)
(0.68331 0 0.00448235)
(0.801077 0 0.00669991)
(0.691397 0 0.00472089)
(0.809298 0 0.00504242)
(0.698611 0 0.00366076)
(0.817004 0 0.00299093)
(0.705104 0 0.00202833)
(0.824273 0 0.000894126)
(0.71097 0 0.000216378)
(0.831126 0 -0.00103342)
(0.716239 0 -0.00137738)
(0.837961 0 -0.00265097)
(0.720997 0 -0.00291647)
(0.845053 0 -0.00388481)
(0.725431 0 -0.00423783)
(0.852318 0 -0.00473328)
(0.729663 0 -0.00536674)
(0.859881 0 -0.00517013)
(0.73378 0 -0.00611769)
(0.867686 0 -0.00503306)
(0.737925 0 -0.00636269)
(0.8756 0 -0.00419136)
(0.742145 0 -0.00590797)
(0.883379 0 -0.00272566)
(0.746375 0 -0.00472382)
(0.890927 0 -0.000979007)
(0.750506 0 -0.00306205)
(0.898126 0 0.000592108)
(0.754378 0 -0.00137475)
(0.904689 0 0.00156465)
(0.757715 0 -0.000247473)
(0.760499 0 0.000873811)
(0.119197 0 -0.552848)
(0.0525566 0 -0.622181)
(0.221966 0 -0.478958)
(0.147397 0 -0.565509)
(0.303576 0 -0.379232)
(0.214077 0 -0.453482)
(0.368154 0 -0.289301)
(0.273353 0 -0.349098)
(0.419022 0 -0.214801)
(0.317745 0 -0.262143)
(0.458682 0 -0.154876)
(0.352624 0 -0.191798)
(0.489389 0 -0.107763)
(0.379647 0 -0.136205)
(0.513033 0 -0.0715629)
(0.400327 0 -0.0931939)
(0.531141 0 -0.0445172)
(0.41603 0 -0.0606451)
(0.545061 0 -0.0252514)
(0.427913 0 -0.0368207)
(0.556089 0 -0.0124413)
(0.436913 0 -0.0205359)
(0.565563 0 -0.00459173)
(0.44399 0 -0.0102348)
(0.574132 0 -0.000360427)
(0.450015 0 -0.00425195)
(0.581868 0 0.00135527)
(0.455451 0 -0.00107146)
(0.588559 0 0.00141727)
(0.459824 0 3.15022e-05)
(0.594245 0 0.00050393)
(0.462896 0 -0.000230765)
(0.599028 0 -0.000840666)
(0.464686 0 -0.00116725)
(0.602963 0 -0.002306)
(0.465231 0 -0.00235074)
(0.606124 0 -0.00372283)
(0.464506 0 -0.00339076)
(0.60837 0 -0.00495849)
(0.462502 0 -0.00431346)
(0.609915 0 -0.00599597)
(0.459351 0 -0.00517633)
(0.610955 0 -0.00680473)
(0.455235 0 -0.00598301)
(0.61178 0 -0.00724768)
(0.450445 0 -0.00659573)
(0.612551 0 -0.00711348)
(0.445289 0 -0.00679809)
(0.613268 0 -0.0062834)
(0.439968 0 -0.00630388)
(0.613734 0 -0.0049582)
(0.43467 0 -0.00497496)
(0.613879 0 -0.00361632)
(0.428462 0 -0.0031384)
(0.613707 0 -0.00250803)
(0.420893 0 -0.00128627)
(0.612794 0 -0.0012491)
(0.412349 0 0.000210397)
(0.403444 0 0.00142166)
(0.0843341 0 -0.642884)
(0.0309973 0 -0.704781)
(0.1468 0 -0.548452)
(0.0906723 0 -0.625245)
(0.191541 0 -0.431621)
(0.112772 0 -0.495257)
(0.225801 0 -0.329525)
(0.138416 0 -0.380332)
(0.252368 0 -0.245785)
(0.153189 0 -0.285791)
(0.272959 0 -0.178724)
(0.165125 0 -0.209694)
(0.28898 0 -0.12615)
(0.174016 0 -0.1498)
(0.301417 0 -0.0857617)
(0.180484 0 -0.103499)
(0.310847 0 -0.0555258)
(0.185023 0 -0.0682732)
(0.317665 0 -0.0339339)
(0.187985 0 -0.0422059)
(0.322757 0 -0.0193368)
(0.189572 0 -0.0244632)
(0.326942 0 -0.00991482)
(0.189711 0 -0.0133858)
(0.330369 0 -0.0045593)
(0.18877 0 -0.00677208)
(0.332805 0 -0.00225343)
(0.1861 0 -0.00281968)
(0.333779 0 -0.00175747)
(0.180849 0 -0.000651609)
(0.333218 0 -0.00214284)
(0.1739 0 0.000153437)
(0.331019 0 -0.0028201)
(0.165102 0 0.000302227)
(0.326975 0 -0.00354927)
(0.154494 0 0.000287439)
(0.321114 0 -0.00434945)
(0.141729 0 0.000342677)
(0.31358 0 -0.00523411)
(0.126825 0 0.000372446)
(0.304594 0 -0.00608367)
(0.110084 0 0.000280441)
(0.294505 0 -0.00670496)
(0.0921007 0 -1.12794e-06)
(0.283859 0 -0.00697136)
(0.0737377 0 -0.000432734)
(0.273096 0 -0.00671243)
(0.055782 0 -0.000714615)
(0.262264 0 -0.00548305)
(0.0386201 0 -0.000326119)
(0.250119 0 -0.00307513)
(0.0231003 0 0.00156964)
(0.235256 0 -0.000301656)
(0.010081 0 0.00468128)
(0.218769 0 0.00181798)
(-0.00239296 0 0.00718325)
(0.203385 0 0.00312832)
(-0.0161005 0 0.00792642)
(-0.0290586 0 0.00684477)
(0.0442409 0 -0.694374)
(0.00718317 0 -0.748112)
(0.0618658 0 -0.57948)
(0.025982 0 -0.6421)
(0.0669059 0 -0.450763)
(0.000684352 0 -0.499963)
(0.0683087 0 -0.342423)
(-0.0106041 0 -0.381611)
(0.0673906 0 -0.254382)
(-0.0285425 0 -0.284973)
(0.0655794 0 -0.184475)
(-0.043621 0 -0.20812)
(0.0637444 0 -0.130075)
(-0.0573108 0 -0.148242)
(0.0620386 0 -0.0883923)
(-0.0695639 0 -0.102085)
(0.059986 0 -0.0570056)
(-0.080696 0 -0.0666127)
(0.0570752 0 -0.0347997)
(-0.0911898 0 -0.0399067)
(0.0541121 0 -0.0210767)
(-0.102861 0 -0.022178)
(0.0499743 0 -0.0128723)
(-0.121361 0 -0.0102699)
(0.0430768 0 -0.00672857)
(-0.140341 0 -0.00170099)
(0.0333347 0 -0.00191232)
(-0.158227 0 0.00417368)
(0.0207159 0 0.00107784)
(-0.176428 0 0.00819284)
(0.00585396 0 0.0025791)
(-0.195089 0 0.0103241)
(-0.0109799 0 0.00344224)
(-0.214494 0 0.0115502)
(-0.030118 0 0.00427776)
(-0.234352 0 0.0127731)
(-0.0519305 0 0.00524905)
(-0.254808 0 0.014237)
(-0.076304 0 0.00612673)
(-0.276045 0 0.0155313)
(-0.102387 0 0.00660274)
(-0.298227 0 0.0161195)
(-0.128861 0 0.00659646)
(-0.321171 0 0.0156954)
(-0.154486 0 0.00625209)
(-0.344108 0 0.014402)
(-0.178248 0 0.00601027)
(-0.366025 0 0.0127164)
(-0.199101 0 0.00670682)
(-0.3862 0 0.0111822)
(-0.215542 0 0.00868176)
(-0.403553 0 0.0104292)
(-0.227918 0 0.0110142)
(-0.415924 0 0.0111923)
(-0.238399 0 0.0120982)
(-0.42522 0 0.0125673)
(-0.247871 0 0.0109325)
(-0.434413 0 0.0126772)
(-0.441673 0 0.0108814)
(-0.00469136 0 -0.700605)
(-0.0212644 0 -0.743517)
(-0.0329917 0 -0.566643)
(-0.0484327 0 -0.615036)
(-0.0692389 0 -0.432163)
(-0.121226 0 -0.466119)
(-0.104675 0 -0.324056)
(-0.17456 0 -0.349305)
(-0.137667 0 -0.237863)
(-0.228685 0 -0.255606)
(-0.166987 0 -0.171096)
(-0.276262 0 -0.182638)
(-0.19232 0 -0.12036)
(-0.318849 0 -0.126745)
(-0.214124 0 -0.0818867)
(-0.357076 0 -0.0840197)
(-0.23367 0 -0.0517697)
(-0.391748 0 -0.0507999)
(-0.25435 0 -0.0272321)
(-0.423716 0 -0.0235727)
(-0.281478 0 -0.0085395)
(-0.452365 0 -0.00125679)
(-0.312794 0 0.00331499)
(-0.480781 0 0.0133113)
(-0.342309 0 0.0103826)
(-0.508408 0 0.019999)
(-0.368638 0 0.0150102)
(-0.533365 0 0.0230741)
(-0.392481 0 0.01776)
(-0.556342 0 0.0249041)
(-0.415236 0 0.0192951)
(-0.578611 0 0.0258958)
(-0.437253 0 0.0204337)
(-0.600329 0 0.0262618)
(-0.458293 0 0.0216496)
(-0.621155 0 0.0264991)
(-0.478299 0 0.0228797)
(-0.640782 0 0.0269809)
(-0.497699 0 0.0236421)
(-0.659332 0 0.0275972)
(-0.517025 0 0.0234531)
(-0.677379 0 0.0278554)
(-0.536468 0 0.0221663)
(-0.695491 0 0.0272229)
(-0.555599 0 0.0200317)
(-0.713637 0 0.0254774)
(-0.573531 0 0.0175205)
(-0.731162 0 0.0228523)
(-0.589427 0 0.0152747)
(-0.747216 0 0.0199548)
(-0.602854 0 0.0140632)
(-0.761019 0 0.0176645)
(-0.613444 0 0.0140802)
(-0.771899 0 0.0167639)
(-0.621563 0 0.0142172)
(-0.780315 0 0.016738)
(-0.628361 0 0.0133017)
(-0.787275 0 0.0160871)
(-0.791624 0 0.0145256)
(-0.055168 0 -0.656376)
(-0.0561017 0 -0.689483)
(-0.135837 0 -0.509651)
(-0.132074 0 -0.537892)
(-0.217327 0 -0.376678)
(-0.254108 0 -0.39003)
(-0.294819 0 -0.273799)
(-0.353781 0 -0.278658)
(-0.365241 0 -0.193747)
(-0.446522 0 -0.192921)
(-0.428311 0 -0.13224)
(-0.52768 0 -0.127823)
(-0.484803 0 -0.0848542)
(-0.598459 0 -0.0788068)
(-0.536119 0 -0.0476559)
(-0.660096 0 -0.0415026)
(-0.583132 0 -0.0181808)
(-0.712055 0 -0.0127673)
(-0.623517 0 0.00421957)
(-0.75467 0 0.00832554)
(-0.654087 0 0.0191548)
(-0.788435 0 0.0223194)
(-0.677552 0 0.0272301)
(-0.813614 0 0.0309807)
(-0.699459 0 0.0308379)
(-0.836668 0 0.0361052)
(-0.721231 0 0.032465)
(-0.85866 0 0.038703)
(-0.74263 0 0.0332343)
(-0.879854 0 0.0399028)
(-0.763508 0 0.0333454)
(-0.900489 0 0.040183)
(-0.783776 0 0.0330724)
(-0.920594 0 0.0398046)
(-0.803186 0 0.0328306)
(-0.939912 0 0.0391618)
(-0.821533 0 0.0328422)
(-0.958124 0 0.0386677)
(-0.838954 0 0.0329259)
(-0.975214 0 0.0384322)
(-0.855861 0 0.0325839)
(-0.991584 0 0.0381222)
(-0.872573 0 0.0313207)
(-1.00773 0 0.0371315)
(-0.888955 0 0.0289774)
(-1.02376 0 0.0349613)
(-0.904389 0 0.025875)
(-1.03921 0 0.031576)
(-0.918145 0 0.0227529)
(-1.05328 0 0.0275466)
(-0.929726 0 0.0204421)
(-1.06521 0 0.0239046)
(-0.938772 0 0.0191583)
(-1.07463 0 0.0215232)
(-0.94554 0 0.0181886)
(-1.08196 0 0.0202151)
(-0.951313 0 0.0169147)
(-1.08768 0 0.0189824)
(-1.09074 0 0.0176982)