/*--------------------------------*- C++ -*----------------------------------*\
  =========                 |
  \\      /  F ield         | OpenFOAM: The Open Source CFD Toolbox
   \\    /   O peration     | Website:  https://openfoam.org
    \\  /    A nd           | Version:  dev
     \\/     M anipulation  |
\*---------------------------------------------------------------------------*/
FoamFile
{
    version     2.0;
    format      ascii;
    class       volVectorField;
    location    "7.5";
    object      U;
}
// * * * * * * * * * * * * * * * * * * * * * * * * * * * * * * * * * * * * * //

dimensions      [0 1 -1 0 0 0 0];

internalField   nonuniform List<vector> 
2790
(
(9.94399 0 0.0205232)
(9.87572 0 0.0295877)
(9.77521 0 0.0359895)
(9.64944 0 0.0425562)
(9.50409 0 0.0493855)
(9.34007 0 0.0564286)
(9.15655 0 0.0638163)
(8.95262 0 0.0717122)
(8.72746 0 0.0802562)
(8.48008 0 0.0895749)
(8.20927 0 0.0997953)
(7.91364 0 0.111048)
(7.59167 0 0.123464)
(7.24176 0 0.137169)
(6.8623 0 0.152278)
(6.45175 0 0.168876)
(6.00883 0 0.187004)
(5.53262 0 0.206627)
(5.0229 0 0.227599)
(4.48037 0 0.24962)
(3.90707 0 0.272185)
(3.30674 0 0.294533)
(2.68519 0 0.315626)
(2.05053 0 0.334293)
(1.41171 0 0.350609)
(0.797961 0 0.372888)
(0.110603 0 0.32502)
(-0.469569 0 -0.11488)
(-0.45379 0 -0.297138)
(-0.231164 0 -0.423853)
(9.9985 0 0.040703)
(9.98145 0 0.0623827)
(9.93574 0 0.0791401)
(9.86416 0 0.0966248)
(9.77097 0 0.115124)
(9.65715 0 0.134489)
(9.52206 0 0.154976)
(9.36485 0 0.176945)
(9.18472 0 0.20071)
(8.98067 0 0.226553)
(8.75152 0 0.254749)
(8.49588 0 0.285567)
(8.21219 0 0.319257)
(7.8988 0 0.356033)
(7.55401 0 0.396032)
(7.17616 0 0.439277)
(6.76374 0 0.485608)
(6.31561 0 0.534603)
(5.83119 0 0.585479)
(5.31081 0 0.63697)
(4.75608 0 0.687219)
(4.17033 0 0.733659)
(3.55921 0 0.772961)
(2.93147 0 0.801097)
(2.29987 0 0.813748)
(1.69288 0 0.807249)
(1.10709 0 0.747234)
(0.658854 0 0.547906)
(0.18638 0 0.224575)
(-0.00819874 0 -0.453748)
(9.99559 0 0.0432069)
(9.97556 0 0.0752716)
(9.9318 0 0.103346)
(9.8649 0 0.132371)
(9.77778 0 0.16306)
(9.67155 0 0.195399)
(9.54588 0 0.229744)
(9.40014 0 0.266605)
(9.23365 0 0.306473)
(9.04563 0 0.349812)
(8.83508 0 0.397078)
(8.6008 0 0.44873)
(8.34144 0 0.505203)
(8.05548 0 0.566877)
(7.74135 0 0.634027)
(7.39741 0 0.706749)
(7.02207 0 0.784857)
(6.61391 0 0.867745)
(6.17188 0 0.954216)
(5.69557 0 1.04227)
(5.18556 0 1.1289)
(4.64388 0 1.2098)
(4.07471 0 1.27917)
(3.48529 0 1.32933)
(2.88677 0 1.35008)
(2.2994 0 1.32642)
(1.73179 0 1.22075)
(1.21621 0 0.972975)
(0.701114 0 0.570111)
(0.358021 0 -0.156611)
(9.99403 0 0.0494992)
(9.97181 0 0.0932061)
(9.92788 0 0.133572)
(9.86225 0 0.174209)
(9.77693 0 0.216434)
(9.67298 0 0.260662)
(9.55032 0 0.307431)
(9.40849 0 0.357418)
(9.24702 0 0.411295)
(9.06533 0 0.469711)
(8.86268 0 0.53331)
(8.63819 0 0.602734)
(8.39084 0 0.678606)
(8.1195 0 0.761491)
(7.82298 0 0.85184)
(7.49998 0 0.949897)
(7.14921 0 1.05557)
(6.7694 0 1.16826)
(6.35944 0 1.28663)
(5.91854 0 1.40829)
(5.44646 0 1.52949)
(4.94393 0 1.6447)
(4.41309 0 1.74615)
(3.85819 0 1.82322)
(3.28574 0 1.86136)
(2.70633 0 1.8403)
(2.12559 0 1.72597)
(1.55421 0 1.47782)
(0.95792 0 1.08364)
(0.509415 0 0.50227)
(9.99331 0 0.0572135)
(9.96994 0 0.110959)
(9.92593 0 0.162104)
(9.86146 0 0.213348)
(9.77799 0 0.266357)
(9.67635 0 0.321915)
(9.55654 0 0.380704)
(9.41822 0 0.443491)
(9.26097 0 0.511061)
(9.08433 0 0.584177)
(8.8877 0 0.663597)
(8.67038 0 0.750076)
(8.43158 0 0.84435)
(8.17044 0 0.947103)
(7.88605 0 1.0589)
(7.57745 0 1.1801)
(7.24363 0 1.31071)
(6.88356 0 1.45021)
(6.49623 0 1.59725)
(6.08067 0 1.74935)
(5.63609 0 1.90244)
(5.16204 0 2.05033)
(4.65869 0 2.18418)
(4.12713 0 2.29174)
(3.56932 0 2.35655)
(2.98881 0 2.35729)
(2.38677 0 2.26491)
(1.76634 0 2.04759)
(1.08996 0 1.69133)
(0.536637 0 1.15407)
(9.99302 0 0.0655385)
(9.96923 0 0.128701)
(9.92556 0 0.190113)
(9.86253 0 0.251843)
(9.78129 0 0.315579)
(9.68244 0 0.38232)
(9.56601 0 0.452877)
(9.43171 0 0.528105)
(9.2792 0 0.608886)
(9.10806 0 0.696092)
(8.91777 0 0.79059)
(8.70773 0 0.893238)
(8.47727 0 1.00487)
(8.22566 0 1.12628)
(7.95213 0 1.25811)
(7.65586 0 1.40084)
(7.33599 0 1.55457)
(6.99159 0 1.7189)
(6.62163 0 1.89259)
(6.22494 0 2.07326)
(5.80021 0 2.25688)
(5.34596 0 2.43722)
(4.86062 0 2.60521)
(4.34261 0 2.74822)
(3.7903 0 2.84953)
(3.20248 0 2.88816)
(2.57649 0 2.83817)
(1.9134 0 2.67154)
(1.17271 0 2.37391)
(0.549948 0 1.8943)
(9.99297 0 0.0740746)
(9.96927 0 0.146313)
(9.92637 0 0.217483)
(9.86509 0 0.289292)
(9.78643 0 0.363355)
(9.69085 0 0.440828)
(9.57835 0 0.522662)
(9.44872 0 0.609815)
(9.30165 0 0.703261)
(9.13678 0 0.803974)
(8.95364 0 0.912912)
(8.7517 0 1.03103)
(8.53033 0 1.15924)
(8.28886 0 1.29842)
(8.02657 0 1.44933)
(7.74266 0 1.61251)
(7.43626 0 1.78822)
(7.10636 0 1.9762)
(6.75175 0 2.17545)
(6.37094 0 2.38386)
(5.96202 0 2.59778)
(5.52255 0 2.81141)
(5.04943 0 3.01617)
(4.5389 0 3.19997)
(3.98655 0 3.34666)
(3.3878 0 3.43592)
(2.73715 0 3.44324)
(2.03616 0 3.3414)
(1.24169 0 3.11345)
(0.563489 0 2.69302)
(9.99306 0 0.0825877)
(9.96981 0 0.163605)
(9.92807 0 0.244049)
(9.86885 0 0.325479)
(9.79313 0 0.409446)
(9.70126 0 0.497207)
(9.59323 0 0.589841)
(9.46888 0 0.6884)
(9.32796 0 0.793946)
(9.17015 0 0.907539)
(8.99502 0 1.03023)
(8.8021 0 1.16305)
(8.59081 0 1.30703)
(8.3605 0 1.46312)
(8.11043 0 1.63218)
(7.83978 0 1.81491)
(7.54758 0 2.01171)
(7.23263 0 2.22256)
(6.89345 0 2.44678)
(6.5281 0 2.68274)
(6.13401 0 2.9274)
(5.70775 0 3.17581)
(5.24486 0 3.42039)
(4.73966 0 3.6502)
(4.18535 0 3.85022)
(3.57462 0 4.00084)
(2.89939 0 4.07782)
(2.162 0 4.05226)
(1.31605 0 3.90154)
(0.583185 0 3.53998)
(9.99326 0 0.0909278)
(9.97072 0 0.180408)
(9.93046 0 0.269666)
(9.87362 0 0.36024)
(9.80118 0 0.453646)
(9.71344 0 0.55121)
(9.61038 0 0.654113)
(9.49189 0 0.763499)
(9.35776 0 0.880511)
(9.20774 0 1.00629)
(9.04146 0 1.14197)
(8.85848 0 1.28869)
(8.65827 0 1.44754)
(8.44021 0 1.61962)
(8.20356 0 1.8059)
(7.94744 0 2.00725)
(7.67076 0 2.2243)
(7.37212 0 2.45733)
(7.04974 0 2.70611)
(6.7012 0 2.96963)
(6.32326 0 3.24572)
(5.91154 0 3.53059)
(5.46024 0 3.81811)
(4.96186 0 4.099)
(4.40725 0 4.35985)
(3.78623 0 4.58205)
(3.0874 0 4.74097)
(2.31256 0 4.8043)
(1.41054 0 4.74088)
(0.614259 0 4.44169)
(9.99352 0 0.0989915)
(9.97191 0 0.196578)
(9.93341 0 0.294193)
(9.87924 0 0.393415)
(9.81041 0 0.495754)
(9.72717 0 0.602588)
(9.62954 0 0.715183)
(9.51742 0 0.834764)
(9.39069 0 0.96255)
(9.24914 0 1.09976)
(9.09246 0 1.2476)
(8.92029 0 1.40731)
(8.73213 0 1.58009)
(8.52742 0 1.76714)
(8.30543 0 1.9696)
(8.06525 0 2.18853)
(7.8057 0 2.42485)
(7.52526 0 2.67923)
(7.22186 0 2.95199)
(6.8927 0 3.2429)
(6.53394 0 3.55087)
(6.14036 0 3.87356)
(5.70491 0 4.20676)
(5.21831 0 4.54342)
(4.66879 0 4.87243)
(4.04264 0 5.17692)
(3.32346 0 5.43219)
(2.50955 0 5.60177)
(1.54171 0 5.64323)
(0.663982 0 5.41772)
(9.99384 0 0.106703)
(9.9733 0 0.211998)
(9.9368 0 0.3175)
(9.88558 0 0.424853)
(9.82064 0 0.535586)
(9.74226 0 0.651119)
(9.65045 0 0.772787)
(9.54519 0 0.901887)
(9.42639 0 1.0397)
(9.29391 0 1.18753)
(9.14754 0 1.34665)
(8.98695 0 1.51837)
(8.81176 0 1.70402)
(8.62144 0 1.90491)
(8.41532 0 2.12235)
(8.19252 0 2.35765)
(7.95186 0 2.61203)
(7.69176 0 2.88662)
(7.41 0 3.18237)
(7.10357 0 3.49996)
(6.76825 0 3.83957)
(6.3982 0 4.20064)
(5.98539 0 4.58127)
(5.51887 0 4.97739)
(4.98412 0 5.38134)
(4.36296 0 5.77952)
(3.63158 0 6.14901)
(2.77981 0 6.45043)
(1.73321 0 6.62815)
(0.744715 0 6.50265)
(9.9942 0 0.114005)
(9.97487 0 0.226573)
(9.94056 0 0.33947)
(9.89252 0 0.45442)
(9.83174 0 0.57298)
(9.75852 0 0.696606)
(9.67289 0 0.826692)
(9.57489 0 0.964593)
(9.4645 0 1.11165)
(9.34164 0 1.26922)
(9.20617 0 1.43866)
(9.05788 0 1.62135)
(8.89646 0 1.81872)
(8.72148 0 2.0322)
(8.53238 0 2.26328)
(8.32836 0 2.5135)
(8.10834 0 2.78442)
(7.87079 0 3.07765)
(7.61357 0 3.39483)
(7.33366 0 3.7376)
(7.02682 0 4.10758)
(6.687 0 4.50616)
(6.30569 0 4.93424)
(5.87082 0 5.39156)
(5.36545 0 5.87542)
(4.76649 0 6.37824)
(4.04026 0 6.88311)
(3.16099 0 7.35323)
(2.02436 0 7.72273)
(0.880534 0 7.75644)
(9.99459 0 0.120852)
(9.97657 0 0.240222)
(9.94461 0 0.360004)
(9.89996 0 0.481996)
(9.84357 0 0.607791)
(9.77576 0 0.738878)
(9.69663 0 0.876694)
(9.60624 0 1.02264)
(9.50465 0 1.17812)
(9.39187 0 1.34452)
(9.26784 0 1.52326)
(9.13244 0 1.7158)
(8.9855 0 1.92363)
(8.82671 0 2.14833)
(8.65564 0 2.39153)
(8.47168 0 2.655)
(8.27392 0 2.94061)
(8.06106 0 3.25044)
(7.83123 0 3.5868)
(7.58172 0 3.95232)
(7.30868 0 4.35)
(7.00649 0 4.78333)
(6.66698 0 5.25628)
(6.27816 0 5.77312)
(5.82204 0 6.33783)
(5.27195 0 6.95248)
(4.58388 0 7.61357)
(3.70925 0 8.30063)
(2.48754 0 8.9576)
(1.12411 0 9.29222)
(9.99501 0 0.127209)
(9.97838 0 0.252881)
(9.94891 0 0.379016)
(9.9078 0 0.507481)
(9.85599 0 0.639902)
(9.79383 0 0.777795)
(9.72144 0 0.922633)
(9.63895 0 1.07586)
(9.54649 0 1.23889)
(9.44415 0 1.41317)
(9.33198 0 1.60017)
(9.20998 0 1.80137)
(9.07808 0 2.01836)
(8.93617 0 2.25279)
(8.78401 0 2.50644)
(8.62119 0 2.78125)
(8.4471 0 3.07938)
(8.26081 0 3.4033)
(8.06092 0 3.75591)
(7.84539 0 4.14067)
(7.6112 0 4.56188)
(7.35391 0 5.02494)
(7.06688 0 5.53679)
(6.74004 0 6.10641)
(6.35741 0 6.74551)
(5.89338 0 7.46912)
(5.29989 0 8.29638)
(4.50778 0 9.24774)
(3.26772 0 10.3411)
(1.60429 0 11.3575)
(9.99545 0 0.133049)
(9.98027 0 0.2645)
(9.95339 0 0.396436)
(9.91596 0 0.530782)
(9.86889 0 0.669191)
(9.81254 0 0.813204)
(9.74709 0 0.964314)
(9.67273 0 1.12399)
(9.58965 0 1.29368)
(9.49804 0 1.47484)
(9.39805 0 1.66896)
(9.28981 0 1.87758)
(9.17341 0 2.10232)
(9.0489 0 2.34488)
(8.91627 0 2.60715)
(8.77542 0 2.89119)
(8.62609 0 3.19937)
(8.46784 0 3.53444)
(8.29994 0 3.8997)
(8.12124 0 4.29926)
(7.93005 0 4.73833)
(7.72379 0 5.22375)
(7.49862 0 5.76475)
(7.24865 0 6.37413)
(6.96436 0 7.07033)
(6.63021 0 7.88116)
(6.21337 0 8.852)
(5.66439 0 10.0658)
(4.6883 0 11.7302)
(2.68596 0 14.589)
(0.120396 0 -0.11951)
(0.282361 0 -0.108222)
(0.446937 0 -0.0843889)
(0.583049 0 -0.0612787)
(0.685035 0 -0.0416399)
(0.756696 0 -0.0255822)
(0.803298 0 -0.012701)
(0.829454 0 -0.00258933)
(0.839157 0 0.00500733)
(0.836084 0 0.00990228)
(0.823582 0 0.0126817)
(0.804792 0 0.0140122)
(0.78234 0 0.0142938)
(0.758245 0 0.0138169)
(0.734073 0 0.0128169)
(0.711012 0 0.0115014)
(0.689905 0 0.010049)
(0.671272 0 0.00860303)
(0.655366 0 0.00725961)
(0.642228 0 0.00607111)
(0.631712 0 0.00507142)
(0.623482 0 0.00426659)
(0.617067 0 0.00362954)
(0.611866 0 0.00322887)
(0.607147 0 0.00309401)
(0.602217 0 0.00315284)
(0.596553 0 0.00328633)
(0.589911 0 0.00336768)
(0.582463 0 0.00326285)
(0.573591 0 0.00254949)
(0.10397 0 -0.281195)
(0.262923 0 -0.262739)
(0.41792 0 -0.212118)
(0.549499 0 -0.161613)
(0.653568 0 -0.118208)
(0.733646 0 -0.0823703)
(0.794181 0 -0.053306)
(0.838947 0 -0.0301528)
(0.870951 0 -0.0121947)
(0.892663 0 0.00113935)
(0.905912 0 0.0104982)
(0.91218 0 0.0164078)
(0.913875 0 0.0195605)
(0.912941 0 0.0206029)
(0.910902 0 0.0200874)
(0.908918 0 0.0184808)
(0.907798 0 0.0161869)
(0.908032 0 0.0135447)
(0.909849 0 0.0108045)
(0.913284 0 0.00814905)
(0.91819 0 0.00579407)
(0.924225 0 0.0039402)
(0.930899 0 0.00272736)
(0.937849 0 0.00215636)
(0.944589 0 0.0021647)
(0.950621 0 0.00268015)
(0.955406 0 0.00345297)
(0.958824 0 0.00414948)
(0.961087 0 0.00447529)
(0.962983 0 0.00393791)
(0.0833307 0 -0.445732)
(0.22152 0 -0.416127)
(0.346753 0 -0.338893)
(0.453147 0 -0.262429)
(0.53746 0 -0.196984)
(0.603215 0 -0.143019)
(0.653876 0 -0.099362)
(0.692298 0 -0.0647312)
(0.72097 0 -0.0379415)
(0.742196 0 -0.0177459)
(0.758528 0 -0.00311872)
(0.772011 0 0.00685729)
(0.782046 0 0.0128511)
(0.789948 0 0.0155351)
(0.79659 0 0.0157181)
(0.802585 0 0.014156)
(0.808335 0 0.0115171)
(0.814029 0 0.00837065)
(0.819701 0 0.0051289)
(0.82533 0 0.00207286)
(0.830624 0 -0.000510292)
(0.835838 0 -0.00249678)
(0.841437 0 -0.00371848)
(0.847449 0 -0.00413901)
(0.85374 0 -0.0037881)
(0.860077 0 -0.00276022)
(0.866424 0 -0.00131942)
(0.872652 0 0.000152897)
(0.878603 0 0.00126895)
(0.884257 0 0.00185921)
(0.0632617 0 -0.577572)
(0.174621 0 -0.531811)
(0.263034 0 -0.430837)
(0.339236 0 -0.334081)
(0.398619 0 -0.252353)
(0.445451 0 -0.185188)
(0.481985 0 -0.130879)
(0.509962 0 -0.0877196)
(0.530954 0 -0.054308)
(0.546553 0 -0.0295729)
(0.558371 0 -0.0124702)
(0.568246 0 -0.00119548)
(0.578061 0 0.00579473)
(0.585946 0 0.00952242)
(0.592537 0 0.0105818)
(0.59802 0 0.00975075)
(0.602469 0 0.00780778)
(0.605897 0 0.00540143)
(0.608314 0 0.00296408)
(0.609888 0 0.000777658)
(0.610882 0 -0.00122916)
(0.611568 0 -0.00299457)
(0.611959 0 -0.00435015)
(0.612097 0 -0.00504192)
(0.612013 0 -0.00489521)
(0.611688 0 -0.00411423)
(0.611069 0 -0.00319003)
(0.610128 0 -0.00234053)
(0.608388 0 -0.00139035)
(0.606331 0 -7.26374e-06)
(0.0424174 0 -0.678239)
(0.121386 0 -0.611622)
(0.167215 0 -0.490492)
(0.210604 0 -0.3801)
(0.24163 0 -0.288278)
(0.266708 0 -0.213174)
(0.286553 0 -0.15255)
(0.301901 0 -0.104261)
(0.31339 0 -0.0667722)
(0.321759 0 -0.0391143)
(0.327841 0 -0.0199812)
(0.332807 0 -0.00681678)
(0.338159 0 0.00133719)
(0.342789 0 0.00551151)
(0.345084 0 0.00716932)
(0.345356 0 0.00702815)
(0.343767 0 0.00582449)
(0.340388 0 0.00414479)
(0.335273 0 0.0021669)
(0.328698 0 3.90286e-05)
(0.321329 0 -0.00207766)
(0.312953 0 -0.00375403)
(0.30351 0 -0.00470158)
(0.292883 0 -0.00472549)
(0.280963 0 -0.0036778)
(0.267465 0 -0.00162003)
(0.252175 0 0.000597082)
(0.235398 0 0.00224134)
(0.218506 0 0.0035685)
(0.202027 0 0.00432353)
(0.0201836 0 -0.742183)
(0.0612382 0 -0.650946)
(0.0602698 0 -0.513435)
(0.0685867 0 -0.395839)
(0.0679107 0 -0.2992)
(0.0678967 0 -0.220898)
(0.0674381 0 -0.158161)
(0.0668145 0 -0.108266)
(0.0659713 0 -0.069307)
(0.0650523 0 -0.040852)
(0.0635109 0 -0.0234673)
(0.0614993 0 -0.0130559)
(0.0584159 0 -0.0034886)
(0.048943 0 0.00416931)
(0.0384768 0 0.00865182)
(0.0252413 0 0.0108049)
(0.00905616 0 0.0117042)
(-0.0102093 0 0.011952)
(-0.0319382 0 0.0116815)
(-0.0560737 0 0.0109138)
(-0.0817254 0 0.0099408)
(-0.107759 0 0.0089742)
(-0.132871 0 0.00824799)
(-0.156082 0 0.00805967)
(-0.176416 0 0.00876526)
(-0.192257 0 0.0104335)
(-0.203782 0 0.0124085)
(-0.214447 0 0.0135535)
(-0.22625 0 0.0128932)
(-0.23611 0 0.010387)
(-0.00500559 0 -0.762341)
(-0.00745235 0 -0.643894)
(-0.056452 0 -0.49523)
(-0.0873697 0 -0.376928)
(-0.122711 0 -0.281326)
(-0.153006 0 -0.205775)
(-0.179653 0 -0.146749)
(-0.202499 0 -0.100661)
(-0.222182 0 -0.0642001)
(-0.240519 0 -0.0347764)
(-0.263897 0 -0.0120505)
(-0.29971 0 0.00291189)
(-0.327444 0 0.0126354)
(-0.348168 0 0.0195225)
(-0.36796 0 0.0236156)
(-0.387608 0 0.0261956)
(-0.407238 0 0.0278639)
(-0.426802 0 0.0287835)
(-0.446392 0 0.0289716)
(-0.466322 0 0.0283084)
(-0.486789 0 0.0268084)
(-0.50757 0 0.0246569)
(-0.527998 0 0.0221009)
(-0.547249 0 0.019447)
(-0.564387 0 0.0171699)
(-0.578359 0 0.0158732)
(-0.589014 0 0.0158019)
(-0.597728 0 0.0160665)
(-0.605634 0 0.0153227)
(-0.611058 0 0.0135218)
(-0.0362826 0 -0.731065)
(-0.0864174 0 -0.588252)
(-0.181918 0 -0.437982)
(-0.257679 0 -0.323367)
(-0.33137 0 -0.233565)
(-0.397482 0 -0.163698)
(-0.456935 0 -0.109157)
(-0.510019 0 -0.065692)
(-0.557134 0 -0.0303418)
(-0.599451 0 -0.0026039)
(-0.632449 0 0.0160945)
(-0.654559 0 0.0258848)
(-0.677032 0 0.030754)
(-0.698202 0 0.0342877)
(-0.718415 0 0.0370189)
(-0.737925 0 0.0387586)
(-0.756826 0 0.0396174)
(-0.775038 0 0.0397732)
(-0.792581 0 0.0393747)
(-0.809754 0 0.0384639)
(-0.826976 0 0.036995)
(-0.844441 0 0.0348829)
(-0.861878 0 0.0320841)
(-0.878591 0 0.0287566)
(-0.893606 0 0.025423)
(-0.905984 0 0.0227958)
(-0.915478 0 0.0212012)
(-0.922888 0 0.020146)
(-0.928948 0 0.0187493)
(-0.932446 0 0.0171422)
(-0.0739803 0 -0.646241)
(-0.172834 0 -0.483575)
(-0.318956 0 -0.337079)
(-0.44142 0 -0.231442)
(-0.553071 0 -0.153612)
(-0.649707 0 -0.0952183)
(-0.732088 0 -0.0510016)
(-0.801331 0 -0.0178873)
(-0.856333 0 0.00610955)
(-0.895391 0 0.0226847)
(-0.925285 0 0.0339911)
(-0.951289 0 0.0415314)
(-0.974607 0 0.0462094)
(-0.995972 0 0.0490126)
(-1.01593 0 0.0508237)
(-1.03491 0 0.051814)
(-1.05303 0 0.0519684)
(-1.07021 0 0.0513631)
(-1.08639 0 0.0502179)
(-1.10187 0 0.0487423)
(-1.11719 0 0.0469455)
(-1.13274 0 0.0445793)
(-1.14841 0 0.0413092)
(-1.16349 0 0.0370694)
(-1.17693 0 0.0323699)
(-1.18784 0 0.0281499)
(-1.1961 0 0.0250899)
(-1.20245 0 0.0230362)
(-1.20743 0 0.02136)
(-1.21001 0 0.0200939)
(-0.122149 0 -0.503627)
(-0.274808 0 -0.329682)
(-0.473417 0 -0.197383)
(-0.639792 0 -0.107857)
(-0.784419 0 -0.0466442)
(-0.900874 0 -0.00751647)
(-0.989495 0 0.0168944)
(-1.05593 0 0.032796)
(-1.10629 0 0.0436082)
(-1.14693 0 0.0515622)
(-1.18011 0 0.0572697)
(-1.20794 0 0.0608375)
(-1.23189 0 0.0627053)
(-1.25309 0 0.0636131)
(-1.27249 0 0.0640825)
(-1.29076 0 0.0640927)
(-1.3081 0 0.0633694)
(-1.32433 0 0.061845)
(-1.33933 0 0.0598376)
(-1.35342 0 0.0577796)
(-1.36729 0 0.0557678)
(-1.38156 0 0.0533653)
(-1.39618 0 0.0498631)
(-1.41033 0 0.0448748)
(-1.42271 0 0.0388574)
(-1.4324 0 0.0330215)
(-1.43944 0 0.0284988)
(-1.44472 0 0.0255191)
(-1.44878 0 0.0236122)
(-1.45075 0 0.0225839)
(-0.192069 0 -0.304715)
(-0.422576 0 -0.122005)
(-0.683512 0 0.0028711)
(-0.870215 0 0.0538479)
(-1.01232 0 0.0729076)
(-1.12084 0 0.0789476)
(-1.20625 0 0.0807927)
(-1.27354 0 0.0811689)
(-1.32676 0 0.0811966)
(-1.3692 0 0.0812459)
(-1.40359 0 0.0811569)
(-1.43201 0 0.0804845)
(-1.45585 0 0.0791917)
(-1.47634 0 0.0778418)
(-1.49478 0 0.0768575)
(-1.51216 0 0.0759315)
(-1.52875 0 0.0743473)
(-1.54414 0 0.0717885)
(-1.558 0 0.0687268)
(-1.5707 0 0.0659657)
(-1.58322 0 0.0637863)
(-1.5965 0 0.0615258)
(-1.61059 0 0.0579694)
(-1.62437 0 0.0522782)
(-1.63616 0 0.0448314)
(-1.64481 0 0.0372417)
(-1.65055 0 0.0312618)
(-1.65464 0 0.0275124)
(-1.65778 0 0.0254928)
(-1.65927 0 0.0246524)
(-0.296812 0 0.0528995)
(-0.579372 0 0.198722)
(-0.853948 0 0.215787)
(-1.05272 0 0.206006)
(-1.2039 0 0.186119)
(-1.31852 0 0.164971)
(-1.40599 0 0.146592)
(-1.47345 0 0.131637)
(-1.52588 0 0.119852)
(-1.56714 0 0.111232)
(-1.60049 0 0.105088)
(-1.62805 0 0.0999933)
(-1.65081 0 0.0952004)
(-1.66982 0 0.0912712)
(-1.68669 0 0.0888086)
(-1.70294 0 0.0871657)
(-1.71884 0 0.0848893)
(-1.73354 0 0.0812152)
(-1.74626 0 0.076859)
(-1.75739 0 0.0732637)
(-1.76842 0 0.0710618)
(-1.78084 0 0.0692842)
(-1.79481 0 0.0659774)
(-1.80881 0 0.0596376)
(-1.82044 0 0.0505192)
(-1.82814 0 0.0408364)
(-1.83237 0 0.0332719)
(-1.835 0 0.0289125)
(-1.83714 0 0.0269545)
(-1.83821 0 0.0262842)
(-0.37244 0 0.497047)
(-0.711808 0 0.528348)
(-1.03622 0 0.452349)
(-1.25184 0 0.373529)
(-1.40521 0 0.306834)
(-1.51559 0 0.251533)
(-1.59689 0 0.209937)
(-1.65879 0 0.179426)
(-1.70631 0 0.156088)
(-1.74314 0 0.139114)
(-1.77315 0 0.127554)
(-1.79854 0 0.118505)
(-1.81939 0 0.110033)
(-1.836 0 0.103147)
(-1.85049 0 0.0992965)
(-1.86522 0 0.0974866)
(-1.8806 0 0.0949681)
(-1.8949 0 0.090132)
(-1.90643 0 0.0840914)
(-1.91558 0 0.0794289)
(-1.92471 0 0.077446)
(-1.93622 0 0.0767178)
(-1.95051 0 0.0741598)
(-1.9654 0 0.0672765)
(-1.97737 0 0.05611)
(-1.98412 0 0.0437541)
(-1.98641 0 0.034325)
(-1.98716 0 0.0295689)
(-1.98818 0 0.0279791)
(-1.98888 0 0.0274996)
(-0.496778 0 1.01862)
(-0.928929 0 0.935284)
(-1.29042 0 0.715395)
(-1.49105 0 0.537776)
(-1.62411 0 0.418771)
(-1.71606 0 0.326026)
(-1.78031 0 0.263343)
(-1.8299 0 0.222025)
(-1.8686 0 0.188933)
(-1.89778 0 0.16339)
(-1.92215 0 0.147109)
(-1.94451 0 0.135182)
(-1.96301 0 0.12315)
(-1.97619 0 0.112971)
(-1.98696 0 0.108125)
(-1.9996 0 0.107338)
(-2.01481 0 0.105444)
(-2.02928 0 0.0992738)
(-2.03961 0 0.0906623)
(-2.04607 0 0.084304)
(-2.05249 0 0.0827813)
(-2.06288 0 0.0839318)
(-2.078 0 0.082866)
(-2.09465 0 0.0756072)
(-2.10761 0 0.0618276)
(-2.11329 0 0.0458631)
(-2.11289 0 0.0340581)
(-2.11107 0 0.0292392)
(-2.11086 0 0.0285918)
(-2.1113 0 0.0283964)
(-0.733994 0 2.04773)
(-1.27139 0 1.61377)
(-1.65782 0 1.01152)
(-1.78865 0 0.623111)
(-1.8633 0 0.489323)
(-1.91914 0 0.380477)
(-1.95096 0 0.30754)
(-1.98246 0 0.260481)
(-2.0122 0 0.21367)
(-2.03144 0 0.175496)
(-2.04686 0 0.158243)
(-2.06526 0 0.149232)
(-2.08154 0 0.135635)
(-2.09011 0 0.120994)
(-2.09514 0 0.114301)
(-2.10483 0 0.115704)
(-2.12078 0 0.115446)
(-2.13667 0 0.107528)
(-2.14587 0 0.0949595)
(-2.14832 0 0.0860854)
(-2.15054 0 0.0857538)
(-2.15927 0 0.0904806)
(-2.17581 0 0.0923128)
(-2.19542 0 0.0851057)
(-2.21023 0 0.0679668)
(-2.21463 0 0.0469447)
(-2.21027 0 0.031863)
(-2.20475 0 0.0275226)
(-2.20317 0 0.0288953)
(-2.2036 0 0.0292575)
(9.9959 0 0.138443)
(9.98225 0 0.275233)
(9.95811 0 0.412518)
(9.92454 0 0.552264)
(9.88243 0 0.69615)
(9.83217 0 0.845729)
(9.774 0 1.00251)
(9.70817 0 1.16796)
(9.63494 0 1.34355)
(9.55461 0 1.53074)
(9.46743 0 1.73103)
(9.37367 0 1.94596)
(9.2736 0 2.17717)
(9.16747 0 2.42639)
(9.05553 0 2.69554)
(8.93801 0 2.98675)
(8.81508 0 3.30248)
(8.6869 0 3.64562)
(8.55352 0 4.01969)
(8.41494 0 4.42906)
(8.27109 0 4.87937)
(8.12185 0 5.37809)
(7.96716 0 5.93539)
(7.80726 0 6.56563)
(7.64336 0 7.28987)
(7.48038 0 8.14069)
(7.33152 0 9.17204)
(7.28666 0 10.4774)
(7.743 0 12.2016)
(7.9212 0 14.9193)
(9.99638 0 0.143403)
(9.98434 0 0.285088)
(9.96306 0 0.427245)
(9.93352 0 0.571873)
(9.89657 0 0.720663)
(9.85263 0 0.875175)
(9.80198 0 1.03691)
(9.74494 0 1.20736)
(9.68186 0 1.38797)
(9.61312 0 1.58019)
(9.5391 0 1.78551)
(9.46023 0 2.00546)
(9.37693 0 2.24165)
(9.28968 0 2.4958)
(9.19902 0 2.76981)
(9.10551 0 3.06579)
(9.00981 0 3.38616)
(8.91266 0 3.73377)
(8.81498 0 4.11208)
(8.71795 0 4.52536)
(8.62317 0 4.97901)
(8.53299 0 5.48008)
(8.45114 0 6.03789)
(8.38385 0 6.66503)
(8.34227 0 7.37873)
(8.34845 0 8.20242)
(8.44117 0 9.16627)
(8.67623 0 10.3036)
(9.32227 0 11.5594)
(9.81085 0 12.6501)
(9.99688 0 0.147839)
(9.98651 0 0.293899)
(9.96819 0 0.440394)
(9.94283 0 0.589341)
(9.91122 0 0.742434)
(9.87378 0 0.901226)
(9.83087 0 1.06721)
(9.78285 0 1.24185)
(9.73016 0 1.42658)
(9.67326 0 1.62282)
(9.61266 0 1.83202)
(9.54892 0 2.05566)
(9.48266 0 2.2953)
(9.41458 0 2.5526)
(9.34546 0 2.82935)
(9.27624 0 3.12756)
(9.20801 0 3.4495)
(9.1421 0 3.79781)
(9.08021 0 4.17561)
(9.02455 0 4.58666)
(8.97812 0 5.03557)
(8.94522 0 5.52802)
(8.93212 0 6.07099)
(8.94833 0 6.67289)
(9.00835 0 7.34318)
(9.13428 0 8.09053)
(9.35715 0 8.91687)
(9.68646 0 9.81121)
(10.2522 0 10.7223)
(10.9399 0 11.4407)
(9.9974 0 0.1517)
(9.98874 0 0.301559)
(9.97347 0 0.451799)
(9.95239 0 0.604438)
(9.92624 0 0.761163)
(9.89545 0 0.923508)
(9.86043 0 1.09295)
(9.82159 0 1.27091)
(9.77944 0 1.45878)
(9.73454 0 1.65794)
(9.68751 0 1.86978)
(9.63902 0 2.09571)
(9.58988 0 2.33717)
(9.54097 0 2.59573)
(9.49335 0 2.87302)
(9.44825 0 3.17086)
(9.40715 0 3.49124)
(9.37188 0 3.83644)
(9.34474 0 4.20903)
(9.3287 0 4.61199)
(9.32769 0 5.04873)
(9.34701 0 5.52309)
(9.3939 0 6.03921)
(9.47828 0 6.60107)
(9.61333 0 7.21145)
(9.81592 0 7.87004)
(10.1088 0 8.56981)
(10.5007 0 9.29612)
(11.0587 0 10.0389)
(11.8524 0 10.6849)
(9.99792 0 0.154939)
(9.99101 0 0.307977)
(9.97884 0 0.461325)
(9.96212 0 0.616988)
(9.94151 0 0.77663)
(9.91746 0 0.94176)
(9.89041 0 1.11381)
(9.86083 0 1.29417)
(9.8293 0 1.48417)
(9.79643 0 1.68511)
(9.76295 0 1.89831)
(9.72967 0 2.12506)
(9.69751 0 2.3667)
(9.66754 0 2.6246)
(9.64102 0 2.90022)
(9.61943 0 3.19509)
(9.60455 0 3.51087)
(9.59856 0 3.84934)
(9.60416 0 4.21241)
(9.62473 0 4.60213)
(9.66458 0 5.02062)
(9.72926 0 5.46989)
(9.82583 0 5.95156)
(9.96326 0 6.46634)
(10.1526 0 7.01315)
(10.407 0 7.58814)
(10.7437 0 8.1832)
(11.1744 0 8.78364)
(11.7222 0 9.3779)
(12.4761 0 9.89105)
(9.99845 0 0.157513)
(9.9933 0 0.313067)
(9.98427 0 0.468845)
(9.97194 0 0.626823)
(9.9569 0 0.788633)
(9.93962 0 0.955742)
(9.92055 0 1.12954)
(9.90023 0 1.31134)
(9.87926 0 1.50241)
(9.85835 0 1.70397)
(9.83828 0 1.91722)
(9.81996 0 2.14334)
(9.80442 0 2.3835)
(9.79288 0 2.63888)
(9.78674 0 2.91069)
(9.78764 0 3.20015)
(9.79757 0 3.50851)
(9.81887 0 3.83701)
(9.85443 0 4.18689)
(9.90773 0 4.55925)
(9.98306 0 4.95501)
(10.0856 0 5.37465)
(10.2218 0 5.81791)
(10.3992 0 6.28332)
(10.6265 0 6.76765)
(10.9134 0 7.26513)
(11.2713 0 7.76653)
(11.7082 0 8.2563)
(12.2248 0 8.71773)
(12.9015 0 9.10927)
(9.99898 0 0.159382)
(9.9956 0 0.316752)
(9.98971 0 0.474246)
(9.98177 0 0.633796)
(9.97229 0 0.796991)
(9.96174 0 0.965243)
(9.9506 0 1.13988)
(9.93943 0 1.32215)
(9.92888 0 1.51322)
(9.9197 0 1.71423)
(9.91274 0 1.92625)
(9.90896 0 2.15029)
(9.90948 0 2.38737)
(9.9156 0 2.63845)
(9.9288 0 2.90446)
(9.95082 0 3.18628)
(9.98371 0 3.48474)
(10.0299 0 3.80057)
(10.0921 0 4.13431)
(10.1738 0 4.48628)
(10.279 0 4.85638)
(10.4121 0 5.24389)
(10.5785 0 5.64726)
(10.7842 0 6.06368)
(11.0356 0 6.48865)
(11.3391 0 6.9155)
(11.7009 0 7.33485)
(12.125 0 7.73328)
(12.6055 0 8.09622)
(13.2117 0 8.40309)
(9.99951 0 0.160512)
(9.99789 0 0.318965)
(9.9951 0 0.477431)
(9.99151 0 0.637783)
(9.98753 0 0.801553)
(9.98362 0 0.970093)
(9.98028 0 1.14465)
(9.97807 0 1.3264)
(9.97769 0 1.51642)
(9.9799 0 1.71571)
(9.98559 0 1.92522)
(9.99576 0 2.14581)
(10.0116 0 2.3783)
(10.0344 0 2.62342)
(10.0656 0 2.88182)
(10.1071 0 3.15406)
(10.1608 0 3.44056)
(10.229 0 3.74155)
(10.3145 0 4.05702)
(10.4201 0 4.38658)
(10.5494 0 4.72939)
(10.7062 0 5.08392)
(10.8946 0 5.44777)
(11.119 0 5.81744)
(11.3836 0 6.18801)
(11.6923 0 6.55292)
(12.0479 0 6.90389)
(12.4518 0 7.23058)
(12.8966 0 7.52183)
(13.4403 0 7.76629)
(10 0 0.160877)
(10.0001 0 0.319652)
(10.0004 0 0.478319)
(10.0011 0 0.638681)
(10.0025 0 0.802202)
(10.0051 0 0.97016)
(10.0093 0 1.14373)
(10.0158 0 1.32397)
(10.0252 0 1.51188)
(10.0384 0 1.70833)
(10.0561 0 1.91412)
(10.0795 0 2.12995)
(10.1097 0 2.35645)
(10.1479 0 2.59412)
(10.1957 0 2.84335)
(10.2548 0 3.10438)
(10.3269 0 3.37727)
(10.4144 0 3.66184)
(10.5194 0 3.95761)
(10.6446 0 4.26369)
(10.7929 0 4.57869)
(10.9672 0 4.90061)
(11.1706 0 5.22663)
(11.4059 0 5.55306)
(11.6758 0 5.87514)
(11.9822 0 6.187)
(12.3259 0 6.48177)
(12.7067 0 6.75161)
(13.1168 0 6.98815)
(13.6051 0 7.18451)
(10.0005 0 0.160453)
(10.0023 0 0.31877)
(10.0056 0 0.476852)
(10.0104 0 0.636418)
(10.0171 0 0.798854)
(10.0259 0 0.96536)
(10.0375 0 1.13702)
(10.0523 0 1.3148)
(10.0711 0 1.49958)
(10.0946 0 1.6921)
(10.1237 0 1.89303)
(10.1594 0 2.10291)
(10.2028 0 2.32216)
(10.2552 0 2.55109)
(10.3179 0 2.78983)
(10.3925 0 3.03836)
(10.4807 0 3.29644)
(10.5844 0 3.56354)
(10.7056 0 3.83884)
(10.8463 0 4.12111)
(11.0088 0 4.40865)
(11.1954 0 4.69921)
(11.4079 0 4.98991)
(11.6483 0 5.27716)
(11.9179 0 5.55667)
(12.2172 0 5.82346)
(12.5458 0 6.07197)
(12.9025 0 6.29631)
(13.2801 0 6.49042)
(13.7204 0 6.65012)
(10.001 0 0.159227)
(10.0044 0 0.316291)
(10.0106 0 0.472989)
(10.0194 0 0.630946)
(10.0311 0 0.791464)
(10.0459 0 0.955656)
(10.0645 0 1.12451)
(10.0872 0 1.29889)
(10.1148 0 1.47956)
(10.148 0 1.66715)
(10.1877 0 1.86217)
(10.2347 0 2.06501)
(10.2902 0 2.27593)
(10.3553 0 2.49503)
(10.4312 0 2.72224)
(10.5193 0 2.95731)
(10.6211 0 3.19976)
(10.7382 0 3.44882)
(10.8722 0 3.70343)
(11.0248 0 3.96217)
(11.1975 0 4.2232)
(11.3918 0 4.48424)
(11.6091 0 4.74251)
(11.8501 0 4.99475)
(12.1154 0 5.23724)
(12.4047 0 5.46587)
(12.7168 0 5.67632)
(13.0499 0 5.86421)
(13.3977 0 6.0253)
(13.7968 0 6.15706)
(10.0015 0 0.157191)
(10.0065 0 0.3122)
(10.0154 0 0.466713)
(10.028 0 0.62225)
(10.0445 0 0.780024)
(10.065 0 0.941055)
(10.0901 0 1.10623)
(10.1203 0 1.27633)
(10.1561 0 1.45198)
(10.1983 0 1.6337)
(10.2476 0 1.82186)
(10.3049 0 2.01673)
(10.3712 0 2.21838)
(10.4475 0 2.42678)
(10.5348 0 2.64167)
(10.6344 0 2.86263)
(10.7475 0 3.08899)
(10.8754 0 3.31984)
(11.0193 0 3.55399)
(11.1803 0 3.78993)
(11.3597 0 4.02582)
(11.5583 0 4.25946)
(11.7767 0 4.48833)
(12.0153 0 4.70956)
(12.2737 0 4.92004)
(12.5513 0 5.11649)
(12.8465 0 5.29557)
(13.1573 0 5.45414)
(13.4783 0 5.58925)
(13.8421 0 5.6994)
(10.0019 0 0.154342)
(10.0084 0 0.306497)
(10.0199 0 0.458026)
(10.0362 0 0.610343)
(10.0571 0 0.764563)
(10.083 0 0.921613)
(10.1142 0 1.08229)
(10.1513 0 1.24725)
(10.1947 0 1.41703)
(10.245 0 1.59203)
(10.3031 0 1.77252)
(10.3696 0 1.9586)
(10.4454 0 2.15024)
(10.5313 0 2.34727)
(10.6284 0 2.54929)
(10.7375 0 2.75576)
(10.8597 0 2.9659)
(10.9959 0 3.17871)
(11.147 0 3.39295)
(11.3138 0 3.60712)
(11.497 0 3.81947)
(11.697 0 4.02797)
(11.914 0 4.23041)
(12.1477 0 4.42435)
(12.3977 0 4.60724)
(12.6628 0 4.77651)
(12.9414 0 4.92966)
(13.2315 0 5.06443)
(13.5287 0 5.17882)
(13.8619 0 5.27197)
(10.0024 0 0.150689)
(10.0102 0 0.299194)
(10.0241 0 0.446953)
(10.0438 0 0.595264)
(10.0689 0 0.745145)
(10.0997 0 0.897429)
(10.1366 0 1.05281)
(10.18 0 1.21186)
(10.2302 0 1.37501)
(10.288 0 1.54254)
(10.3538 0 1.71462)
(10.4283 0 1.89126)
(10.5123 0 2.07231)
(10.6065 0 2.25749)
(10.7116 0 2.44632)
(10.8284 0 2.63816)
(10.9577 0 2.83219)
(11.1 0 3.02738)
(11.256 0 3.2225)
(11.4262 0 3.41613)
(11.6109 0 3.60664)
(11.8101 0 3.79227)
(12.0238 0 3.97108)
(12.2513 0 4.14107)
(12.4919 0 4.30019)
(12.7443 0 4.44646)
(13.0071 0 4.57803)
(13.2782 0 4.6933)
(13.554 0 4.79093)
(13.8608 0 4.87049)
(10.0027 0 0.146242)
(10.0119 0 0.290319)
(10.0281 0 0.433536)
(10.0508 0 0.57708)
(10.0798 0 0.721868)
(10.1152 0 0.868639)
(10.1572 0 1.018)
(10.2062 0 1.17042)
(10.2627 0 1.32623)
(10.3269 0 1.48565)
(10.3996 0 1.64873)
(10.4811 0 1.81539)
(10.572 0 1.98542)
(10.673 0 2.15845)
(10.7847 0 2.33395)
(10.9074 0 2.51124)
(11.0419 0 2.68947)
(11.1885 0 2.86764)
(11.3475 0 3.04458)
(11.5192 0 3.21899)
(11.7035 0 3.38941)
(11.9003 0 3.55431)
(12.1092 0 3.71208)
(12.3295 0 3.86107)
(12.5603 0 3.99968)
(12.8003 0 4.1264)
(13.0481 0 4.23988)
(13.302 0 4.339)
(13.5588 0 4.4229)
(13.8426 0 4.49141)
(10.0031 0 0.141021)
(10.0134 0 0.279908)
(10.0317 0 0.417838)
(10.0573 0 0.555881)
(10.0898 0 0.694858)
(10.1293 0 0.835417)
(10.1759 0 0.978073)
(10.23 0 1.12321)
(10.2919 0 1.27109)
(10.3619 0 1.42183)
(10.4403 0 1.57542)
(10.5277 0 1.73172)
(10.6245 0 1.89044)
(10.731 0 2.05117)
(10.8477 0 2.21335)
(10.975 0 2.37631)
(11.1131 0 2.5392)
(11.2623 0 2.70108)
(11.4226 0 2.86088)
(11.5942 0 3.01741)
(11.7768 0 3.16943)
(11.9699 0 3.31563)
(12.1732 0 3.45466)
(12.3858 0 3.58523)
(12.6067 0 3.70609)
(12.8348 0 3.8161)
(13.0686 0 3.9143)
(13.3068 0 3.99991)
(13.5466 0 4.0724)
(13.8102 0 4.13177)
(10.0034 0 0.135049)
(10.0148 0 0.26801)
(10.035 0 0.399935)
(10.0632 0 0.531778)