/*--------------------------------*- C++ -*----------------------------------*\
  =========                 |
  \\      /  F ield         | OpenFOAM: The Open Source CFD Toolbox
   \\    /   O peration     | Website:  https://openfoam.org
    \\  /    A nd           | Version:  dev
     \\/     M anipulation  |
\*---------------------------------------------------------------------------*/
FoamFile
{
    version     2.0;
    format      ascii;
    class       surfaceVectorField;
    location    "7.5";
    object      Uf;
}
// * * * * * * * * * * * * * * * * * * * * * * * * * * * * * * * * * * * * * //

dimensions      [0 1 -1 0 0 0 0];

internalField   nonuniform List<vector> 
5457
(
(9.92088 0 0.0251096)
(9.97125 0 0.0387458)
(9.82401 0 0.0328268)
(9.92859 0 0.0485852)
(9.70961 0 0.0393121)
(9.85548 0 0.0587682)
(9.57544 0 0.0460117)
(9.7568 0 0.0705935)
(9.42138 0 0.0529491)
(9.63753 0 0.0830137)
(9.24754 0 0.0601666)
(9.49861 0 0.095937)
(9.05362 0 0.0678114)
(9.3393 0 0.109613)
(8.83892 0 0.0760352)
(9.15874 0 0.12429)
(8.60251 0 0.0849712)
(8.95609 0 0.140169)
(8.34326 0 0.0947462)
(8.73037 0 0.157435)
(8.05983 0 0.105489)
(8.48039 0 0.176273)
(7.75078 0 0.11733)
(8.20476 0 0.196861)
(7.41454 0 0.130398)
(7.90193 0 0.219366)
(7.04947 0 0.144814)
(7.57028 0 0.243929)
(6.654 0 0.160676)
(7.20815 0 0.270639)
(6.22667 0 0.178049)
(6.81396 0 0.299508)
(5.76638 0 0.196933)
(6.38629 0 0.330422)
(5.27252 0 0.217238)
(5.92412 0 0.363092)
(4.74531 0 0.238741)
(5.42704 0 0.396984)
(4.18613 0 0.261037)
(4.89559 0 0.431245)
(3.5979 0 0.283492)
(4.33157 0 0.464626)
(2.98548 0 0.305205)
(3.73853 0 0.49543)
(2.35605 0 0.325071)
(3.1222 0 0.521515)
(1.71904 0 0.342548)
(2.491 0 0.540557)
(1.08428 0 0.361881)
(1.85579 0 0.551671)
(0.451775 0 0.348668)
(1.24542 0 0.563018)
(-0.145877 0 0.102441)
(0.608847 0 0.544859)
(-0.423635 0 -0.207098)
(0.0946422 0 0.259348)
(-0.402161 0 -0.361253)
(-0.133705 0 -0.0205352)
(-0.119682 0 -0.393892)
(9.99641 0 0.0516724)
(9.99705 0 0.0405046)
(9.95879 0 0.0708616)
(9.97851 0 0.0674544)
(9.89824 0 0.0879869)
(9.93377 0 0.08987)
(9.81659 0 0.105985)
(9.86453 0 0.113555)
(9.71359 0 0.124922)
(9.77438 0 0.138515)
(9.58909 0 0.144855)
(9.66435 0 0.164647)
(9.44274 0 0.166091)
(9.53397 0 0.192333)
(9.2739 0 0.188969)
(9.38249 0 0.222033)
(9.08166 0 0.213786)
(9.20918 0 0.254152)
(8.86489 0 0.240819)
(9.01315 0 0.289068)
(8.62229 0 0.270342)
(8.7933 0 0.327158)
(8.35237 0 0.302613)
(8.54834 0 0.368794)
(8.05353 0 0.337865)
(8.27681 0 0.414326)
(7.72409 0 0.376271)
(7.97714 0 0.464057)
(7.36233 0 0.417913)
(7.64768 0 0.518202)
(6.96668 0 0.462719)
(7.28678 0 0.576821)
(6.53578 0 0.510398)
(6.8929 0 0.639741)
(6.06877 0 0.560345)
(6.46476 0 0.706444)
(5.56553 0 0.611532)
(6.00154 0 0.775925)
(5.02703 0 0.662395)
(5.50319 0 0.846539)
(4.4558 0 0.710716)
(4.97082 0 0.915819)
(3.85642 0 0.753545)
(4.40711 0 0.980316)
(3.23612 0 0.787197)
(3.81696 0 1.03546)
(2.60574 0 0.807498)
(3.20838 0 1.07548)
(1.98273 0 0.81046)
(2.59332 0 1.09314)
(1.40523 0 0.776883)
(1.99614 0 1.07707)
(0.929699 0 0.646379)
(1.41944 0 0.978384)
(0.439807 0 0.384309)
(0.937532 0 0.71677)
(0.0591482 0 -0.11864)
(0.443747 0 0.343491)
(0.174911 0 -0.33596)
(9.98903 0 0.0594308)
(9.99481 0 0.0458774)
(9.95434 0 0.0894765)
(9.97368 0 0.0848542)
(9.89729 0 0.118032)
(9.92984 0 0.119174)
(9.82046 0 0.147899)
(9.86357 0 0.153976)
(9.72416 0 0.179423)
(9.77736 0 0.190409)
(9.60821 0 0.212777)
(9.67227 0 0.228638)
(9.47234 0 0.248395)
(9.5481 0 0.269131)
(9.31607 0 0.286777)
(9.40431 0 0.3125)
(9.13868 0 0.328401)
(9.24034 0 0.35933)
(8.93924 0 0.373727)
(9.05548 0 0.41018)
(8.71663 0 0.423213)
(8.84888 0 0.465606)
(8.46958 0 0.477304)
(8.6195 0 0.526162)
(8.19665 0 0.536409)
(8.36614 0 0.592383)
(7.89629 0 0.600853)
(8.08749 0 0.66475)
(7.56688 0 0.670823)
(7.78216 0 0.743632)
(7.20679 0 0.74627)
(7.44869 0 0.829205)
(6.81452 0 0.826796)
(7.08564 0 0.921336)
(6.38882 0 0.911497)
(6.69165 0 1.01942)
(5.92897 0 0.998772)
(6.26566 0 1.12219)
(5.43507 0 1.08611)
(5.80705 0 1.22744)
(4.90848 0 1.16983)
(5.31601 0 1.33176)
(4.35236 0 1.2449)
(4.7939 0 1.4302)
(3.77252 0 1.30455)
(4.2439 0 1.51588)
(3.17866 0 1.33983)
(3.67174 0 1.57942)
(2.58657 0 1.33811)
(3.08626 0 1.60773)
(2.01981 0 1.27295)
(2.50286 0 1.58156)
(1.4869 0 1.09538)
(1.92869 0 1.46422)
(0.958265 0 0.769136)
(1.38521 0 1.21037)
(0.479859 0 0.202408)
(0.829517 0 0.800993)
(0.433718 0 0.134032)
(9.98515 0 0.0716138)
(9.99367 0 0.0531478)
(9.95039 0 0.11363)
(9.97087 0 0.102291)
(9.89437 0 0.154133)
(9.92691 0 0.147954)
(9.81882 0 0.195574)
(9.86185 0 0.193722)
(9.72442 0 0.238812)
(9.77746 0 0.241278)
(9.61112 0 0.284326)
(9.67467 0 0.291165)
(9.47874 0 0.332723)
(9.55343 0 0.343958)
(9.32694 0 0.384678)
(9.41335 0 0.400376)
(9.15522 0 0.440852)
(9.254 0 0.461145)
(8.9629 0 0.501891)
(9.07483 0 0.526968)
(8.74915 0 0.568437)
(8.87519 0 0.598545)
(8.51302 0 0.641123)
(8.65428 0 0.676574)
(8.25344 0 0.720543)
(8.41121 0 0.761734)
(7.96923 0 0.807205)
(8.14497 0 0.854653)
(7.65914 0 0.901454)
(7.85452 0 0.955837)
(7.32188 0 1.00337)
(7.53871 0 1.06559)
(6.95616 0 1.11259)
(7.19642 0 1.18387)
(6.56079 0 1.22815)
(6.82648 0 1.3101)
(6.13483 0 1.34819)
(6.42783 0 1.44294)
(5.67778 0 1.46961)
(5.9996 0 1.57992)
(5.18993 0 1.58778)
(5.54127 0 1.7171)
(4.67279 0 1.69603)
(5.05298 0 1.84855)
(4.12973 0 1.78515)
(4.53589 0 1.96584)
(3.56658 0 1.84252)
(3.99266 0 2.0573)
(2.99199 0 1.8507)
(3.42753 0 2.10712)
(2.41579 0 1.78246)
(2.84757 0 2.09445)
(1.8405 0 1.60041)
(2.25618 0 1.98869)
(1.25936 0 1.27838)
(1.66027 0 1.75299)
(0.666759 0 0.789484)
(1.02394 0 1.3677)
(0.523026 0 0.787082)
(9.98337 0 0.0844072)
(9.99316 0 0.0612912)
(9.94821 0 0.136837)
(9.96958 0 0.119927)
(9.89315 0 0.188032)
(9.92575 0 0.17624)
(9.81906 0 0.240169)
(9.86199 0 0.232698)
(9.72663 0 0.294468)
(9.77964 0 0.291088)
(9.6159 0 0.351661)
(9.6794 0 0.352275)
(9.48671 0 0.412473)
(9.56128 0 0.416979)
(9.33878 0 0.47768)
(9.42497 0 0.486012)
(9.1717 0 0.548056)
(9.27009 0 0.560209)
(8.98492 0 0.624362)
(9.0962 0 0.640394)
(8.77777 0 0.707353)
(8.90274 0 0.727377)
(8.54952 0 0.797776)
(8.68906 0 0.821968)
(8.29933 0 0.89634)
(8.45443 0 0.924956)
(8.02632 0 1.00367)
(8.19805 0 1.03707)
(7.72954 0 1.12022)
(7.91909 0 1.15893)
(7.40801 0 1.24619)
(7.61665 0 1.29095)
(7.06072 0 1.38129)
(7.28981 0 1.43317)
(6.68664 0 1.52461)
(6.93758 0 1.58513)
(6.28479 0 1.67421)
(6.55893 0 1.74553)
(5.85431 0 1.82681)
(6.1528 0 1.91191)
(5.39463 0 1.97727)
(5.71815 0 2.08018)
(4.90567 0 2.11806)
(5.254 0 2.2441)
(4.38817 0 2.2386)
(4.75965 0 2.39461)
(3.84387 0 2.32453)
(4.23487 0 2.51919)
(3.27537 0 2.35692)
(3.67981 0 2.60121)
(2.68533 0 2.31055)
(3.09565 0 2.61966)
(2.07264 0 2.15495)
(2.48163 0 2.54726)
(1.42934 0 1.86733)
(1.83987 0 2.35365)
(0.742593 0 1.41949)
(1.13133 0 2.02444)
(0.543293 0 1.51441)
(9.98264 0 0.0974973)
(9.99299 0 0.0697925)
(9.94744 0 0.159774)
(9.96925 0 0.137583)
(9.89354 0 0.221347)
(9.92597 0 0.203926)
(9.82134 0 0.284092)
(9.86381 0 0.270688)
(9.73134 0 0.349348)
(9.78386 0 0.339582)
(9.62367 0 0.41802)
(9.68665 0 0.411698)
(9.49819 0 0.49094)
(9.57218 0 0.487904)
(9.35465 0 0.568978)
(9.44022 0 0.569108)
(9.19269 0 0.65301)
(9.29043 0 0.656239)
(9.01183 0 0.743906)
(9.12242 0 0.750221)
(8.8115 0 0.842528)
(8.93571 0 0.851967)
(8.59107 0 0.949723)
(8.72972 0 0.96238)
(8.34983 0 1.0663)
(8.5038 0 1.08234)
(8.08704 0 1.19298)
(8.25726 0 1.21267)
(7.80189 0 1.33033)
(7.98935 0 1.35407)
(7.49356 0 1.47863)
(7.69926 0 1.50706)
(7.16114 0 1.63772)
(7.38613 0 1.6718)
(6.80367 0 1.80678)
(7.04898 0 1.84795)
(6.42005 0 1.984)
(6.68669 0 2.0344)
(6.00905 0 2.16616)
(6.29794 0 2.22887)
(5.56933 0 2.34813)
(5.88111 0 2.42751)
(5.09938 0 2.52222)
(5.43425 0 2.62428)
(4.59766 0 2.67757)
(4.95502 0 2.8103)
(4.06261 0 2.79948)
(4.44075 0 2.97322)
(3.49262 0 2.86908)
(3.88842 0 3.0966)
(2.88575 0 2.86287)
(3.29514 0 3.15985)
(2.23795 0 2.75386)
(2.65682 0 3.13784)
(1.5424 0 2.52094)
(1.97478 0 3.0031)
(0.793625 0 2.13124)
(1.2072 0 2.74049)
(0.556719 0 2.29171)
(9.9825 0 0.110626)
(9.99302 0 0.0783609)
(9.94771 0 0.182323)
(9.96954 0 0.155036)
(9.89523 0 0.253816)
(9.92722 0 0.230885)
(9.82524 0 0.326766)
(9.86697 0 0.307508)
(9.73813 0 0.402555)
(9.78978 0 0.386521)
(9.63403 0 0.482234)
(9.69606 0 0.469148)
(9.51286 0 0.566759)
(9.58579 0 0.556398)
(9.37438 0 0.657096)
(9.4588 0 0.649273)
(9.21828 0 0.754219)
(9.31481 0 0.748792)
(9.04414 0 0.859094)
(9.15346 0 0.85597)
(8.85144 0 0.972675)
(8.97433 0 0.971812)
(8.63961 0 1.0959)
(8.7769 0 1.09731)
(8.40801 0 1.22966)
(8.56057 0 1.23344)
(8.15593 0 1.37478)
(8.32468 0 1.3811)
(7.88261 0 1.5319)
(8.0685 0 1.54111)
(7.58723 0 1.70142)
(7.79122 0 1.71409)
(7.26885 0 1.88334)
(7.49192 0 1.90035)
(6.92637 0 2.07702)
(7.16949 0 2.09975)
(6.55845 0 2.2809)
(6.8226 0 2.31144)
(6.16339 0 2.49209)
(6.44952 0 2.53354)
(5.73905 0 2.70587)
(6.04802 0 2.76269)
(5.28264 0 2.91501)
(5.61515 0 2.9935)
(4.79074 0 3.10917)
(5.14714 0 3.21787)
(4.2592 0 3.27419)
(4.63928 0 3.42427)
(3.68329 0 3.39182)
(4.08595 0 3.59713)
(3.05796 0 3.43962)
(3.48121 0 3.71649)
(2.37766 0 3.39171)
(2.81827 0 3.75805)
(1.63785 0 3.22606)
(2.09908 0 3.69387)
(0.839101 0 2.90072)
(1.27887 0 3.50435)
(0.573337 0 3.11356)
(9.98273 0 0.123581)
(9.99316 0 0.0868168)
(9.94873 0 0.204308)
(9.97027 0 0.172092)
(9.89794 0 0.285251)
(9.92927 0 0.256973)
(9.83051 0 0.367964)
(9.87124 0 0.342986)
(9.74671 0 0.453851)
(9.79716 0 0.431677)
(9.64668 0 0.544077)
(9.70735 0 0.52435)
(9.53038 0 0.639709)
(9.60181 0 0.622136)
(9.39763 0 0.741803)
(9.48039 0 0.726128)
(9.24813 0 0.851421)
(9.34286 0 0.83743)
(9.08153 0 0.969617)
(9.18894 0 0.95714)
(8.89736 0 1.09743)
(9.01824 0 1.08635)
(8.69509 0 1.2359)
(8.83029 0 1.22615)
(8.47412 0 1.38601)
(8.62454 0 1.3776)
(8.23375 0 1.54866)
(8.40035 0 1.54171)
(7.9732 0 1.72464)
(8.157 0 1.71941)
(7.69158 0 1.91449)
(7.89361 0 1.91147)
(7.38781 0 2.1184)
(7.60917 0 2.11841)
(7.06057 0 2.33601)
(7.30238 0 2.34034)
(6.70814 0 2.56617)
(6.97159 0 2.57682)
(6.32829 0 2.80653)
(6.61465 0 2.82649)
(5.91802 0 3.05309)
(6.22863 0 3.08675)
(5.47336 0 3.29956)
(5.80965 0 3.35322)
(4.9892 0 3.53667)
(5.35255 0 3.61901)
(4.45923 0 3.75141)
(4.85076 0 3.874)
(3.87611 0 3.92643)
(4.2963 0 4.10392)
(3.23222 0 4.03979)
(3.68043 0 4.28963)
(2.52074 0 4.06488)
(2.99339 0 4.40668)
(1.7383 0 3.976)
(2.23728 0 4.42445)
(0.889434 0 3.7186)
(1.36329 0 4.31612)
(0.598722 0 3.98471)
(9.98321 0 0.136202)
(9.99339 0 0.0950396)
(9.95032 0 0.22557)
(9.97131 0 0.188588)
(9.90151 0 0.315495)
(9.93193 0 0.282047)
(9.83694 0 0.407501)
(9.87643 0 0.376958)
(9.75684 0 0.503011)
(9.80579 0 0.474838)
(9.66135 0 0.603276)
(9.72031 0 0.577048)
(9.55047 0 0.70946)
(9.61996 0 0.684814)
(9.42404 0 0.822704)
(9.50466 0 0.799318)
(9.28184 0 0.944152)
(9.37423 0 0.921739)
(9.12356 0 1.07494)
(9.22844 0 1.05326)
(8.94879 0 1.2162)
(9.06696 0 1.19505)
(8.75705 0 1.36906)
(8.88938 0 1.34829)
(8.54776 0 1.53461)
(8.6952 0 1.51414)
(8.32024 0 1.71387)
(8.48382 0 1.69374)
(8.07368 0 1.90778)
(8.25449 0 1.88814)
(7.80711 0 2.11707)
(8.00634 0 2.09831)
(7.51929 0 2.34221)
(7.73823 0 2.32502)
(7.20864 0 2.58321)
(7.44869 0 2.56874)
(6.87305 0 2.83945)
(7.1358 0 2.82951)
(6.50971 0 3.10933)
(6.79695 0 3.1067)
(6.1148 0 3.38986)
(6.4286 0 3.39868)
(5.68322 0 3.67606)
(6.02595 0 3.70235)
(5.20827 0 3.96023)
(5.58257 0 4.01253)
(4.68153 0 4.23099)
(5.09008 0 4.32099)
(4.09305 0 4.47228)
(4.53802 0 4.61537)
(3.43228 0 4.66246)
(3.91443 0 4.87781)
(2.68992 0 4.77302)
(3.20543 0 5.08346)
(1.86169 0 4.77221)
(2.41105 0 5.19779)
(0.954091 0 4.5895)
(1.47612 0 5.18406)
(0.63912 0 4.91918)
(9.98386 0 0.148368)
(9.99368 0 0.102943)
(9.95235 0 0.245969)
(9.97261 0 0.204392)
(9.90579 0 0.344397)
(9.9351 0 0.305967)
(9.84438 0 0.445196)
(9.88241 0 0.409268)
(9.76833 0 0.549809)
(9.81552 0 0.515814)
(9.67781 0 0.659558)
(9.73472 0 0.627009)
(9.57282 0 0.775688)
(9.64 0 0.744157)
(9.45328 0 0.899421)
(9.5313 0 0.868517)
(9.31903 0 1.03197)
(9.40854 0 1.00134)
(9.16979 0 1.17456)
(9.27152 0 1.14388)
(9.00523 0 1.32841)
(9.12 0 1.2974)
(8.82493 0 1.49473)
(8.95362 0 1.46314)
(8.62835 0 1.67473)
(8.77195 0 1.64239)
(8.41484 0 1.86958)
(8.57443 0 1.83639)
(8.1836 0 2.08037)
(8.36037 0 2.04639)
(7.93358 0 2.3081)
(8.12888 0 2.27354)
(7.66345 0 2.55356)
(7.87878 0 2.51893)
(7.37139 0 2.81724)
(7.60851 0 2.78346)
(7.055 0 3.09918)
(7.31593 0 3.06776)
(6.71094 0 3.39872)
(6.99813 0 3.37204)
(6.3347 0 3.71414)
(6.65109 0 3.69586)
(5.92012 0 4.04215)
(6.26928 0 4.03774)
(5.45901 0 4.3771)
(5.84515 0 4.39458)
(4.94077 0 4.70989)
(5.36859 0 4.76076)
(4.35239 0 5.02649)
(4.82645 0 5.12674)
(3.67924 0 5.30608)
(4.2028 0 5.477)
(2.90719 0 5.518)
(3.47752 0 5.78732)
(2.0274 0 5.62275)
(2.64468 0 6.01926)
(1.04496 0 5.52913)
(1.63746 0 6.12358)
(0.704348 0 5.94265)
(9.98465 0 0.15998)
(9.99402 0 0.110461)
(9.95473 0 0.265379)
(9.97409 0 0.219398)
(9.91065 0 0.371818)
(9.93868 0 0.32861)
(9.85267 0 0.480881)
(9.88905 0 0.439773)
(9.781 0 0.594043)
(9.82619 0 0.554431)
(9.69582 0 0.71268)
(9.75039 0 0.674023)
(9.59717 0 0.838108)
(9.66167 0 0.799916)
(9.48503 0 0.971619)
(9.56004 0 0.933436)
(9.35928 0 1.1145)
(9.44544 0 1.0759)
(9.21974 0 1.26804)
(9.31778 0 1.22862)
(9.06614 0 1.43353)
(9.17685 0 1.39293)
(8.89812 0 1.6123)
(9.02242 0 1.57017)
(8.71522 0 1.80566)
(8.85411 0 1.76171)
(8.51686 0 2.01493)
(8.67146 0 1.96894)
(8.30225 0 2.24141)
(8.47385 0 2.19325)
(8.07038 0 2.48636)
(8.26044 0 2.43606)
(7.81986 0 2.75096)
(8.0301 0 2.69877)
(7.5488 0 3.03626)
(7.78127 0 2.98275)
(7.25458 0 3.34306)
(7.51178 0 3.2893)
(6.9336 0 3.67179)
(7.21862 0 3.61958)
(6.58083 0 4.02226)
(6.89753 0 3.9745)
(6.18932 0 4.39323)
(6.5426 0 4.35445)
(5.74959 0 4.7817)
(6.14554 0 4.75892)
(5.24888 0 5.18178)
(5.69485 0 5.18565)
(4.67066 0 5.58281)
(5.17478 0 5.62928)
(3.99458 0 5.96647)
(4.56473 0 6.0788)
(3.19807 0 6.30152)
(3.83592 0 6.51347)
(2.26146 0 6.54035)
(2.9704 0 6.89379)
(1.18041 0 6.56465)
(1.87879 0 7.15739)
(0.812624 0 7.09879)
(9.98554 0 0.170961)
(9.9944 0 0.117545)
(9.95739 0 0.283696)
(9.97572 0 0.233517)
(9.91601 0 0.397632)
(9.94259 0 0.349865)
(9.8617 0 0.514408)
(9.89624 0 0.468347)
(9.79469 0 0.635532)
(9.83765 0 0.590536)
(9.71518 0 0.762426)
(9.76714 0 0.717906)
(9.62326 0 0.896466)
(9.68476 0 0.851873)
(9.51895 0 1.039)
(9.59057 0 0.993818)
(9.40222 0 1.19138)
(9.48457 0 1.14511)
(9.27295 0 1.35496)
(9.36675 0 1.30712)
(9.13095 0 1.5311)
(9.237 0 1.48124)
(8.97597 0 1.72121)
(9.09516 0 1.66889)
(8.80764 0 1.92673)
(8.94098 0 1.87153)
(8.62547 0 2.14912)
(8.7741 0 2.09066)
(8.42877 0 2.38989)
(8.59401 0 2.32786)
(8.21661 0 2.65058)
(8.40002 0 2.58476)
(7.98768 0 2.93279)
(8.19113 0 2.86311)
(7.74014 0 3.23813)
(7.96593 0 3.16474)
(7.47144 0 3.56826)
(7.7224 0 3.49164)
(7.17792 0 3.9248)
(7.45769 0 3.84595)
(6.85444 0 4.30925)
(7.16775 0 4.23)
(6.49375 0 4.72276)
(6.84674 0 4.64625)
(6.08556 0 5.16563)
(6.48633 0 5.09712)
(5.61543 0 5.63638)
(6.07449 0 5.58459)
(5.06329 0 6.12984)
(5.59374 0 6.10915)
(4.40184 0 6.63369)
(5.01922 0 6.66758)
(3.5957 0 7.12098)
(4.31207 0 7.24841)
(2.6039 0 7.54019)
(3.43512 0 7.81985)
(1.39401 0 7.73979)
(2.25595 0 8.31442)
(1.00232 0 8.46414)
(9.9865 0 0.18125)
(9.9948 0 0.124154)
(9.96027 0 0.300828)
(9.97747 0 0.246677)
(9.92177 0 0.421729)
(9.94676 0 0.369642)
(9.87134 0 0.545645)
(9.90388 0 0.49488)
(9.80924 0 0.674118)
(9.84978 0 0.623998)
(9.73568 0 0.808609)
(9.78479 0 0.7585)
(9.65082 0 0.950541)
(9.70904 0 0.899841)
(9.55473 0 1.10131)
(9.6226 0 1.04944)
(9.44744 0 1.26231)
(9.52557 0 1.20872)
(9.32893 0 1.43496)
(9.41801 0 1.37909)
(9.1991 0 1.62068)
(9.29991 0 1.56198)
(9.05782 0 1.82096)
(9.17121 0 1.75889)
(8.90482 0 2.03732)
(9.03179 0 1.97134)
(8.73977 0 2.27138)
(8.88144 0 2.20095)
(8.56212 0 2.52484)
(8.71983 0 2.44943)
(8.37111 0 2.79951)
(8.54644 0 2.71864)
(8.16564 0 3.09738)
(8.36051 0 3.0106)
(7.94413 0 3.42063)
(8.16094 0 3.3276)
(7.70427 0 3.77174)
(7.94607 0 3.67225)
(7.44278 0 4.15353)
(7.71356 0 4.04761)
(7.15493 0 4.56925)
(7.45994 0 4.45737)
(6.83381 0 5.02263)
(7.1802 0 4.90602)
(6.46938 0 5.51779)
(6.86693 0 5.39907)
(6.04676 0 6.05885)
(6.5091 0 5.94322)
(5.54371 0 6.64883)
(6.08972 0 6.54636)
(4.92661 0 7.28697)
(5.58267 0 7.21688)
(4.14443 0 7.9612)
(4.94189 0 7.9615)
(3.12114 0 8.63304)
(4.10852 0 8.77532)
(1.75577 0 9.12691)
(2.87763 0 9.62013)
(1.3642 0 10.1838)
(9.98754 0 0.190796)
(9.99523 0 0.130258)
(9.96333 0 0.316702)
(9.97932 0 0.25882)
(9.92786 0 0.444016)
(9.95115 0 0.387862)
(9.88148 0 0.574482)
(9.91188 0 0.519278)
(9.82449 0 0.709672)
(9.86244 0 0.654706)
(9.75713 0 0.85108)
(9.80318 0 0.795676)
(9.67959 0 1.00016)
(9.73426 0 0.943669)
(9.59203 0 1.15835)
(9.65584 0 1.10014)
(9.49453 0 1.32707)
(9.56807 0 1.26653)
(9.38718 0 1.50779)
(9.4711 0 1.44428)
(9.26998 0 1.70197)
(9.36502 0 1.63487)
(9.14292 0 1.91116)
(9.24989 0 1.83983)
(9.0059 0 2.13698)
(9.12575 0 2.06073)
(8.85873 0 2.38113)
(8.99254 0 2.29928)
(8.7011 0 2.64548)
(8.85014 0 2.55731)
(8.53249 0 2.93209)
(8.6983 0 2.83681)
(8.35213 0 3.24328)
(8.53659 0 3.14008)
(8.15884 0 3.58171)
(8.36432 0 3.46971)
(7.95089 0 3.95059)
(8.18043 0 3.82883)
(7.72573 0 4.35379)
(7.98332 0 4.22126)
(7.4796 0 4.79617)
(7.77062 0 4.65178)
(7.20694 0 5.28392)
(7.53885 0 5.12659)
(6.89936 0 5.825)
(7.28275 0 5.65391)
(6.5439 0 6.42978)
(6.99434 0 6.24486)
(6.1198 0 7.11164)
(6.66088 0 6.91495)
(5.59232 0 7.88769)
(6.2618 0 7.68641)
(4.89998 0 8.77774)
(5.75663 0 8.59268)
(3.92582 0 9.80093)
(5.08609 0 9.6849)
(2.4323 0 10.8553)
(3.97801 0 11.0484)
(2.14513 0 12.5661)
(9.98862 0 0.19956)
(9.99567 0 0.135833)
(9.96652 0 0.331256)
(9.98124 0 0.269901)
(9.9342 0 0.464412)
(9.95571 0 0.404465)
(9.89203 0 0.600813)
(9.92017 0 0.541468)
(9.84031 0 0.742058)
(9.87553 0 0.682574)
(9.77933 0 0.889662)
(9.82217 0 0.829329)
(9.70933 0 1.04511)
(9.76029 0 0.983234)
(9.63052 0 1.20985)
(9.69012 0 1.14576)
(9.54309 0 1.38534)
(9.61187 0 1.31837)
(9.4472 0 1.57306)
(9.5258 0 1.50251)
(9.34298 0 1.77452)
(9.43209 0 1.69969)
(9.23055 0 1.99129)
(9.33095 0 1.91144)
(9.10998 0 2.22505)
(9.22256 0 2.13939)
(8.98128 0 2.47758)
(9.10707 0 2.38527)
(8.8444 0 2.75086)
(8.98459 0 2.65098)
(8.69915 0 3.04712)
(8.85519 0 2.93862)
(8.54517 0 3.3689)
(8.71881 0 3.25061)
(8.38186 0 3.71925)
(8.57531 0 3.58978)
(8.20827 0 4.10187)
(8.42434 0 3.95955)
(8.02292 0 4.52142)
(8.26533 0 4.3642)
(7.82364 0 4.98394)
(8.09736 0 4.80919)
(7.60712 0 5.49748)
(7.91908 0 5.30175)
(7.36833 0 6.07308)
(7.72849 0 5.85176)
(7.09934 0 6.72639)
(7.52271 0 6.47313)
(6.78697 0 7.48059)
(7.29748 0 7.18643)
(6.40766 0 8.37238)
(7.04731 0 8.02405)
(5.91435 0 9.46613)
(6.76194 0 9.04241)
(5.19447 0 10.9079)
(6.46028 0 10.3571)
(3.88257 0 13.1767)
(6.18696 0 12.303)
(5.2544 0 16.3688)
(0.191187 0 -0.113933)
(0.112183 0 -0.187256)
(0.373034 0 -0.0964477)
(0.272642 0 -0.173901)
(0.522123 0 -0.0729719)
(0.432428 0 -0.139207)
(0.637057 0 -0.0515766)
(0.566274 0 -0.104781)
(0.721453 0 -0.033707)
(0.669301 0 -0.0751242)
(0.779616 0 -0.0192186)
(0.745171 0 -0.0505498)
(0.815653 0 -0.0077056)
(0.79874 0 -0.030581)
(0.833447 0 0.00116361)
(0.8342 0 -0.0147426)
(0.836957 0 0.00742556)
(0.855054 0 -0.00284014)
(0.829106 0 0.0112754)
(0.864374 0 0.00620135)
(0.813574 0 0.013339)
(0.864747 0 0.0119784)
(0.793154 0 0.0141513)
(0.858486 0 0.0153762)
(0.770043 0 0.0140582)
(0.848108 0 0.0169915)
(0.746022 0 0.0133229)
(0.835593 0 0.0172437)
(0.722486 0 0.012167)
(0.822487 0 0.0164959)
(0.700455 0 0.0107839)
(0.809965 0 0.0150773)
(0.680613 0 0.00933467)
(0.798852 0 0.0132575)
(0.663353 0 0.00793935)
(0.789652 0 0.0112606)
(0.648825 0 0.00667246)
(0.782608 0 0.00925428)
(0.636997 0 0.00557724)
(0.777756 0 0.00735583)
(0.627637 0 0.00467381)
(0.774951 0 0.00568402)
(0.620332 0 0.00395187)
(0.773853 0 0.00433154)
(0.614574 0 0.0034316)
(0.773983 0 0.00333326)
(0.60965 0 0.00316224)
(0.774857 0 0.00278292)
(0.604811 0 0.00312307)
(0.775868 0 0.00267068)
(0.599476 0 0.00321878)
(0.776419 0 0.00287485)
(0.593233 0 0.00332652)
(0.775979 0 0.00328474)
(0.586087 0 0.00331589)
(0.774367 0 0.00367093)
(0.578504 0 0.00291044)
(0.771775 0 0.00380343)
(0.768287 0 0.00306815)
(0.176776 0 -0.272077)
(0.0936504 0 -0.360397)
(0.346565 0 -0.237731)
(0.242222 0 -0.336271)
(0.489258 0 -0.187167)
(0.382336 0 -0.272443)
(0.603936 0 -0.14017)
(0.501323 0 -0.209329)
(0.694078 0 -0.100503)
(0.595514 0 -0.155363)
(0.76354 0 -0.0680118)
(0.66843 0 -0.11092)
(0.815865 0 -0.0418677)
(0.724029 0 -0.0749831)
(0.854176 0 -0.0212811)
(0.765622 0 -0.0464846)
(0.880845 0 -0.00560737)
(0.79596 0 -0.0244146)
(0.898418 0 0.00576287)
(0.81743 0 -0.00767887)
(0.908438 0 0.0134177)
(0.83222 0 0.00425084)
(0.912573 0 0.0179653)
(0.842095 0 0.012262)
(0.913097 0 0.0200755)
(0.847961 0 0.0166066)
(0.911714 0 0.0203482)
(0.851444 0 0.0182368)
(0.909777 0 0.0192937)
(0.853746 0 0.0178535)
(0.908271 0 0.0173475)
(0.855752 0 0.0161077)
(0.907855 0 0.0148816)
(0.858067 0 0.0135357)
(0.908887 0 0.012191)
(0.861031 0 0.0105867)
(0.911506 0 0.00949267)
(0.864775 0 0.00758663)
(0.915683 0 0.00698563)
(0.869307 0 0.00475791)
(0.921175 0 0.00487821)
(0.874407 0 0.00234897)
(0.927525 0 0.00334103)
(0.880031 0 0.000566405)
(0.934399 0 0.00244528)
(0.886168 0 -0.000646358)
(0.941282 0 0.00216048)
(0.892649 0 -0.00110745)
(0.947647 0 0.00241934)
(0.899164 0 -0.000842211)
(0.953022 0 0.00306194)
(0.905349 0 -2.14953e-05)
(0.957061 0 0.00379706)
(0.910915 0 0.00116006)
(0.959899 0 0.00431044)
(0.915738 0 0.00221289)
(0.961948 0 0.00420981)
(0.919845 0 0.00277561)
(0.92362 0 0.00272186)
(0.14958 0 -0.431107)
(0.0732962 0 -0.506901)
(0.288912 0 -0.377972)
(0.19807 0 -0.469515)
(0.404451 0 -0.301118)
(0.304894 0 -0.380325)
(0.497274 0 -0.230098)
(0.396191 0 -0.293952)
(0.570833 0 -0.170324)
(0.468039 0 -0.220841)
(0.628283 0 -0.121451)
(0.524333 0 -0.16085)
(0.672436 0 -0.0822536)
(0.567931 0 -0.11245)
(0.705779 0 -0.0514965)
(0.60113 0 -0.074111)
(0.73064 0 -0.0279644)
(0.625962 0 -0.0445264)
(0.749547 0 -0.0105197)
(0.644375 0 -0.022613)
(0.764432 0 0.00180968)
(0.658449 0 -0.00722877)
(0.776445 0 0.00981839)
(0.670129 0 0.00321632)
(0.785604 0 0.0141771)
(0.680054 0 0.0098724)
(0.793015 0 0.0156255)
(0.687947 0 0.0129172)
(0.799411 0 0.0149464)
(0.694563 0 0.0133709)
(0.805341 0 0.0128523)
(0.700303 0 0.0120492)
(0.811107 0 0.00996267)
(0.705402 0 0.00968334)
(0.816802 0 0.00676914)
(0.709963 0 0.00687114)
(0.822432 0 0.00361914)
(0.714008 0 0.00400022)
(0.827911 0 0.00079672)
(0.717609 0 0.00135056)
(0.83319 0 -0.00149166)
(0.720753 0 -0.000856946)
(0.838659 0 -0.00310033)
(0.723703 0 -0.00267608)
(0.844488 0 -0.00392623)
(0.726698 0 -0.00402086)
(0.850675 0 -0.00396565)
(0.729773 0 -0.00460432)
(0.857007 0 -0.0032803)
(0.732876 0 -0.00433693)
(0.863277 0 -0.00204843)
(0.735883 0 -0.00340013)
(0.869437 0 -0.000592058)
(0.738747 0 -0.00208115)
(0.875508 0 0.000704257)
(0.74139 0 -0.000905666)
(0.881075 0 0.00156056)
(0.743496 0 -1.6212e-05)
(0.745294 0 0.00112509)
(0.1196 0 -0.554965)
(0.0528395 0 -0.624042)
(0.222825 0 -0.481927)
(0.148004 0 -0.56823)
(0.305031 0 -0.383037)
(0.215125 0 -0.457082)
(0.370512 0 -0.293706)
(0.27492 0 -0.353649)
(0.422585 0 -0.219172)
(0.320125 0 -0.267194)
(0.463554 0 -0.158358)
(0.35608 0 -0.196456)
(0.49536 0 -0.109557)
(0.384269 0 -0.139441)
(0.519587 0 -0.0712135)
(0.405931 0 -0.0941841)
(0.5377 0 -0.0420882)
(0.422172 0 -0.0591791)
(0.551353 0 -0.0211237)
(0.434156 0 -0.0333974)
(0.562475 0 -0.00690021)
(0.443106 0 -0.0158065)
(0.572543 0 0.00225785)
(0.450526 0 -0.00436436)
(0.581469 0 0.0076363)
(0.45811 0 0.00330942)
(0.588939 0 0.0100458)
(0.464368 0 0.00755517)
(0.595084 0 0.0101712)
(0.46881 0 0.00906413)
(0.600142 0 0.00879087)
(0.471688 0 0.00858774)
(0.604151 0 0.00661898)
(0.473118 0 0.00700407)
(0.607082 0 0.00419732)
(0.473143 0 0.00495903)
(0.609029 0 0.00188394)
(0.471793 0 0.00276019)
(0.610364 0 -0.000213762)
(0.469293 0 0.000520595)
(0.611199 0 -0.00210132)
(0.466105 0 -0.00136408)
(0.611797 0 -0.00366426)
(0.462261 0 -0.00303058)
(0.612133 0 -0.0046919)
(0.457735 0 -0.00421551)
(0.612254 0 -0.00496944)
(0.45249 0 -0.00467252)
(0.612059 0 -0.00450939)
(0.446488 0 -0.00422939)
(0.611474 0 -0.00365765)
(0.439577 0 -0.00308527)
(0.610541 0 -0.00277036)
(0.431622 0 -0.00159004)
(0.609119 0 -0.00187112)
(0.422763 0 -0.000175468)
(0.607326 0 -0.00070707)
(0.413447 0 0.00088352)
(0.404179 0 0.00200267)
(0.084718 0 -0.645328)
(0.0313005 0 -0.707018)
(0.147528 0 -0.551781)
(0.0913123 0 -0.628295)
(0.19262 0 -0.435956)
(0.113743 0 -0.499185)
(0.227459 0 -0.334738)
(0.139596 0 -0.385411)
(0.254909 0 -0.251175)
(0.15477 0 -0.291627)
(0.27657 0 -0.183224)
(0.167302 0 -0.215282)
(0.293609 0 -0.128694)
(0.176996 0 -0.1539)
(0.306678 0 -0.0857407)
(0.184358 0 -0.105012)
(0.316283 0 -0.0531085)
(0.18968 0 -0.0669492)
(0.323248 0 -0.0296621)
(0.193406 0 -0.0388988)
(0.329026 0 -0.0134777)
(0.195676 0 -0.0202629)
(0.334632 0 -0.00278852)
(0.197153 0 -0.00858581)
(0.340098 0 0.00339941)
(0.198287 0 -0.000709263)
(0.343527 0 0.00633051)
(0.195866 0 0.00509362)
(0.344959 0 0.00709958)
(0.191781 0 0.0080611)
(0.344467 0 0.00643351)
(0.185299 0 0.00892393)
(0.342112 0 0.00499468)
(0.176412 0 0.00857757)
(0.33788 0 0.00316767)
(0.16509 0 0.00771994)
(0.33207 0 0.00111568)
(0.151667 0 0.00646161)
(0.325007 0 -0.00100667)
(0.136312 0 0.00491317)
(0.317133 0 -0.00290583)
(0.119802 0 0.00341725)
(0.308266 0 -0.00422215)
(0.102597 0 0.00222673)
(0.298355 0 -0.00471339)
(0.0853192 0 0.00152231)
(0.287375 0 -0.0042079)
(0.0684004 0 0.00153358)
(0.27484 0 -0.00266121)
(0.0522734 0 0.00268846)
(0.260103 0 -0.000524722)
(0.0376043 0 0.00485582)
(0.243505 0 0.00140939)
(0.0241965 0 0.00714247)
(0.226554 0 0.00289699)
(0.0104756 0 0.00853223)
(0.211027 0 0.0039415)
(-0.00387232 0 0.00867167)
(-0.0170417 0 0.00746609)
(0.0447305 0 -0.697109)
(0.00758899 0 -0.750829)
(0.0626764 0 -0.583012)
(0.0268929 0 -0.645457)
(0.0678959 0 -0.45534)
(0.00190892 0 -0.504058)
(0.0694985 0 -0.348097)
(-0.00939152 0 -0.386872)
(0.0689574 0 -0.260517)
(-0.0274002 0 -0.291146)
(0.0677262 0 -0.189904)
(-0.0425545 0 -0.214212)
(0.0665179 0 -0.133511)
(-0.0561073 0 -0.152874)
(0.0653492 0 -0.0890192)
(-0.0678422 0 -0.104043)
(0.0638769 0 -0.0552496)
(-0.0781053 0 -0.0657581)
(0.0623506 0 -0.0322635)
(-0.0877332 0 -0.0376932)
(0.0616163 0 -0.0183238)
(-0.100193 0 -0.0196966)
(0.0588718 0 -0.00832941)
(-0.119105 0 -0.00651918)
(0.0525752 0 0.000294601)
(-0.134514 0 0.00392005)
(0.0434022 0 0.00638378)
(-0.149612 0 0.0116785)
(0.0316623 0 0.00971549)
(-0.164742 0 0.0162895)
(0.0171823 0 0.0112492)
(-0.181183 0 0.0188332)
(-0.000388021 0 0.0118266)
(-0.199091 0 0.0203176)
(-0.0208191 0 0.0118183)
(-0.218506 0 0.0210491)
(-0.043834 0 0.0113022)
(-0.239165 0 0.0211218)
(-0.068823 0 0.0104331)
(-0.261198 0 0.0204549)
(-0.0946879 0 0.00946328)
(-0.284257 0 0.0191238)
(-0.120211 0 0.00861543)
(-0.307664 0 0.0173598)
(-0.144248 0 0.00815495)
(-0.330435 0 0.0154376)
(-0.165698 0 0.00840825)
(-0.351666 0 0.0136578)
(-0.183487 0 0.00958942)
(-0.370401 0 0.012506)
(-0.197627 0 0.0114092)
(-0.385308 0 0.0124751)
(-0.209513 0 0.0129742)
(-0.396398 0 0.013396)
(-0.220591 0 0.0132273)
(-0.406087 0 0.014223)
(-0.230776 0 0.0116551)
(-0.415942 0 0.0137798)
(-0.423584 0 0.0117683)
(-0.00404555 0 -0.703825)
(-0.0206441 0 -0.746866)
(-0.0318182 0 -0.57045)
(-0.0469349 0 -0.618898)
(-0.0678942 0 -0.436786)
(-0.119185 0 -0.470373)
(-0.103418 0 -0.329698)
(-0.172524 0 -0.354486)
(-0.136611 0 -0.244002)
(-0.227041 0 -0.261599)
(-0.166111 0 -0.176615)
(-0.275244 0 -0.188573)
(-0.191442 0 -0.12398)
(-0.318294 0 -0.13138)
(-0.212981 0 -0.0826484)
(-0.356259 0 -0.0861968)
(-0.232611 0 -0.049664)
(-0.389658 0 -0.0498782)
(-0.254795 0 -0.0235492)
(-0.419985 0 -0.0201706)
(-0.283473 0 -0.00465873)
(-0.448173 0 0.00241974)
(-0.313037 0 0.00771554)
(-0.477134 0 0.0157422)
(-0.33789 0 0.0160378)
(-0.502238 0 0.0221924)
(-0.358552 0 0.0215446)
(-0.523185 0 0.0265107)
(-0.37796 0 0.0248902)
(-0.543188 0 0.0298929)
(-0.397353 0 0.0270198)
(-0.562767 0 0.0321046)
(-0.416857 0 0.0283182)
(-0.582032 0 0.0333492)
(-0.436497 0 0.0288764)
(-0.60092 0 0.0338627)
(-0.456343 0 0.028644)
(-0.619486 0 0.0337634)
(-0.476554 0 0.0275674)
(-0.638038 0 0.0330247)
(-0.497108 0 0.0257455)
(-0.656883 0 0.0316057)
(-0.517616 0 0.0233942)
(-0.676005 0 0.0295187)
(-0.537339 0 0.0207898)
(-0.694938 0 0.0268556)
(-0.555408 0 0.0183221)
(-0.71292 0 0.0238711)
(-0.57101 0 0.0165293)
(-0.728996 0 0.0211165)
(-0.583648 0 0.015838)
(-0.742171 0 0.0192849)
(-0.593514 0 0.0159326)
(-0.752246 0 0.0185871)
(-0.601434 0 0.0156991)
(-0.760308 0 0.0182912)
(-0.608355 0 0.014433)
(-0.767291 0 0.0172514)
(-0.771752 0 0.0154976)
(-0.0539602 0 -0.660512)
(-0.0551315 0 -0.694016)
(-0.133696 0 -0.514015)
(-0.129626 0 -0.542646)
(-0.214745 0 -0.381359)
(-0.250437 0 -0.394697)
(-0.292329 0 -0.279002)
(-0.349549 0 -0.283756)
(-0.363236 0 -0.199049)
(-0.44222 0 -0.198481)
(-0.426935 0 -0.136753)
(-0.523595 0 -0.133211)
(-0.483662 0 -0.0876843)
(-0.594512 0 -0.083242)
(-0.534188 0 -0.0482281)
(-0.655675 0 -0.0443338)
(-0.579197 0 -0.0166386)
(-0.706734 0 -0.0134677)
(-0.616426 0 0.00663355)
(-0.747421 0 0.00923559)
(-0.644167 0 0.0209311)
(-0.778867 0 0.0238138)
(-0.666378 0 0.0282903)
(-0.802924 0 0.0324676)
(-0.687706 0 0.0324997)
(-0.825819 0 0.0378724)
(-0.708405 0 0.035637)
(-0.847087 0 0.0413694)
(-0.728186 0 0.0378784)
(-0.867174 0 0.0437577)
(-0.747303 0 0.0391829)
(-0.886417 0 0.045187)
(-0.765842 0 0.0396943)
(-0.90493 0 0.0457368)
(-0.78377 0 0.0395763)
(-0.922622 0 0.0455589)
(-0.801168 0 0.0389248)
(-0.939485 0 0.0448456)
(-0.818341 0 0.0377382)
(-0.955814 0 0.0437052)
(-0.835607 0 0.0359516)
(-0.972083 0 0.0420907)
(-0.852977 0 0.0335002)
(-0.988589 0 0.0398173)
(-0.869985 0 0.0304402)
(-1.00514 0 0.0367016)
(-0.885817 0 0.0271097)
(-1.02104 0 0.0328199)
(-0.899611 0 0.0241251)
(-1.03527 0 0.0287295)
(-0.910756 0 0.022008)
(-1.04691 0 0.0252903)
(-0.919176 0 0.0206799)
(-1.05579 0 0.0230171)
(-0.925527 0 0.019456)
(-1.06267 0 0.0215535)
(-0.931142 0 0.0179553)
(-1.06819 0 0.0200677)
(-1.07123 0 0.0186481)
(-0.111315 0 -0.56588)
(-0.0980646 0 -0.584989)