/*--------------------------------*- C++ -*----------------------------------*\
  =========                 |
  \\      /  F ield         | OpenFOAM: The Open Source CFD Toolbox
   \\    /   O peration     | Website:  https://openfoam.org
    \\  /    A nd           | Version:  dev
     \\/     M anipulation  |
\*---------------------------------------------------------------------------*/
FoamFile
{
    version     2.0;
    format      ascii;
    class       surfaceVectorField;
    location    "9.5";
    object      Uf;
}
// * * * * * * * * * * * * * * * * * * * * * * * * * * * * * * * * * * * * * //

dimensions      [0 1 -1 0 0 0 0];

internalField   nonuniform List<vector> 
5457
(
(9.92088 0 0.0251102)
(9.97124 0 0.0387466)
(9.82401 0 0.0328278)
(9.92859 0 0.0485867)
(9.7096 0 0.0393135)
(9.85547 0 0.0587705)
(9.57542 0 0.0460135)
(9.75679 0 0.0705966)
(9.42136 0 0.0529514)
(9.63751 0 0.0830176)
(9.24751 0 0.0601692)
(9.49858 0 0.0959418)
(9.05358 0 0.0678146)
(9.33927 0 0.109619)
(8.83887 0 0.0760388)
(9.15869 0 0.124296)
(8.60245 0 0.0849753)
(8.95603 0 0.140176)
(8.34318 0 0.0947507)
(8.7303 0 0.157444)
(8.05974 0 0.105494)
(8.48031 0 0.176282)
(7.75068 0 0.117335)
(8.20466 0 0.19687)
(7.41441 0 0.130404)
(7.90181 0 0.219376)
(7.04933 0 0.14482)
(7.57015 0 0.243939)
(6.65384 0 0.160683)
(7.20801 0 0.27065)
(6.2265 0 0.178055)
(6.81379 0 0.299519)
(5.76619 0 0.196939)
(6.38611 0 0.330433)
(5.27232 0 0.217244)
(5.92392 0 0.363102)
(4.7451 0 0.238746)
(5.42684 0 0.396992)
(4.18592 0 0.261041)
(4.89537 0 0.43125)
(3.59768 0 0.283494)
(4.33135 0 0.464629)
(2.98527 0 0.305205)
(3.73831 0 0.495429)
(2.35584 0 0.325068)
(3.12198 0 0.52151)
(1.71884 0 0.342543)
(2.49079 0 0.540547)
(1.0841 0 0.361876)
(1.85559 0 0.551657)
(0.451605 0 0.348621)
(1.24525 0 0.563005)
(-0.145979 0 0.102377)
(0.608654 0 0.544798)
(-0.423669 0 -0.2071)
(0.0945871 0 0.259284)
(-0.402171 0 -0.361229)
(-0.133799 0 -0.0205588)
(-0.119681 0 -0.393902)
(9.99641 0 0.0516742)
(9.99705 0 0.0405062)
(9.95878 0 0.0708645)
(9.9785 0 0.0674576)
(9.89823 0 0.087991)
(9.93377 0 0.0898747)
(9.81657 0 0.10599)
(9.86452 0 0.113561)
(9.71356 0 0.124929)
(9.77436 0 0.138523)
(9.58905 0 0.144862)
(9.66432 0 0.164657)
(9.4427 0 0.1661)
(9.53393 0 0.192345)
(9.27385 0 0.188979)
(9.38245 0 0.222046)
(9.08159 0 0.213797)
(9.20913 0 0.254166)
(8.86481 0 0.240832)
(9.01308 0 0.289085)
(8.62219 0 0.270356)
(8.79322 0 0.327176)
(8.35226 0 0.302628)
(8.54824 0 0.368813)
(8.05341 0 0.33788)
(8.2767 0 0.414346)
(7.72395 0 0.376287)
(7.97701 0 0.464079)
(7.36218 0 0.417929)
(7.64754 0 0.518224)
(6.9665 0 0.462735)
(7.28662 0 0.576843)
(6.53559 0 0.510413)
(6.89273 0 0.639763)
(6.06857 0 0.560358)
(6.46457 0 0.706463)
(5.56531 0 0.611542)
(6.00133 0 0.775942)
(5.02681 0 0.662401)
(5.50298 0 0.846551)
(4.45558 0 0.710717)
(4.97059 0 0.915825)
(3.85619 0 0.75354)
(4.40688 0 0.980314)
(3.2359 0 0.787185)
(3.81674 0 1.03545)
(2.60554 0 0.807479)
(3.20817 0 1.07546)
(1.98254 0 0.810434)
(2.59312 0 1.09311)
(1.40508 0 0.77684)
(1.99597 0 1.07703)
(0.929558 0 0.646318)
(1.41928 0 0.978312)
(0.439674 0 0.384226)
(0.937425 0 0.716698)
(0.0590837 0 -0.118708)
(0.443625 0 0.343402)
(0.174888 0 -0.336033)
(9.98903 0 0.0594338)
(9.99481 0 0.0458798)
(9.95433 0 0.0894814)
(9.97368 0 0.0848588)
(9.89728 0 0.118039)
(9.92984 0 0.119181)
(9.82045 0 0.147907)
(9.86356 0 0.153986)
(9.72414 0 0.179433)
(9.77734 0 0.190421)
(9.60818 0 0.21279)
(9.67224 0 0.228652)
(9.4723 0 0.24841)
(9.54806 0 0.269148)
(9.31602 0 0.286795)
(9.40427 0 0.312519)
(9.13862 0 0.328421)
(9.24028 0 0.359351)
(8.93916 0 0.373749)
(9.05541 0 0.410204)
(8.71654 0 0.423236)
(8.8488 0 0.465632)
(8.46948 0 0.477329)
(8.6194 0 0.52619)
(8.19653 0 0.536435)
(8.36603 0 0.592414)
(7.89616 0 0.600881)
(8.08737 0 0.664782)
(7.56673 0 0.67085)
(7.78202 0 0.743665)
(7.20663 0 0.746297)
(7.44854 0 0.829238)
(6.81434 0 0.826822)
(7.08547 0 0.921368)
(6.38862 0 0.91152)
(6.69147 0 1.01945)
(5.92877 0 0.99879)
(6.26546 0 1.12221)
(5.43486 0 1.08612)
(5.80685 0 1.22746)
(4.90826 0 1.16984)
(5.31579 0 1.33177)
(4.35214 0 1.24489)
(4.79368 0 1.4302)
(3.7723 0 1.30453)
(4.24368 0 1.51587)
(3.17845 0 1.3398)
(3.67153 0 1.57939)
(2.58638 0 1.33806)
(3.08606 0 1.60769)
(2.01965 0 1.27288)
(2.50269 0 1.58149)
(1.48676 0 1.0953)
(1.92854 0 1.46413)
(0.95817 0 0.76904)
(1.3851 0 1.21026)
(0.479801 0 0.202289)
(0.829442 0 0.800869)
(0.433682 0 0.133903)
(9.98515 0 0.0716179)
(9.99367 0 0.0531509)
(9.95039 0 0.113637)
(9.97087 0 0.102297)
(9.89436 0 0.154143)
(9.9269 0 0.147963)
(9.81881 0 0.195586)
(9.86184 0 0.193734)
(9.7244 0 0.238827)
(9.77744 0 0.241294)
(9.61109 0 0.284344)
(9.67464 0 0.291184)
(9.4787 0 0.332744)
(9.55339 0 0.34398)
(9.32689 0 0.384702)
(9.41331 0 0.400401)
(9.15516 0 0.440879)
(9.25394 0 0.461173)
(8.96283 0 0.50192)
(9.07476 0 0.527)
(8.74907 0 0.568469)
(8.87511 0 0.59858)
(8.51292 0 0.641158)
(8.65419 0 0.676611)
(8.25332 0 0.72058)
(8.4111 0 0.761775)
(7.9691 0 0.807243)
(8.14485 0 0.854695)
(7.659 0 0.901492)
(7.85438 0 0.955881)
(7.32172 0 1.0034)
(7.53856 0 1.06563)
(6.95598 0 1.11263)
(7.19625 0 1.18391)
(6.5606 0 1.22819)
(6.8263 0 1.31014)
(6.13463 0 1.34821)
(6.42764 0 1.44297)
(5.67757 0 1.46963)
(5.99939 0 1.57995)
(5.18971 0 1.58779)
(5.54106 0 1.71711)
(4.67257 0 1.69602)
(5.05276 0 1.84855)
(4.12951 0 1.78512)
(4.53567 0 1.96582)
(3.56638 0 1.84247)
(3.99244 0 2.05726)
(2.9918 0 1.85064)
(3.42733 0 2.10706)
(2.41563 0 1.78236)
(2.84739 0 2.09436)
(1.84037 0 1.6003)
(2.25603 0 1.98857)
(1.25927 0 1.27824)
(1.66016 0 1.75284)
(0.666714 0 0.789339)
(1.02387 0 1.36753)
(0.522999 0 0.786908)
(9.98337 0 0.0844124)
(9.99316 0 0.0612951)
(9.9482 0 0.136845)
(9.96958 0 0.119934)
(9.89314 0 0.188044)
(9.92574 0 0.176251)
(9.81905 0 0.240185)
(9.86198 0 0.232713)
(9.72661 0 0.294487)
(9.77962 0 0.291107)
(9.61587 0 0.351683)
(9.67937 0 0.352298)
(9.48667 0 0.412499)
(9.56124 0 0.417006)
(9.33873 0 0.47771)
(9.42492 0 0.486043)
(9.17164 0 0.54809)
(9.27003 0 0.560245)
(8.98484 0 0.624399)
(9.09613 0 0.640433)
(8.77769 0 0.707394)
(8.90266 0 0.72742)
(8.54942 0 0.79782)
(8.68896 0 0.822015)
(8.29922 0 0.896387)
(8.45432 0 0.925006)
(8.02619 0 1.00372)
(8.19793 0 1.03713)
(7.7294 0 1.12027)
(7.91895 0 1.15899)
(7.40785 0 1.24623)
(7.6165 0 1.291)
(7.06054 0 1.38134)
(7.28964 0 1.43323)
(6.68645 0 1.52465)
(6.93739 0 1.58518)
(6.28459 0 1.67425)
(6.55873 0 1.74557)
(5.8541 0 1.82683)
(6.15259 0 1.91194)
(5.39441 0 1.97728)
(5.71793 0 2.08021)
(4.90545 0 2.11805)
(5.25377 0 2.24411)
(4.38795 0 2.23857)
(4.75943 0 2.39459)
(3.84366 0 2.32447)
(4.23464 0 2.51914)
(3.27517 0 2.35684)
(3.6796 0 2.60114)
(2.68516 0 2.31043)
(3.09546 0 2.61955)
(2.07251 0 2.1548)
(2.48147 0 2.54711)
(1.42925 0 1.86715)
(1.83975 0 2.35347)
(0.742544 0 1.4193)
(1.13126 0 2.02423)
(0.543259 0 1.51418)
(9.98264 0 0.0975036)
(9.99299 0 0.0697971)
(9.94743 0 0.159785)
(9.96924 0 0.137592)
(9.89353 0 0.221362)
(9.92596 0 0.203939)
(9.82132 0 0.284111)
(9.8638 0 0.270706)
(9.73132 0 0.349371)
(9.78384 0 0.339605)
(9.62364 0 0.418047)
(9.68662 0 0.411725)
(9.49815 0 0.490972)
(9.57215 0 0.487937)
(9.3546 0 0.569014)
(9.44017 0 0.569145)
(9.19263 0 0.653051)
(9.29037 0 0.656281)
(9.01176 0 0.743951)
(9.12236 0 0.750268)
(8.81142 0 0.842577)
(8.93563 0 0.852019)
(8.59097 0 0.949776)
(8.72962 0 0.962436)
(8.34972 0 1.06636)
(8.50369 0 1.0824)
(8.08691 0 1.19304)
(8.25714 0 1.21273)
(7.80174 0 1.33039)
(7.98921 0 1.35414)
(7.4934 0 1.47869)
(7.69911 0 1.50712)
(7.16096 0 1.63777)
(7.38596 0 1.67186)
(6.80347 0 1.80683)
(7.04879 0 1.84801)
(6.41984 0 1.98404)
(6.68649 0 2.03445)
(6.00884 0 2.16619)
(6.29772 0 2.22891)
(5.5691 0 2.34814)
(5.88089 0 2.42754)
(5.09914 0 2.52221)
(5.43402 0 2.62429)
(4.59743 0 2.67753)
(4.95478 0 2.81028)
(4.06239 0 2.79941)
(4.44051 0 2.97316)
(3.49241 0 2.86897)
(3.8882 0 3.09651)
(2.88557 0 2.86272)
(3.29493 0 3.15972)
(2.23781 0 2.75367)
(2.65664 0 3.13766)
(1.54229 0 2.52073)
(1.97464 0 3.00288)
(0.79357 0 2.131)
(1.20711 0 2.74024)
(0.55668 0 2.29144)
(9.9825 0 0.110633)
(9.99302 0 0.0783662)
(9.9477 0 0.182336)
(9.96954 0 0.155047)
(9.89522 0 0.253833)
(9.92722 0 0.2309)
(9.82523 0 0.326788)
(9.86696 0 0.307529)
(9.73811 0 0.402582)
(9.78976 0 0.386548)
(9.63401 0 0.482266)
(9.69603 0 0.46918)
(9.51282 0 0.566797)
(9.58576 0 0.556436)
(9.37433 0 0.657139)
(9.45876 0 0.649316)
(9.21822 0 0.754267)
(9.31475 0 0.748841)
(9.04407 0 0.859147)
(9.1534 0 0.856025)
(8.85136 0 0.972733)
(8.97426 0 0.971872)
(8.63952 0 1.09596)
(8.77681 0 1.09738)
(8.4079 0 1.22973)
(8.56046 0 1.23351)
(8.1558 0 1.37485)
(8.32456 0 1.38118)
(7.88247 0 1.53197)
(8.06836 0 1.54119)
(7.58707 0 1.70149)
(7.79107 0 1.71416)
(7.26867 0 1.88341)
(7.49175 0 1.90042)
(6.92617 0 2.07708)
(7.1693 0 2.09982)
(6.55823 0 2.28095)
(6.82239 0 2.31151)
(6.16317 0 2.49213)
(6.44929 0 2.53359)
(5.73881 0 2.70589)
(6.04777 0 2.76273)
(5.28239 0 2.91501)
(5.6149 0 2.99351)
(4.79049 0 3.10913)
(5.14688 0 3.21785)
(4.25895 0 3.27411)
(4.63901 0 3.42422)
(3.68306 0 3.3917)
(4.08569 0 3.59702)
(3.05775 0 3.43945)
(3.48097 0 3.71633)
(2.37749 0 3.39149)
(2.81806 0 3.75783)
(1.63773 0 3.2258)
(2.09892 0 3.69361)
(0.839038 0 2.90043)
(1.27877 0 3.50403)
(0.57329 0 3.11322)
(9.98273 0 0.123589)
(9.99316 0 0.0868228)
(9.94872 0 0.204322)
(9.97026 0 0.172104)
(9.89793 0 0.28527)
(9.92926 0 0.256991)
(9.8305 0 0.367989)
(9.87123 0 0.34301)
(9.74669 0 0.453882)
(9.79714 0 0.431706)
(9.64666 0 0.544114)
(9.70733 0 0.524386)
(9.53035 0 0.639752)
(9.60178 0 0.622178)
(9.39758 0 0.741852)
(9.48035 0 0.726177)
(9.24807 0 0.851476)
(9.34281 0 0.837485)
(9.08146 0 0.969678)
(9.18888 0 0.957202)
(8.89728 0 1.0975)
(9.01817 0 1.08642)
(8.695 0 1.23597)
(8.8302 0 1.22623)
(8.47401 0 1.38608)
(8.62444 0 1.37768)
(8.23362 0 1.54874)
(8.40023 0 1.5418)
(7.97305 0 1.72472)
(8.15686 0 1.7195)
(7.69142 0 1.91457)
(7.89346 0 1.91156)
(7.38763 0 2.11848)
(7.60899 0 2.1185)
(7.06037 0 2.33609)
(7.30218 0 2.34043)
(6.70792 0 2.56624)
(6.97138 0 2.57689)
(6.32805 0 2.80658)
(6.61441 0 2.82655)
(5.91776 0 3.05312)
(6.22838 0 3.0868)
(5.47309 0 3.29956)
(5.80937 0 3.35324)
(4.98893 0 3.53663)
(5.35226 0 3.619)
(4.45895 0 3.75132)
(4.85046 0 3.87394)
(3.87584 0 3.92629)
(4.296 0 4.10381)
(3.23198 0 4.03959)
(3.68014 0 4.28946)
(2.52053 0 4.06462)
(2.99314 0 4.40643)
(1.73816 0 3.97568)
(2.23708 0 4.42413)
(0.889355 0 3.71824)
(1.36316 0 4.31574)
(0.598663 0 3.98429)
(9.98321 0 0.136212)
(9.99339 0 0.0950462)
(9.95032 0 0.225586)
(9.97131 0 0.188601)
(9.9015 0 0.315516)
(9.93193 0 0.282067)
(9.83693 0 0.407529)
(9.87642 0 0.376984)
(9.75682 0 0.503045)
(9.80578 0 0.474871)
(9.66133 0 0.603318)
(9.72028 0 0.577088)
(9.55043 0 0.709508)
(9.61993 0 0.684861)
(9.42399 0 0.822759)
(9.50462 0 0.799372)
(9.28179 0 0.944214)
(9.37418 0 0.9218)
(9.1235 0 1.07501)
(9.22838 0 1.05333)
(8.94871 0 1.21628)
(9.06689 0 1.19513)
(8.75696 0 1.36915)
(8.8893 0 1.34837)
(8.54765 0 1.5347)
(8.6951 0 1.51423)
(8.32011 0 1.71397)
(8.4837 0 1.69383)
(8.07354 0 1.90788)
(8.25436 0 1.88824)
(7.80694 0 2.11717)
(8.00619 0 2.09842)
(7.5191 0 2.3423)
(7.73805 0 2.32512)
(7.20842 0 2.5833)
(7.44849 0 2.56884)
(6.87281 0 2.83953)
(7.13558 0 2.82961)
(6.50945 0 3.10939)
(6.7967 0 3.10679)
(6.11452 0 3.3899)
(6.42832 0 3.39874)
(5.68292 0 3.67607)
(6.02565 0 3.70239)
(5.20796 0 3.9602)
(5.58225 0 4.01253)
(4.68121 0 4.2309)
(5.08975 0 4.32093)
(4.09273 0 4.47212)
(4.53767 0 4.61526)
(3.43199 0 4.66223)
(3.9141 0 4.87761)
(2.68967 0 4.77271)
(3.20511 0 5.08318)
(1.8615 0 4.77183)
(2.41079 0 5.19741)
(0.95399 0 4.58906)
(1.47595 0 5.1836)
(0.639042 0 4.91867)
(9.98386 0 0.148378)
(9.99368 0 0.10295)
(9.95235 0 0.245986)
(9.9726 0 0.204407)
(9.90578 0 0.344421)
(9.9351 0 0.305989)
(9.84436 0 0.445227)
(9.8824 0 0.409296)
(9.76831 0 0.549848)
(9.81551 0 0.51585)
(9.67778 0 0.659604)
(9.73469 0 0.627053)
(9.57278 0 0.775741)
(9.63997 0 0.744209)
(9.45324 0 0.899482)
(9.53127 0 0.868577)
(9.31897 0 1.03204)
(9.40849 0 1.00141)
(9.16972 0 1.17464)
(9.27147 0 1.14396)
(9.00515 0 1.3285)
(9.11993 0 1.29748)
(8.82483 0 1.49483)
(8.95353 0 1.46324)
(8.62824 0 1.67483)
(8.77185 0 1.64249)
(8.41471 0 1.86968)
(8.57431 0 1.8365)
(8.18345 0 2.08048)
(8.36024 0 2.0465)
(7.93342 0 2.30822)
(8.12872 0 2.27366)
(7.66326 0 2.55367)
(7.8786 0 2.51906)
(7.37118 0 2.81735)
(7.6083 0 2.78358)
(7.05475 0 3.09928)
(7.3157 0 3.06788)
(6.71067 0 3.39881)
(6.99787 0 3.37215)
(6.3344 0 3.7142)
(6.6508 0 3.69595)
(5.9198 0 4.04218)
(6.26895 0 4.0378)
(5.45866 0 4.37708)
(5.84479 0 4.3946)
(4.9404 0 4.70981)
(5.3682 0 4.76072)
(4.35202 0 5.02633)
(4.82605 0 5.12662)
(3.67888 0 5.30582)
(4.20239 0 5.47679)
(2.90687 0 5.51764)
(3.47712 0 5.787)
(2.02715 0 5.62228)
(2.64434 0 6.01881)
(1.04482 0 5.52858)
(1.63722 0 6.12301)
(0.704239 0 5.942)
(9.98465 0 0.159991)
(9.99402 0 0.110469)
(9.95473 0 0.265398)
(9.97409 0 0.219414)
(9.91064 0 0.371844)
(9.93867 0 0.328633)
(9.85266 0 0.480915)
(9.88904 0 0.439804)
(9.78099 0 0.594085)
(9.82618 0 0.55447)
(9.69579 0 0.71273)
(9.75037 0 0.67407)
(9.59714 0 0.838166)
(9.66165 0 0.799972)
(9.48499 0 0.971686)
(9.56 0 0.933501)
(9.35923 0 1.11457)
(9.4454 0 1.07597)
(9.21968 0 1.26812)
(9.31772 0 1.2287)
(9.06606 0 1.43363)
(9.17679 0 1.39302)
(8.89802 0 1.61241)
(9.02234 0 1.57027)
(8.71511 0 1.80577)
(8.85401 0 1.76182)
(8.51673 0 2.01505)
(8.67135 0 1.96906)
(8.30211 0 2.24153)
(8.47371 0 2.19338)
(8.07021 0 2.48649)
(8.26029 0 2.4362)
(7.81967 0 2.7511)
(8.02992 0 2.69891)
(7.54857 0 3.03639)
(7.78106 0 2.98289)
(7.25433 0 3.34318)
(7.51154 0 3.28944)
(6.93331 0 3.6719)
(7.21834 0 3.61972)
(6.5805 0 4.02235)
(6.89722 0 3.97462)
(6.18896 0 4.39328)
(6.54225 0 4.35454)
(5.74919 0 4.7817)
(6.14514 0 4.75897)
(5.24846 0 5.18171)
(5.6944 0 5.18564)
(4.67021 0 5.58265)
(5.1743 0 5.62919)
(3.99413 0 5.9662)
(4.56422 0 6.07859)
(3.19765 0 6.30111)
(3.83541 0 6.51312)
(2.26113 0 6.53979)
(2.96994 0 6.89327)
(1.18022 0 6.56396)
(1.87845 0 7.15669)
(0.812461 0 7.09795)
(9.98553 0 0.170974)
(9.9944 0 0.117554)
(9.95738 0 0.283716)
(9.97572 0 0.233533)
(9.916 0 0.39766)
(9.94258 0 0.34989)
(9.86169 0 0.514445)
(9.89623 0 0.468381)
(9.79468 0 0.635577)
(9.83764 0 0.590578)
(9.71516 0 0.76248)
(9.76712 0 0.717957)
(9.62323 0 0.896529)
(9.68474 0 0.851933)
(9.51892 0 1.03907)
(9.59053 0 0.993888)
(9.40217 0 1.19146)
(9.48453 0 1.14519)
(9.27289 0 1.35505)
(9.3667 0 1.30721)
(9.13088 0 1.5312)
(9.23694 0 1.48134)
(8.97589 0 1.72133)
(9.09508 0 1.669)
(8.80754 0 1.92685)
(8.94089 0 1.87165)
(8.62535 0 2.14925)
(8.77398 0 2.09079)
(8.42863 0 2.39003)
(8.59388 0 2.328)
(8.21644 0 2.65073)
(8.39987 0 2.58492)
(7.98748 0 2.93294)
(8.19095 0 2.86327)
(7.73992 0 3.23829)
(7.96571 0 3.16491)
(7.47117 0 3.56841)
(7.72215 0 3.49181)
(7.17761 0 3.92494)
(7.45741 0 3.84611)
(6.8541 0 4.30937)
(7.16742 0 4.23015)
(6.49335 0 4.72284)
(6.84636 0 4.64637)
(6.08511 0 5.16567)
(6.48589 0 5.09721)
(5.61493 0 5.63634)
(6.07398 0 5.58462)
(5.06275 0 6.12969)
(5.59317 0 6.1091)
(4.40127 0 6.63341)
(5.01859 0 6.66739)
(3.59514 0 7.12051)
(4.31141 0 7.24804)
(2.60342 0 7.53951)
(3.43448 0 7.81925)
(1.39372 0 7.7389)
(2.25544 0 8.31354)
(1.00206 0 8.46301)
(9.9865 0 0.181263)
(9.9948 0 0.124163)
(9.96026 0 0.30085)
(9.97747 0 0.246694)
(9.92176 0 0.421759)
(9.94676 0 0.369668)
(9.87133 0 0.545684)
(9.90387 0 0.494915)
(9.80922 0 0.674166)
(9.84977 0 0.624043)
(9.73566 0 0.808667)
(9.78478 0 0.758555)
(9.65079 0 0.950608)
(9.70901 0 0.899906)
(9.55469 0 1.10139)
(9.62257 0 1.04952)
(9.4474 0 1.2624)
(9.52553 0 1.20881)
(9.32887 0 1.43506)
(9.41796 0 1.37919)
(9.19904 0 1.62079)
(9.29985 0 1.56209)
(9.05773 0 1.82108)
(9.17114 0 1.75901)
(8.90472 0 2.03746)
(9.0317 0 1.97147)
(8.73965 0 2.27153)
(8.88133 0 2.20109)
(8.56198 0 2.525)
(8.7197 0 2.44959)
(8.37094 0 2.79968)
(8.54629 0 2.71881)
(8.16545 0 3.09755)
(8.36033 0 3.01079)
(7.9439 0 3.42081)
(8.16073 0 3.32779)
(7.704 0 3.77192)
(7.94583 0 3.67245)
(7.44247 0 4.15371)
(7.71327 0 4.04781)
(7.15456 0 4.56941)
(7.45959 0 4.45756)
(6.83338 0 5.02277)
(7.17979 0 4.9062)
(6.46888 0 5.51788)
(6.86645 0 5.39922)
(6.04618 0 6.05887)
(6.50853 0 5.94332)
(5.54305 0 6.64873)
(6.08905 0 6.54637)
(4.92588 0 7.28671)
(5.58189 0 7.21676)
(4.14367 0 7.9607)
(4.94101 0 7.96116)
(3.12044 0 8.63222)
(4.10759 0 8.77467)
(1.75529 0 9.12573)
(2.8768 0 9.61903)
(1.36372 0 10.1822)
(9.98754 0 0.19081)
(9.99523 0 0.130267)
(9.96332 0 0.316725)
(9.97932 0 0.258839)
(9.92785 0 0.444048)
(9.95115 0 0.38789)
(9.88147 0 0.574524)
(9.91187 0 0.519316)
(9.82448 0 0.709724)
(9.86243 0 0.654754)
(9.75711 0 0.851141)
(9.80317 0 0.795733)
(9.67957 0 1.00023)
(9.73424 0 0.943737)
(9.59199 0 1.15843)
(9.65581 0 1.10022)
(9.49449 0 1.32717)
(9.56804 0 1.26662)
(9.38712 0 1.5079)
(9.47105 0 1.44438)
(9.26992 0 1.70209)
(9.36496 0 1.63499)
(9.14284 0 1.9113)
(9.24982 0 1.83996)
(9.0058 0 2.13712)
(9.12566 0 2.06088)
(8.85862 0 2.38129)
(8.99244 0 2.29944)
(8.70096 0 2.64566)
(8.85002 0 2.55748)
(8.53233 0 2.93228)
(8.69816 0 2.837)
(8.35194 0 3.24347)
(8.53642 0 3.14028)
(8.15862 0 3.58192)
(8.36412 0 3.46993)
(7.95062 0 3.9508)
(8.18019 0 3.82906)
(7.72541 0 4.35401)
(7.98302 0 4.2215)
(7.47922 0 4.79639)
(7.77027 0 4.65202)
(7.20648 0 5.28411)
(7.53842 0 5.12683)
(6.89882 0 5.82516)
(7.28224 0 5.65413)
(6.54324 0 6.42988)
(6.99372 0 6.24505)
(6.11901 0 7.11163)
(6.66012 0 6.91507)
(5.5914 0 7.88751)
(6.26086 0 7.6864)
(4.89894 0 8.77727)
(5.7555 0 8.59246)
(3.92474 0 9.79999)
(5.08475 0 9.68429)
(2.43143 0 10.8537)
(3.97657 0 11.0471)
(2.14414 0 12.5636)
(9.98862 0 0.199574)
(9.99567 0 0.135843)
(9.96652 0 0.33128)
(9.98124 0 0.269921)
(9.9342 0 0.464445)
(9.9557 0 0.404494)
(9.89202 0 0.600857)
(9.92016 0 0.541507)
(9.8403 0 0.742112)
(9.87552 0 0.682623)
(9.77931 0 0.889727)
(9.82216 0 0.829389)
(9.70931 0 1.04518)
(9.76027 0 0.983306)
(9.63049 0 1.20993)
(9.69009 0 1.14584)
(9.54305 0 1.38544)
(9.61184 0 1.31846)
(9.44715 0 1.57317)
(9.52575 0 1.50262)
(9.34292 0 1.77465)
(9.43204 0 1.69981)
(9.23047 0 1.99143)
(9.33089 0 1.91158)
(9.10989 0 2.2252)
(9.22249 0 2.13955)
(8.98118 0 2.47775)
(9.10698 0 2.38544)
(8.84427 0 2.75105)
(8.98448 0 2.65117)
(8.699 0 3.04733)
(8.85505 0 2.93883)
(8.54499 0 3.36913)
(8.71865 0 3.25083)
(8.38164 0 3.71949)
(8.57512 0 3.59002)
(8.208 0 4.10212)
(8.42411 0 3.95982)
(8.0226 0 4.52168)
(8.26505 0 4.36448)
(7.82325 0 4.98421)
(8.09702 0 4.80949)
(7.60664 0 5.49775)
(7.91865 0 5.30206)
(7.36774 0 6.07334)
(7.72796 0 5.85207)
(7.09861 0 6.72661)
(7.52205 0 6.47343)
(6.78607 0 7.48073)
(7.29665 0 7.18671)
(6.40653 0 8.37236)
(7.04624 0 8.02425)
(5.91295 0 9.46581)
(6.76053 0 9.04244)
(5.19277 0 10.907)
(6.45837 0 10.3567)
(3.88078 0 13.1742)
(6.18411 0 12.3018)
(5.25033 0 16.3646)
(0.193042 0 -0.114993)
(0.113693 0 -0.189073)
(0.376979 0 -0.0977184)
(0.275996 0 -0.1759)
(0.528273 0 -0.0744218)
(0.437945 0 -0.141266)
(0.645738 0 -0.0532168)
(0.574063 0 -0.107089)
(0.733032 0 -0.0354115)
(0.679607 0 -0.0777039)
(0.794095 0 -0.0206763)
(0.758223 0 -0.0530698)
(0.832252 0 -0.00845507)
(0.814371 0 -0.0323794)
(0.850307 0 0.00161172)
(0.851446 0 -0.0149596)
(0.851414 0 0.00922285)
(0.871871 0 -0.000895453)
(0.836998 0 0.014481)
(0.877681 0 0.0113866)
(0.810711 0 0.0181115)
(0.86946 0 0.0202726)
(0.775153 0 0.0203792)
(0.849908 0 0.0267754)
(0.733033 0 0.0213748)
(0.821801 0 0.0309669)
(0.687118 0 0.0211828)
(0.787919 0 0.0329605)
(0.640128 0 0.0199413)
(0.751045 0 0.0329344)
(0.594559 0 0.0178641)
(0.71386 0 0.0311851)
(0.552475 0 0.0152456)
(0.678732 0 0.0281193)
(0.51535 0 0.0124344)
(0.647498 0 0.0242204)
(0.483935 0 0.00977353)
(0.621281 0 0.0200109)
(0.458205 0 0.00752808)
(0.600403 0 0.0160026)
(0.437459 0 0.00582451)
(0.584415 0 0.0125982)
(0.420623 0 0.0046316)
(0.572328 0 0.00998233)
(0.406658 0 0.00380795)
(0.563018 0 0.00808427)
(0.39484 0 0.00319616)
(0.555605 0 0.00668026)
(0.384765 0 0.00269389)
(0.549593 0 0.00555977)
(0.376214 0 0.00226646)
(0.544764 0 0.00460789)
(0.368991 0 0.0019229)
(0.540988 0 0.00380005)
(0.362836 0 0.00167072)
(0.538082 0 0.00316207)
(0.357452 0 0.00139793)
(0.535729 0 0.00270029)
(0.533266 0 0.00210682)
(0.179378 0 -0.274985)
(0.0955284 0 -0.364763)
(0.351555 0 -0.240681)
(0.246636 0 -0.340554)
(0.496403 0 -0.190275)
(0.389185 0 -0.276513)
(0.613354 0 -0.143629)
(0.510405 0 -0.21371)
(0.706065 0 -0.104129)
(0.606932 0 -0.160229)
(0.778188 0 -0.0711315)
(0.682415 0 -0.115752)
(0.832724 0 -0.0433992)
(0.740569 0 -0.0786578)
(0.871947 0 -0.0198889)
(0.784115 0 -0.0474579)
(0.896624 0 -5.23254e-05)
(0.814918 0 -0.0208583)
(0.908658 0 0.0160874)
(0.834504 0 0.00188075)
(0.907147 0 0.0284962)
(0.843086 0 0.0214385)
(0.895235 0 0.0373438)
(0.841176 0 0.0357447)
(0.875594 0 0.0427738)
(0.831223 0 0.0454075)
(0.851018 0 0.0449956)
(0.815679 0 0.0506026)
(0.824275 0 0.0443621)
(0.797025 0 0.0516783)
(0.797887 0 0.0413907)
(0.777643 0 0.0492431)
(0.773937 0 0.0367365)
(0.759604 0 0.0441224)
(0.753859 0 0.0311495)
(0.74447 0 0.0373192)
(0.73834 0 0.0254077)
(0.73315 0 0.0298962)
(0.727272 0 0.020194)
(0.725806 0 0.0228862)
(0.719906 0 0.0159429)
(0.721894 0 0.0170716)
(0.715199 0 0.0127428)
(0.720406 0 0.0127728)
(0.712241 0 0.0103893)
(0.720294 0 0.00979701)
(0.71047 0 0.00857927)
(0.720844 0 0.00768121)
(0.709623 0 0.00708581)
(0.721745 0 0.00602707)
(0.709565 0 0.00581266)
(0.722922 0 0.00463915)
(0.710141 0 0.00476267)
(0.724333 0 0.00349719)
(0.711101 0 0.00396739)
(0.725847 0 0.00266885)
(0.71208 0 0.00337604)
(0.727183 0 0.00220908)
(0.727969 0 0.00215344)
(0.152893 0 -0.436721)
(0.0754392 0 -0.514512)
(0.295221 0 -0.383236)
(0.203793 0 -0.476662)
(0.413152 0 -0.306309)
(0.313623 0 -0.386628)
(0.508291 0 -0.235746)
(0.407401 0 -0.300445)
(0.584439 0 -0.176303)
(0.481664 0 -0.22801)
(0.644634 0 -0.126825)
(0.540536 0 -0.168069)
(0.691262 0 -0.085464)
(0.586738 0 -0.118225)
(0.726205 0 -0.0505611)
(0.622163 0 -0.0764094)
(0.751133 0 -0.0205218)
(0.64826 0 -0.0410248)
(0.767235 0 0.00525874)
(0.666152 0 -0.0108373)
(0.775362 0 0.0261115)
(0.67831 0 0.0151704)
(0.775631 0 0.0415006)
(0.682351 0 0.0355422)
(0.770006 0 0.0513725)
(0.68058 0 0.0495432)
(0.760673 0 0.0559852)
(0.675048 0 0.057302)
(0.74974 0 0.0559174)
(0.667695 0 0.0593412)
(0.73908 0 0.0520209)
(0.660258 0 0.0565381)
(0.73018 0 0.0453575)
(0.654126 0 0.0500691)
(0.72405 0 0.0371465)
(0.650239 0 0.0413184)
(0.721076 0 0.0286728)
(0.649017 0 0.0317906)
(0.720968 0 0.0210811)
(0.650285 0 0.0229536)
(0.722894 0 0.0150964)
(0.653278 0 0.0159018)
(0.725832 0 0.0108346)
(0.656865 0 0.0110312)
(0.729016 0 0.00790789)
(0.659994 0 0.00795366)
(0.732094 0 0.00579191)
(0.662124 0 0.00594124)
(0.734977 0 0.00412656)
(0.663221 0 0.00443607)
(0.737651 0 0.00278169)
(0.663457 0 0.00319856)
(0.740057 0 0.00178851)
(0.662994 0 0.00223093)
(0.742038 0 0.00124171)
(0.661909 0 0.00165165)
(0.74329 0 0.00127432)
(0.660181 0 0.00158071)
(0.657203 0 0.00224347)
(0.123806 0 -0.563982)
(0.0552837 0 -0.635773)
(0.230956 0 -0.489989)
(0.155428 0 -0.57913)
(0.316089 0 -0.39049)
(0.226457 0 -0.466118)
(0.384187 0 -0.301576)
(0.289329 0 -0.362527)
(0.439018 0 -0.227499)
(0.337244 0 -0.276817)
(0.482799 0 -0.166018)
(0.375764 0 -0.20612)
(0.517158 0 -0.114619)
(0.406319 0 -0.147382)
(0.543305 0 -0.0712529)
(0.430001 0 -0.098073)
(0.562261 0 -0.0344214)
(0.447711 0 -0.0563601)
(0.575209 0 -0.00318208)
(0.459717 0 -0.0210644)
(0.582975 0 0.0224528)
(0.469182 0 0.00918121)
(0.585262 0 0.0417222)
(0.472228 0 0.0338199)
(0.583828 0 0.0541441)
(0.471427 0 0.0505976)
(0.58064 0 0.059937)
(0.46895 0 0.0595907)
(0.577245 0 0.059868)
(0.466375 0 0.0617209)
(0.574802 0 0.0550563)
(0.464693 0 0.0582095)
(0.574087 0 0.0469007)
(0.464406 0 0.0505469)
(0.575455 0 0.0370222)
(0.4656 0 0.0404263)
(0.578766 0 0.0271194)
(0.467983 0 0.029681)
(0.583311 0 0.0186579)
(0.470879 0 0.020127)
(0.587936 0 0.0124765)
(0.473253 0 0.0130934)
(0.591427 0 0.00854321)
(0.473878 0 0.00896124)
(0.593168 0 0.00617318)
(0.471827 0 0.0069459)
(0.593132 0 0.00462144)
(0.467092 0 0.00596156)
(0.59157 0 0.00344515)
(0.460265 0 0.00529777)
(0.588753 0 0.00252188)
(0.452003 0 0.00471651)
(0.584905 0 0.00192633)
(0.442797 0 0.00425565)
(0.580201 0 0.0017669)
(0.432947 0 0.00406835)
(0.574822 0 0.0022102)
(0.422738 0 0.00427832)
(0.410916 0 0.00481593)
(0.0901003 0 -0.658724)
(0.0341748 0 -0.72402)
(0.158129 0 -0.563464)
(0.100933 0 -0.644187)
(0.20701 0 -0.446229)
(0.128421 0 -0.511759)
(0.24509 0 -0.345201)
(0.158475 0 -0.397243)
(0.275565 0 -0.262052)
(0.176909 0 -0.303944)
(0.29987 0 -0.193245)
(0.192008 0 -0.227244)
(0.319006 0 -0.135742)
(0.203553 0 -0.16362)
(0.333636 0 -0.0871847)
(0.212291 0 -0.110195)
(0.344197 0 -0.0459146)
(0.218811 0 -0.0649041)
(0.351446 0 -0.0105687)
(0.222843 0 -0.0267898)
(0.355577 0 0.0188802)
(0.226039 0 0.0059952)
(0.355379 0 0.0409204)
(0.224884 0 0.033969)
(0.353854 0 0.0547111)
(0.22221 0 0.0517189)
(0.352605 0 0.0607094)
(0.219816 0 0.0604874)
(0.352404 0 0.060052)
(0.218421 0 0.0618611)
(0.353505 0 0.0542042)
(0.217682 0 0.0574562)
(0.35572 0 0.0448725)
(0.21674 0 0.0490673)
(0.358494 0 0.0339301)
(0.214452 0 0.0386163)
(0.361021 0 0.0233374)
(0.209758 0 0.0280716)
(0.362103 0 0.0148592)
(0.202335 0 0.0194537)
(0.360467 0 0.00955743)
(0.192416 0 0.0140867)
(0.35497 0 0.00719303)
(0.180222 0 0.0122208)
(0.345827 0 0.0065791)
(0.166526 0 0.0122389)
(0.333999 0 0.00664715)
(0.151862 0 0.0126469)
(0.320471 0 0.00677113)
(0.136493 0 0.0127637)
(0.306023 0 0.00675564)
(0.12094 0 0.0125022)
(0.291054 0 0.00673297)
(0.105542 0 0.0121312)
(0.275751 0 0.00696516)
(0.0903556 0 0.0119292)
(0.260685 0 0.007293)
(0.0752641 0 0.0118349)
(0.0597609 0 0.0106604)
(0.0517546 0 -0.716404)
(0.0111725 0 -0.774711)
(0.0764123 0 -0.599696)
(0.0393623 0 -0.667767)
(0.0868701 0 -0.469523)
(0.0206023 0 -0.521524)
(0.0926347 0 -0.36191)
(0.0153709 0 -0.402499)
(0.0955825 0 -0.274264)
(0.00147503 0 -0.306568)
(0.0968864 0 -0.202137)
(-0.0105231 0 -0.228377)
(0.0971139 0 -0.142111)
(-0.022041 0 -0.163813)
(0.0966948 0 -0.0916584)
(-0.0323355 0 -0.109847)
(0.0961812 0 -0.04923)
(-0.0411733 0 -0.0644885)
(0.0952685 0 -0.0127335)
(-0.0498474 0 -0.0260689)
(0.0915532 0 0.0193084)
(-0.0611498 0 0.00886045)
(0.0875317 0 0.0435562)
(-0.0658985 0 0.0369973)
(0.0845031 0 0.0572643)
(-0.0711775 0 0.0539455)
(0.0827943 0 0.0620415)
(-0.0757464 0 0.0617141)
(0.0816701 0 0.0600378)
(-0.0803652 0 0.062649)
(0.0796977 0 0.0533532)
(-0.0863397 0 0.058806)
(0.0751665 0 0.0440255)
(-0.0948807 0 0.052095)
(0.0664333 0 0.0341086)
(-0.106898 0 0.0443138)
(0.0526399 0 0.0255625)
(-0.12278 0 0.0368578)
(0.034478 0 0.0198696)
(-0.141851 0 0.0307494)
(0.0136614 0 0.0175197)
(-0.162665 0 0.0267277)
(-0.00726063 0 0.0175758)
(-0.183911 0 0.0246257)
(-0.0272853 0 0.0183081)
(-0.203924 0 0.0238314)
(-0.0461028 0 0.0185826)
(-0.222268 0 0.0232832)
(-0.0635287 0 0.0182116)
(-0.2391 0 0.0223808)
(-0.0796842 0 0.0175361)
(-0.254345 0 0.0212076)
(-0.0948806 0 0.0170349)
(-0.26811 0 0.0201264)
(-0.109455 0 0.016618)
(-0.280785 0 0.0194159)
(-0.122937 0 0.0150798)
(-0.292948 0 0.0185972)
(-0.303505 0 0.0162497)
(0.00519424 0 -0.731489)
(-0.0158658 0 -0.779798)
(-0.0146848 0 -0.594378)
(-0.0313226 0 -0.648757)
(-0.0439461 0 -0.45651)
(-0.0957652 0 -0.494202)
(-0.0732777 0 -0.347736)
(-0.140821 0 -0.375758)
(-0.101706 0 -0.260363)
(-0.189444 0 -0.281262)
(-0.127738 0 -0.189554)
(-0.232291 0 -0.205753)
(-0.150833 0 -0.131395)
(-0.270476 0 -0.144214)
(-0.170929 0 -0.0826944)
(-0.303618 0 -0.0931974)
(-0.189223 0 -0.0405294)
(-0.331941 0 -0.0496891)
(-0.207873 0 -0.00328638)
(-0.357448 0 -0.0113377)
(-0.222084 0 0.0271111)
(-0.379874 0 0.0198204)
(-0.229743 0 0.047848)
(-0.389385 0 0.0427644)
(-0.235505 0 0.0593383)
(-0.398326 0 0.0581819)
(-0.241928 0 0.0636466)
(-0.406628 0 0.0663249)
(-0.25047 0 0.0627858)
(-0.415991 0 0.0686358)
(-0.26209 0 0.0585956)
(-0.427583 0 0.0667582)
(-0.277119 0 0.0526673)
(-0.441879 0 0.0621369)
(-0.295169 0 0.0463567)
(-0.458713 0 0.0560896)
(-0.31546 0 0.0406391)
(-0.477542 0 0.0497826)
(-0.337028 0 0.0360694)
(-0.497605 0 0.0441638)
(-0.358723 0 0.0328566)
(-0.517989 0 0.0399018)
(-0.379599 0 0.0308471)
(-0.537877 0 0.0370034)
(-0.398729 0 0.029423)
(-0.556369 0 0.0349056)
(-0.41567 0 0.0279145)
(-0.573013 0 0.032859)
(-0.430352 0 0.0261668)
(-0.587459 0 0.0304838)
(-0.442938 0 0.0244309)
(-0.599596 0 0.0279894)
(-0.453809 0 0.0229712)
(-0.609712 0 0.0258461)
(-0.463229 0 0.0215752)
(-0.618443 0 0.0242549)
(-0.471288 0 0.0197279)
(-0.626305 0 0.022639)
(-0.631843 0 0.0205954)
(-0.0432275 0 -0.697816)
(-0.0489738 0 -0.73746)
(-0.112822 0 -0.546246)
(-0.111169 0 -0.582203)
(-0.184296 0 -0.408525)
(-0.222139 0 -0.427466)
(-0.253552 0 -0.30315)
(-0.311016 0 -0.312619)
(-0.316908 0 -0.220696)
(-0.396036 0 -0.224867)
(-0.37332 0 -0.155011)
(-0.470397 0 -0.156725)
(-0.422682 0 -0.10135)
(-0.534472 0 -0.102326)
(-0.465332 0 -0.0562663)
(-0.588808 0 -0.0578595)
(-0.501986 0 -0.017802)
(-0.634561 0 -0.020037)
(-0.530248 0 0.0135345)
(-0.670181 0 0.0109851)
(-0.549294 0 0.0372884)
(-0.693956 0 0.0345088)
(-0.562359 0 0.0545198)
(-0.710109 0 0.0526025)
(-0.572757 0 0.0656259)
(-0.7229 0 0.0658266)
(-0.582962 0 0.0709978)
(-0.733923 0 0.0736506)
(-0.594505 0 0.0718381)
(-0.745028 0 0.076726)
(-0.608004 0 0.0693524)
(-0.7573 0 0.0759964)
(-0.62343 0 0.0646678)
(-0.771102 0 0.072444)
(-0.640376 0 0.0589151)
(-0.786282 0 0.0671448)
(-0.658373 0 0.053171)
(-0.802508 0 0.0612464)
(-0.677016 0 0.0482578)
(-0.819465 0 0.055759)
(-0.695746 0 0.0444813)
(-0.83679 0 0.0512754)
(-0.713836 0 0.0415523)
(-0.853964 0 0.0477297)
(-0.730455 0 0.0388455)
(-0.870247 0 0.0445263)
(-0.744907 0 0.0358755)
(-0.884858 0 0.041028)
(-0.756869 0 0.0326649)
(-0.897148 0 0.0370853)
(-0.766464 0 0.0296491)
(-0.906896 0 0.0331595)
(-0.774147 0 0.0271881)
(-0.914475 0 0.0298881)
(-0.78041 0 0.0251527)
(-0.92071 0 0.0274724)
(-0.786063 0 0.0232979)
(-0.926108 0 0.0254742)
(-0.929384 0 0.023908)
(-0.0989437 0 -0.614667)
(-0.0903167 0 -0.64055)
(-0.219513 0 -0.453667)
(-0.20281 0 -0.466901)
(-0.338782 0 -0.321075)
(-0.365269 0 -0.316102)
(-0.449243 0 -0.224742)
(-0.498161 0 -0.211915)
(-0.546737 0 -0.153087)
(-0.61803 0 -0.138085)