/*--------------------------------*- C++ -*----------------------------------*\
  =========                 |
  \\      /  F ield         | OpenFOAM: The Open Source CFD Toolbox
   \\    /   O peration     | Website:  https://openfoam.org
    \\  /    A nd           | Version:  dev
     \\/     M anipulation  |
\*---------------------------------------------------------------------------*/
FoamFile
{
    version     2.0;
    format      ascii;
    class       volScalarField;
    location    "9.4";
    object      p;
}
// * * * * * * * * * * * * * * * * * * * * * * * * * * * * * * * * * * * * * //

dimensions      [0 2 -2 0 0 0 0];

internalField   nonuniform List<scalar> 
2790
(
146.678
146.586
146.853
147.424
148.204
149.162
150.294
151.601
153.077
154.718
156.518
158.469
160.563
162.788
165.129
167.564
170.069
172.608
175.14
177.614
179.972
182.149
184.08
185.7
186.96
187.833
188.269
188.325
188.376
188.588
146.476
146.493
146.786
147.354
148.13
149.084
150.212
151.513
152.982
154.615
156.405
158.346
160.429
162.643
164.972
167.398
169.894
172.427
174.958
177.436
179.804
181.999
183.953
185.602
186.886
187.76
188.157
188.211
188.344
188.629
146.277
146.364
146.676
147.234
147.997
148.938
150.051
151.334
152.782
154.39
156.152
158.061
160.11
162.285
164.574
166.956
169.408
171.899
174.391
176.838
179.188
181.38
183.353
185.042
186.393
187.369
187.961
188.317
188.632
188.931
146.052
146.17
146.494
147.043
147.792
148.717
149.81
151.069
152.488
154.063
155.786
157.652
159.65
161.771
164
166.318
168.702
171.125
173.552
175.943
178.25
180.422
182.404
184.143
185.597
186.749
187.617
188.288
188.84
189.359
145.791
145.924
146.256
146.798
147.53
148.434
149.501
150.728
152.11
153.642
155.316
157.125
159.061
161.112
163.264
165.5
167.798
170.133
172.475
174.788
177.033
179.168
181.15
182.941
184.511
185.853
186.983
187.946
188.756
189.503
145.49
145.628
145.963
146.495
147.207
148.085
149.121
150.31
151.648
153.127
154.743
156.485
158.346
160.314
162.376
164.514
166.709
168.938
171.175
173.391
175.553
177.631
179.592
181.413
183.076
184.578
185.924
187.129
188.149
189.067
145.148
145.287
145.618
146.137
146.826
147.674
148.673
149.819
151.105
152.525
154.072
155.738
157.513
159.386
161.343
163.369
165.445
167.551
169.664
171.76
173.815
175.806
177.714
179.524
181.23
182.831
184.324
185.703
186.868
187.914
144.763
144.9
145.224
145.727
146.39
147.204
148.162
149.257
150.485
151.838
153.308
154.888
156.567
158.333
160.173
162.072
164.013
165.978
167.946
169.898
171.815
173.683
175.49
177.232
178.911
180.53
182.085
183.557
184.807
185.957
144.337
144.47
144.784
145.267
145.901
146.677
147.588
148.629
149.793
151.072
152.458
153.942
155.515
157.163
158.874
160.632
162.422
164.226
166.025
167.804
169.548
171.246
172.894
174.495
176.057
177.592
179.1
180.571
181.842
183.08
143.87
143.998
144.299
144.759
145.362
146.097
146.958
147.938
149.032
150.231
151.526
152.907
154.364
155.885
157.454
159.058
160.68
162.302
163.908
165.482
167.011
168.485
169.904
171.272
172.605
173.924
175.245
176.583
177.784
179.088
143.365
143.487
143.772
144.207
144.775
145.466
146.273
147.19
148.209
149.322
150.519
151.79
153.124
154.506
155.924
157.36
158.798
160.219
161.606
162.941
164.209
165.399
166.507
167.535
168.5
169.43
170.361
171.36
172.323
173.641
142.823
142.937
143.205
143.614
144.145
144.788
145.538
146.387
147.327
148.35
149.444
150.599
151.802
153.039
154.294
155.551
156.789
157.99
159.133
160.195
161.157
162
162.709
163.275
163.702
164.014
164.258
164.568
164.951
166.124
142.246
142.352
142.602
142.982
143.474
144.068
144.758
145.536
146.394
147.321
148.308
149.341
150.408
151.492
152.577
153.644
154.671
155.635
156.511
157.27
157.883
158.318
158.541
158.517
158.215
157.619
156.747
155.759
154.814
155.321
141.636
141.735
141.965
142.314
142.765
143.308
143.936
144.641
145.414
146.243
147.119
148.027
148.952
149.879
150.788
151.657
152.462
153.176
153.768
154.2
154.43
154.408
154.07
153.339
152.118
150.291
147.733
144.438
140.498
138.47
140.997
141.087
141.297
141.614
142.023
142.513
143.077
143.707
144.392
145.122
145.884
146.664
147.446
148.211
148.939
149.605
150.183
150.639
150.936
151.026
150.853
150.343
149.399
147.885
145.608
142.28
137.442
130.437
119.996
107.805
0.518803
0.498759
0.429012
0.332649
0.233078
0.142467
0.0657115
0.00447532
-0.0411181
-0.0722561
-0.0896693
-0.0959114
-0.0938213
-0.0860964
-0.0752012
-0.0632506
-0.0518481
-0.0419982
-0.0341453
-0.0282904
-0.0241171
-0.0211246
-0.0187757
-0.0166388
-0.0144747
-0.012212
-0.00985522
-0.00740014
-0.00479417
-0.00194351
0.469865
0.447304
0.381686
0.292829
0.201036
0.116975
0.0452591
-0.0122379
-0.0548264
-0.0821912
-0.0971181
-0.101423
-0.097637
-0.0884249
-0.0762929
-0.0633966
-0.0513552
-0.0411695
-0.0332412
-0.0275003
-0.0235409
-0.0207715
-0.0185871
-0.0165337
-0.0143951
-0.0121383
-0.00979431
-0.00736681
-0.00479125
-0.00184193
0.414607
0.387725
0.324778
0.24305
0.15966
0.0831631
0.0176523
-0.0349088
-0.0737549
-0.0989378
-0.111042
-0.112322
-0.105581
-0.0935393
-0.0788307
-0.0637705
-0.050089
-0.0388241
-0.0303949
-0.0246915
-0.0211687
-0.0190055
-0.0173606
-0.0156553
-0.0136962
-0.0115375
-0.00928822
-0.00698704
-0.00455266
-0.0017674
0.359773
0.328444
0.267342
0.191772
0.116251
0.0470301
-0.0123409
-0.0598913
-0.0947177
-0.11673
-0.125995
-0.124191
-0.114202
-0.098969
-0.0813834
-0.0639304
-0.0484419
-0.0360385
-0.0271731
-0.0216812
-0.0188236
-0.017464
-0.0164539
-0.0150919
-0.0132637
-0.0111664
-0.00900419
-0.00685027
-0.00462574
-0.00214951
0.318723
0.283216
0.223767
0.152712
0.0830248
0.0190447
-0.0358963
-0.0797958
-0.111601
-0.131012
-0.13807
-0.134087
-0.121427
-0.103463
-0.0834663
-0.0640599
-0.0471367
-0.0338746
-0.0247493
-0.019556
-0.0173493
-0.0166842
-0.01613
-0.014918
-0.0130645
-0.0108994
-0.00873426
-0.00665245
-0.00451173
-0.00219147
0.303562
0.263037
0.204801
0.135554
0.068306
0.0062375
-0.0471516
-0.0897988
-0.120587
-0.139169
-0.145538
-0.1401
-0.125681
-0.10612
-0.0848038
-0.0643644
-0.0467071
-0.0330138
-0.0237233
-0.018654
-0.0167756
-0.0165156
-0.0161892
-0.0150501
-0.0131888
-0.0109958
-0.00882249
-0.00676655
-0.00474373
-0.0023088
0.325145
0.27702
0.21821
0.146443
0.0766669
0.0121981
-0.0432076
-0.0873916
-0.119113
-0.138071
-0.145371
-0.141162
-0.12682
-0.107162
-0.0857749
-0.0653301
-0.0477322
-0.0341327
-0.0249818
-0.0199525
-0.0178982
-0.0172903
-0.016735
-0.0154717
-0.0135422
-0.0113017
-0.00909331
-0.0071164
-0.00530398
-0.00247468
0.389459
0.33236
0.265257
0.185218
0.107112
0.0358959
-0.0247185
-0.0727096
-0.107349
-0.129265
-0.139377
-0.137445
-0.125345
-0.107402
-0.0872935
-0.0677669
-0.0506975
-0.0372112
-0.0277891
-0.0222441
-0.0196595
-0.0186723
-0.0179544
-0.0166739
-0.0146783
-0.0122539
-0.00985702
-0.00789793
-0.00616569
-0.00266337
0.498837
0.42457
0.339165
0.243163
0.151697
0.0703315
0.00232687
-0.0509048
-0.0901449
-0.116812
-0.130377
-0.13122
-0.122142
-0.106834
-0.0888182
-0.0708277
-0.0546883
-0.0414888
-0.0317787
-0.0255997
-0.0223931
-0.0210673
-0.0203182
-0.0190949
-0.0169543
-0.014116
-0.0112622
-0.00906387
-0.00708818
-0.00284969
0.640842
0.535778
0.421355
0.302754
0.195685
0.104014
0.0282107
-0.0317661
-0.0758693
-0.1051
-0.120882
-0.124496
-0.118324
-0.105721
-0.0900954
-0.0740833
-0.0592924
-0.046608
-0.0366257
-0.0297584
-0.0259765
-0.0245461
-0.024103
-0.0231523
-0.0207896
-0.0171889
-0.0134343
-0.0105576
-0.0079673
-0.00302409
0.786739
0.633802
0.489915
0.347703
0.222898
0.120534
0.0400429
-0.0214016
-0.066424
-0.0967766
-0.114046
-0.119595
-0.115468
-0.104881
-0.0913827
-0.0775413
-0.0644677
-0.0524906
-0.0421389
-0.0344047
-0.030092
-0.0289622
-0.0294381
-0.0292143
-0.026606
-0.0217459
-0.0164272
-0.0123036
-0.00876533
-0.00318105
0.909622
0.700912
0.51477
0.352989
0.221104
0.116987
0.0365309
-0.0236139
-0.0664694
-0.0952217
-0.112245
-0.118429
-0.114935
-0.104978
-0.0928329
-0.0812305
-0.0703514
-0.0593018
-0.0482839
-0.0392121
-0.0342796
-0.0340089
-0.0363875
-0.0377053
-0.0349222
-0.0280766
-0.0202156
-0.0141728
-0.00945671
-0.00331622
0.960343
0.678847
0.462164
0.293357
0.168003
0.0764083
0.00731919
-0.0441732
-0.0793606
-0.102369
-0.116907
-0.122518
-0.117969
-0.106462
-0.0942951
-0.085049
-0.077253
-0.0675261
-0.0552119
-0.043775
-0.0378304
-0.0391511
-0.0449548
-0.049188
-0.0464665
-0.0365473
-0.0246685
-0.0159199
-0.0100049
-0.0034264
0.776097
0.405892
0.237115
0.12671
0.0427161
-0.00941441
-0.0497896
-0.0845784
-0.106064
-0.118105
-0.128152
-0.133179
-0.125897
-0.109263
-0.0946323
-0.0881565
-0.0853785
-0.0779447
-0.0632495
-0.0474748
-0.0396029
-0.0435035
-0.0550661
-0.0644575
-0.062328
-0.047681
-0.0294756
-0.0170582
-0.0103382
-0.00351031
0.131541
-0.31686
-0.268273
-0.174362
-0.169941
-0.134393
-0.122343
-0.143923
-0.151474
-0.1437
-0.145291
-0.151181
-0.139902
-0.112624
-0.0915313
-0.0893599
-0.0958453
-0.0928776
-0.0738058
-0.0498457
-0.0380576
-0.0457945
-0.0665738
-0.0846502
-0.0841607
-0.0622847
-0.0340281
-0.0166382
-0.0102888
-0.00356909
140.318
140.399
140.587
140.872
141.237
141.672
142.17
142.721
143.316
143.943
144.588
145.236
145.87
146.47
147.012
147.471
147.815
148.006
148
147.74
147.154
146.145
144.581
142.268
138.908
134.004
126.64
114.903
92.781
33.1389
139.591
139.662
139.828
140.078
140.397
140.775
141.204
141.675
142.176
142.696
143.221
143.733
144.215
144.644
144.997
145.244
145.35
145.274
144.963
144.353
143.36
141.87
139.724
136.691
132.414
126.309
117.343
103.784
84.2678
55.8026
138.821
138.883
139.025
139.239
139.51
139.83
140.188
140.576
140.982
141.394
141.795
142.17
142.498
142.756
142.919
142.954
142.824
142.484
141.878
140.935
139.565
137.645
135.011
131.434
126.588
120.017
111.131
99.2871
85.0293
68.3502
138.011
138.062
138.18
138.358
138.58
138.839
139.126
139.43
139.739
140.041
140.319
140.555
140.73
140.819
140.794
140.622
140.264
139.673
138.791
137.544
135.843
133.568
130.569
126.648
121.559
115.006
106.694
96.2847
83.7141
68.5384
137.161
137.202
137.296
137.436
137.609
137.807
138.021
138.241
138.453
138.645
138.8
138.9
138.924
138.847
138.64
138.27
137.697
136.873
135.741
134.23
132.255
129.708
126.461
122.357
117.216
110.836
103.017
93.5148
82.1596
69.1572
136.274
136.304
136.374
136.476
136.6
136.737
136.879
137.014
137.13
137.213
137.248
137.215
137.092
136.855
136.476
135.92
135.148
134.115
132.765
131.034
128.843
126.103
122.708
118.538
113.463
107.347
100.068
91.524
81.7061
71.0252
135.353
135.373
135.418
135.482
135.557
135.633
135.703
135.754
135.776
135.754
135.671
135.509
135.246
134.859
134.318
133.591
132.641
131.425
129.892
127.984
125.636
122.772
119.311
115.165
110.247
104.478
97.8019
90.2077
81.7382
72.7288
134.401
134.41
134.431
134.458
134.483
134.5
134.499
134.47
134.399
134.275
134.079
133.794
133.4
132.872
132.183
131.303
130.197
128.825
127.144
125.103
122.648
119.721
116.26
112.206
107.506
102.12
96.0321
89.2635
81.8635
74.1046
133.421
133.42
133.417
133.407
133.385
133.343
133.274
133.165
133.007
132.784
132.482
132.082
131.565
130.908
130.086
129.071
127.832
126.333
124.537
122.402
119.886
116.944
113.534
109.618
105.166
100.163
94.6165
88.5591
82.0446
75.301
132.418
132.407
132.38
132.335
132.266
132.168
132.033
131.849
131.606
131.291
130.888
130.382
129.753
128.981
128.042
126.911
125.561
123.961
122.081
119.887
117.347
114.429
111.106
107.354
103.161
98.5283
93.4732
88.0351
82.267
76.3542
131.396
131.375
131.326
131.246
131.133
130.981
130.782
130.527
130.205
129.804
129.309
128.705
127.975
127.101
126.061
124.833
123.393
121.718
119.782
117.559
115.025
112.16
108.946
105.372
101.438
97.1532
92.5407
87.6399
82.4989
77.2664
130.36
130.33
130.259
130.146
129.991
129.788
129.53
129.208
128.812
128.331
127.752
127.061
126.242
125.279
124.153
122.846
121.338
119.609
117.64
115.412
112.908
110.116
107.026
103.636
99.9515
95.9876
91.7691
87.3324
82.7195
78.0497
129.316
129.277
129.185
129.042
128.846
128.595
128.282
127.898
127.434
126.881
126.226
125.457
124.561
123.522
122.326
120.957
119.399
117.636
115.654
113.44
110.983
108.277
105.318
102.11
98.6621
94.9909
91.1212
87.0854
82.9194
78.7195
128.268
128.221
128.111
127.938
127.705
127.409
127.045
126.604
126.079
125.461
124.739
123.903
122.94
121.839
120.587
119.171
117.578
115.798
113.819
111.634
109.237
106.625
103.799
100.766
97.5378
94.1311
90.569
86.8798
83.0939
79.2893
127.224
127.17
127.041
126.841
126.574
126.238
125.827
125.335
124.755
124.079
123.299
122.404
121.386
120.235
118.939
117.489
115.876
114.092
112.13
109.985
107.655
105.14
102.445
99.5786
96.5523
93.3832
90.0918
86.7027
83.2413
79.7711
126.19
126.128
125.983
125.759
125.46
125.087
124.634
124.096
123.468
122.742
121.911
120.968
119.905
118.713
117.386
115.914
114.293
112.516
110.58
108.482
106.223
103.806
101.238
98.5263
95.6843
92.7274
89.674
86.5449
83.3616
80.1759
125.172
125.104
124.944
124.697
124.371
123.964
123.474
122.895
122.225
121.456
120.583
119.6
118.501
117.279
115.929
114.446
112.825
111.064
109.16
107.115
104.929
102.609
100.16
97.5915
94.9164
92.1484
89.3038
86.4004
83.4562
80.5136
124.177
124.103
123.93
123.663
123.312
122.875
122.353
121.739
121.032
120.227
119.319
118.304
117.177
115.934
114.571
113.084
111.471
109.732
107.866
105.875
103.762
101.533
99.1962
96.7595
94.2346
91.6344
88.9729
86.2654
83.5271
80.7931
123.213
123.134
122.949
122.665
122.29
121.829
121.277
120.634
119.896
119.061
118.125
117.084
115.937
114.68
113.31
111.827
110.228
108.515
106.689
104.753
102.711
100.569
98.3356
96.0183
93.628
91.176
88.6749
86.1376
83.577
81.0222
122.286
122.203
122.007
121.708
121.314
120.83
120.255
119.586
118.823
117.963
117.004
115.946
114.784
113.519
112.149
110.673
109.092
107.408
105.624
103.742
101.767
99.707
97.5678
95.3582
93.0877
90.7665
88.4055
86.0159
83.6087
81.208
121.405
121.318
121.113
120.8
120.39
119.887
119.291
118.602
117.818
116.938
115.963
114.891
113.72
112.452
111.085
109.621
108.062
106.408
104.664
102.834
100.924
98.9379
96.8845
94.7714
92.607
90.4007
88.1618
85.9001
83.6251
81.3569
120.577
120.487
120.274
119.95
119.526
119.007
118.394
117.687
116.886
115.992
115.004
113.923
112.748
111.48
110.121
108.671
107.133
105.51
103.806
102.026
100.173
98.2557
96.2795
94.252
92.1811
90.075
87.942
85.7908
83.6296
81.475
119.811
119.717
119.498
119.163
118.727
118.195
117.569
116.848
116.034
115.129
114.132
113.045
111.869
110.605
109.255
107.82
106.305
104.712
103.046
101.31
99.5116
97.655
95.7473
93.7952
91.8058
89.7867
87.7452
85.6888
83.6248
81.5672
119.114
119.017
118.792
118.449
118.003
117.46
116.822
116.091
115.267
114.354
113.351
112.262
111.087
109.828
108.488
107.07
105.577
104.012
102.38
100.686
98.9352
97.1327
95.2851
93.3985
91.4796
89.5351
87.5717
85.5962
83.6148
81.6395
118.495
118.396
118.165
117.814
117.36
116.807
116.161
115.421
114.59
113.671
112.665
111.575
110.403
109.151
107.822
106.419
104.946
103.408
101.807
100.15
98.4404
96.685
94.889
93.0585
91.1995
89.3182
87.4207
85.5129
83.6007
81.6939
117.963
117.861
117.625
117.267
116.805
116.246
115.592
114.846
114.01
113.088
112.08
110.991
109.822
108.577
107.259
105.871
104.417
102.901
101.328
99.7019
98.0285
96.3129
94.5606
92.7771
90.9681
89.1393
87.2964
85.4448
83.5898
81.7398
117.528
117.423
117.179
116.814
116.345
115.779
115.12
114.369
113.53
112.605
111.597
110.509
109.345
108.107
106.798
105.423
103.985
102.489
100.938
99.3386
97.6947
96.0116
94.2946
92.549
90.7801
88.9933
87.1937
85.3865
83.5765
81.7706
117.202
117.091
116.838
116.466
115.993
115.423
114.76
114.005
113.163
112.237
111.229
110.143
108.982
107.75
106.45
105.085
103.66
102.18
100.648
99.0689
97.4482
95.7907
94.1013
92.3852
90.6475
88.8933
87.1274
85.3547
83.58
81.8092
117
116.866
116.596
116.218
115.742
115.169
114.504
113.747
112.904
111.978
110.971
109.887
108.73
107.502
106.208
104.851
103.436
101.966
100.447
98.8824
97.2776
95.6372
93.9663
92.2698
90.5527
88.8198
87.0758
85.3253
83.5728
81.8233
116.982
116.783
116.485
116.101
115.622
115.046
114.378
113.62
112.776
111.849
110.843
109.761
108.607
107.383
106.093
104.742
103.333
101.871
100.36
98.8053
97.2108
95.5816
93.9225
92.2384
90.5341
88.8144
87.0839
85.3471
83.6082
81.8716
-50.3878
-30.1138
-11.0822
35.4074
27.8936
15.7157
50.7976
38.6699
27.4032
52.2369
41.7948
33.726
56.5814
48.2766
41.5009
60.972
54.0496
48.1454
64.2523
58.3609
53.3029
66.8564
61.824
57.5083
69.0526
64.7145
61.0007
70.9071
67.1239
63.8933
72.4671
69.1335
66.2939
73.782
70.8171
68.2967
74.8923
72.2328
69.9753
75.8304
73.4261
71.3873
76.6228
74.4336
72.5785
77.2913
75.285
73.5853
77.8543
76.0043
74.4369
78.3271
76.6112
75.1569
78.7224
77.1222
75.7648
79.0516
77.5511
76.2771
79.3241
77.9095
76.7071
79.5485
78.208
77.0669
79.7316
78.4546
77.3658
79.8814
78.6584
77.6138
80.0004
78.8227
77.8153
80.1005
78.9602
77.9829
80.1729
79.0625
78.1099
80.2462
79.1586
78.2233
80.2806
79.2093
78.288
80.3498
79.2926
78.3778
-3.06584
-2.9963
-1.552
-0.415299
-0.372997
-0.267554
-0.210694
-0.246651
-0.227681
-0.16201
-0.148043
-0.170081
-0.163936
-0.119967
-0.0826161
-0.0863902
-0.109328
-0.114625
-0.0875154
-0.0482835
-0.0290522
-0.0430313
-0.0788836
-0.111638
-0.115003
-0.082067
-0.0373325
-0.012805
-0.00937825
-0.00360921
1.92968
-0.909345
0.692837
0.16376
-1.2234
-0.953223
-0.266081
-0.260407
-0.233108
-0.128801
-0.155786
-0.242229
-0.245657
-0.140116
-0.0451379
-0.0621808
-0.121883
-0.149068
-0.111982
-0.0446028
-0.0108944
-0.0348164
-0.0943384
-0.150432
-0.160807
-0.110239
-0.0373972
-0.0016574
-0.00614011
-0.00365583
13.114
4.7634
1.91816
-0.548763
-0.824853
0.832483
0.957409
-0.531764
-0.864027
-0.466602
-0.132655
-0.231889
-0.243584
-0.0519629
0.0508638
-0.0360435
-0.171007
-0.235239
-0.167326
-0.0302824
0.0369854
-0.0053947
-0.102395
-0.195816
-0.221243
-0.147932
-0.0304634
0.0238924
0.00290388
-0.00380195
22.9349
13.0293
7.1222
3.3555
1.67526
1.2068
-0.0988094
-0.776821
-0.28211
0.891384
0.692956
-0.412733
-0.77497
-0.493663
0.0531344
0.0686892
-0.171501
-0.2922
-0.177563
0.0435748
0.119128
0.0294724
-0.127811
-0.279911
-0.333272
-0.229679
-0.0150401
0.0737897
0.0238915
-0.00432673
32.1285
22.3385
15.0049
9.71927
6.10044
3.63805
1.7516
0.776609
0.557569
0.501186
-0.0365491
-0.646872
-0.661107
0.482914
0.990673
0.238565
-0.345307
-0.645127
-0.547374
-0.0513772
0.22078
0.105547
-0.126569
-0.348605
-0.428858
-0.241684
0.032693
0.16275
0.0641036
-0.00598787
40.1263
31.1813
23.2813
16.8455
11.9228
8.28717
5.62325
3.74937
2.4832
1.5569
0.784846
0.198365
0.0351309
0.416945
0.408664
0.0894629
-0.387703
-0.647026
-0.282439
0.503523
0.623551
0.169614
-0.18448
-0.506881
-0.702549
-0.566649
0.0242006
0.290187
0.127349
-0.0111375
46.6552
38.834
31.0444
24.146
18.5209
14.0684
10.551
7.79885
5.70611
4.13327
2.91603
1.97237
1.37342
1.10402
0.845346
0.476198
-0.00467757
-0.274012
-0.105178
0.244853
0.375851
0.178795
-0.162435
-0.540519
-0.737385
-0.358908
0.395466
0.53788
0.204894
-0.0242296
51.9726
45.2289
37.9592
31.1212
25.2361
20.2926
16.1545
12.7346
9.96954
7.7598
5.97812
4.54939
3.47619
2.72404
2.12397
1.51865
0.929003
0.542436
0.461101
0.548964
0.561419
0.337594
-0.036808
-0.398096
-0.544162
-0.277064
0.18002
0.398844
0.305677
-0.0635858
56.3102
50.4842
43.8903
37.4095
31.588
26.4761
22.0083
18.1497
14.8715
12.1173
9.8128
7.90279
6.35959
5.13696
4.12503
3.22275
2.43482
1.84459
1.49683
1.31049
1.10997
0.775771
0.362279
0.0042212
-0.155603
-0.028111
0.2534
0.397831
0.261412
-0.303085
59.8504
54.776
48.8659
42.8751
37.3179
32.2723
27.7092
23.6242
20.0192
16.8758
14.1578
11.8281
9.8546
8.19549
6.78366
5.55808
4.50469
3.6497
3.00481
2.51395
2.06627
1.58503
1.09318
0.675872
0.42464
0.382459
0.457569
0.437687
0.172672
-0.518083
62.7582
58.2938
53.0083
47.5355
42.3366
37.4953
32.9986
28.8581
25.0952
21.7157
18.708
16.0522
13.7256
11.6991
9.93252
8.38631
7.04042
5.89505
4.9449
4.15073
3.44501
2.77636
2.14747
1.60512
1.2029
0.957202
0.798418
0.578983
0.171422
-0.592712
65.167
61.1999
56.458
51.4758
46.6595
42.0878
37.7539
33.6753
29.8816
26.3919
23.2099
20.3301
17.7416
15.4275
13.3647
11.5279
9.89915
8.46931
7.2267
6.14329
5.17644
4.29053
3.47905
2.76348
2.17027
1.7
1.29977
0.868037
0.307299
-0.521771
67.1766
63.6189
59.3412
54.8002
50.353
46.0704
41.9464
37.9983
34.258
30.7501
27.4876
24.4744
21.709
19.1846
16.8894
14.8087
12.9293
11.241
9.73136
8.38014
7.15942
6.04421
5.02461
4.10661
3.29902
2.59408
1.95168
1.30201
0.576074
-0.330986
68.8624
65.6453
61.7622
57.6085
53.5004
49.5004
45.6012
41.8175
38.1798
34.7146
31.439
28.3626
25.4904
22.8226
20.3553
18.0815
15.9932
14.082
12.3379
10.7463
9.28857
7.94692
6.71077
5.57767
4.54635
3.60542
2.72441
1.85554
0.952728
-0.0562381
70.2826
67.3512
63.8039
59.987
56.183
52.4466
48.7689
45.1611
41.6511
38.2645
35.02
31.9302
29.0039
26.246
23.6578
21.2379
18.9824
16.8862
14.9422
13.1405
11.4683
9.913
8.46455
7.1167
5.86326
4.69188
3.57927
2.49265
1.40199
0.262606
71.4822
68.7923
65.5315
62.0067
58.4719
54.9755
51.5068
48.0737
44.7007
41.4117
38.2251
35.1549
32.2118
29.4036
26.735
24.2082
21.8228
19.5768
17.4659
15.4838
13.6219
11.8711
10.2227
8.66929
7.20268
5.81101
4.47613
3.175
1.8875
0.590159
72.4971
70.012
66.9968
63.725
60.4271
57.1462
53.87
50.6036
47.3677
44.1842
41.0704
38.0405
35.1058
32.2758
29.5573
26.9549
24.4708
22.1053
19.8568
17.7216
15.6943
13.7683
11.9365
10.1914
8.52479
6.92563
5.37932
3.86866
2.37878
0.900947
73.3561
71.0454
68.2409
65.1884
62.0982
59.0091
55.9078
52.7964
49.6926
46.6157
43.5818
40.6042
37.6946
34.8628
32.1169
29.463
26.9051
24.4454
22.0843
19.8202
17.6499
15.5689
13.5714
11.6509
9.79934
8.00681
6.26091
4.54764
2.85411
1.18063
74.0825
71.9206
69.2973
66.4349
63.5264
60.607
57.6627
54.6933
51.7135
48.7403
45.7881
42.8693
39.9949
37.1749
34.418
31.731
29.1191
26.5859
24.1332
21.761
19.468
17.2511
15.1057
13.0263
11.0055
9.03414
7.10127
5.19427
3.3003
1.42423
74.6958
72.6609
70.1934
67.4955
64.7455
61.9755
59.1711
56.3302
53.4648
50.5898
47.7177
44.8599
42.0267
39.2276
36.4713
33.7651
31.1148
28.5249
25.9981
23.536
21.1381
18.8027
16.5264
14.3043
12.1298
9.99447
7.88789
5.79791
3.71088
1.63308
75.2122
73.2855
70.9518
68.3961
65.7838
63.1448
60.4641
57.7381
54.9768
52.1927
49.3971
46.5998
43.8104
41.0377
38.2902
35.575
32.8985
30.2654
27.6794
25.1426
22.6558
20.2179
17.8265
15.4773
13.1644
10.8797
8.61326
6.35277
4.08347
1.81134
75.6454
73.8108
71.5918
69.1586
66.6654
64.1402
61.568
58.944
56.2759
53.5748
50.8503
48.1112
45.3658
42.6224
39.8889
37.1722
34.4787
31.8134
29.1804
26.5823
24.0204
21.4945
19.0027
16.5413
14.1048
11.6856
9.27361
6.85644
4.41833
1.96391
76.0067
74.2501
72.1288
69.8004
67.4097
64.9828
62.5049
59.9701
57.3847
54.758
52.0983
49.4133
46.7105
43.9971
41.2806
38.5676
35.8641
33.1752
30.5053
27.8572
25.2325
22.6317
20.0531
17.4936
14.948
12.4089
9.86623
7.30728
4.71565
2.09418
76.3069
74.6158
72.5773
70.3379
68.0344
65.6915
63.2947
60.8371
58.3237
55.7625
53.1608
50.525
47.8617
45.1777
42.4794
39.7732
37.0648
34.3592
31.6606
28.972
26.2955
23.6316
20.979
18.3348
15.6941
13.0496
10.3914
7.70628
4.97759
2.20587
76.5524
74.9157
72.9462
70.7814
68.551
66.279
63.9506
61.5587
59.1069
56.6023
54.051
51.4588
48.8312
46.1744
43.4942
40.7964
38.0865
35.3692
32.6486
29.9279
27.209
24.4926
21.7777
19.0616
16.3395
13.6041
10.8455
8.0505
5.20207
2.29855
76.7548
75.1623
73.2496
71.1461
68.9759
66.7622
64.4906
62.1532
59.7529
57.2959
54.7874
52.2324
49.6359
47.0033
44.3399
41.651
38.9417
36.2166
33.4794
30.7334
27.9806
25.2215
22.4553
19.6795
16.8893
14.0774
11.2338
8.34529
5.3947
2.37734
76.9111
75.3535
73.4856
71.4307
69.3084
67.1411
64.9147
62.621
60.2622
57.8435
55.3697
52.8453
50.2745
47.6621
45.0132
42.3325
39.6249
36.8945
34.1452
31.3799
28.6004
25.8077
23.0007
20.177
17.3317
14.4576
11.5448
8.57978
5.54557
2.43522
77.0434
75.5115
73.6777
71.6597
69.5735
67.4413
65.2492
62.9887
60.6614
58.2721
55.825
53.324
50.7731
48.1767
45.5393
42.8654
40.1596
37.4258
34.6676
31.888
29.0887
26.2705
23.4325
20.5721
17.6845
14.7624
11.7958
8.77104
5.6709
2.48471
77.1249
75.6091
73.7976
71.8047
69.743
67.6342
65.465
63.2267
60.9206
58.551
56.1218
53.6367
51.0994
48.5138
45.8843
43.2152
40.5108
37.775
35.0111
32.2221
29.4096
26.5743
23.7155
20.8303
17.9141
14.9593
11.9557
8.8894
5.74314
2.50463
77.214
75.6993
73.9001
71.9222
69.8741
67.778
65.6209
63.3943
61.0992
58.7396
56.3195
53.8421
51.3112
48.7305
46.1043
43.4368
40.7321
37.994
35.226
32.4308
29.6102
26.7648
23.8938
20.9945
18.062
15.0889
12.0643
8.97376
5.79726
2.511
)
;

boundaryField
{
    inlet
    {
        type            zeroGradient;
    }
    outlet
    {
        type            fixedValue;
        value           uniform 0;
    }
    flap
    {
        type            zeroGradient;
    }
    upperWall
    {
        type            zeroGradient;
    }
    lowerWall
    {
        type            zeroGradient;
    }
    frontAndBack
    {
        type            empty;
    }
}


// ************************************************************************* //
