/*--------------------------------*- C++ -*----------------------------------*\
  =========                 |
  \\      /  F ield         | OpenFOAM: The Open Source CFD Toolbox
   \\    /   O peration     | Website:  https://openfoam.org
    \\  /    A nd           | Version:  dev
     \\/     M anipulation  |
\*---------------------------------------------------------------------------*/
FoamFile
{
    version     2.0;
    format      ascii;
    class       surfaceScalarField;
    location    "9.4";
    object      phi;
}
// * * * * * * * * * * * * * * * * * * * * * * * * * * * * * * * * * * * * * //

dimensions      [0 3 -1 0 0 0 0];

internalField   nonuniform List<scalar> 
5457
(
0.198418
0.0015824
0.19648
0.0019374
0.194192
0.00228813
0.191508
0.00268364
0.188427
0.00308128
0.18495
0.00347687
0.181072
0.00387869
0.176777
0.00429416
0.172049
0.00472839
0.166864
0.00518542
0.161195
0.00566873
0.155014
0.00618128
0.148288
0.00672523
0.140987
0.00730162
0.133077
0.0079098
0.12453
0.00854675
0.115324
0.00920618
0.105447
0.00987745
0.0949023
0.0105443
0.0837186
0.0111837
0.0719539
0.0117647
0.0597055
0.0122483
0.0471169
0.0125886
0.0343769
0.01274
0.0216822
0.0126948
0.00903227
0.0126499
-0.00291949
0.0119518
-0.00847335
0.00555387
-0.00804341
-0.000429938
-0.00804341
0.199928
0.00165426
0.199176
0.00268988
0.197965
0.00349912
0.196331
0.00431689
0.194271
0.00514141
0.191781
0.00596704
0.188854
0.0068058
0.185477
0.00767117
0.181632
0.00857348
0.177296
0.00952102
0.172444
0.0105211
0.167045
0.0115799
0.161068
0.0127023
0.154479
0.0138909
0.147244
0.0151452
0.13933
0.0164602
0.130712
0.0178244
0.121372
0.0192179
0.111306
0.0206094
0.100536
0.0219538
0.0891118
0.0231893
0.0771241
0.024236
0.0647182
0.0249945
0.0521109
0.0253473
0.039651
0.0251547
0.0281017
0.0241992
0.0185913
0.0214621
0.00879362
0.0153515
0.00118174
0.00718194
-0.00686167
0.199781
0.00187371
0.199087
0.00338375
0.197946
0.0046401
0.196409
0.00585357
0.194483
0.00706763
0.192164
0.0082862
0.189446
0.00952336
0.18632
0.0107968
0.182772
0.0121216
0.178783
0.0135101
0.174331
0.0149734
0.16939
0.0165212
0.163931
0.0181611
0.157923
0.0198983
0.151335
0.0217337
0.144133
0.0236623
0.136287
0.0256702
0.127773
0.0277321
0.118576
0.0298066
0.108697
0.0318319
0.0981653
0.0337214
0.087043
0.0353584
0.0754463
0.0365912
0.0635693
0.0372242
0.0517278
0.0369962
0.0403932
0.0355339
0.0297354
0.0321199
0.0191635
0.0259235
0.00959609
0.0167494
0.00273441
0.199703
0.00217066
0.199008
0.00407909
0.197887
0.00576067
0.196376
0.00736455
0.194488
0.00895583
0.192222
0.0105523
0.189574
0.0121712
0.186538
0.0138329
0.183103
0.0155562
0.179257
0.0173568
0.174981
0.0192487
0.170259
0.021244
0.165067
0.0233531
0.159382
0.0255828
0.15318
0.0279358
0.146435
0.0304078
0.13912
0.0329849
0.131212
0.0356397
0.122693
0.0383261
0.113552
0.0409731
0.103794
0.0434785
0.0934517
0.0457011
0.0825905
0.0474525
0.0713278
0.0484869
0.0598362
0.0484878
0.0483127
0.0470573
0.0368075
0.0436251
0.0251854
0.0375455
0.0133343
0.0286005
0.0160687
0.199667
0.00250327
0.198964
0.00478239
0.197863
0.00686204
0.196381
0.00884629
0.194532
0.0108047
0.192317
0.012767
0.189733
0.0147551
0.186775
0.0167917
0.183433
0.018898
0.179697
0.0210927
0.175554
0.0233918
0.170988
0.0258094
0.165984
0.0283571
0.160524
0.0310434
0.154588
0.0338716
0.148157
0.0368386
0.141211
0.0399311
0.133729
0.0431216
0.125692
0.0463633
0.117082
0.0495828
0.107888
0.0526723
0.0981093
0.0554803
0.0877593
0.0578025
0.0768733
0.0593728
0.0655036
0.0598575
0.0537035
0.0588575
0.0414502
0.0558783
0.028585
0.0504107
0.0148509
0.0423346
0.0309197
0.199653
0.00285048
0.198949
0.00548648
0.197871
0.00794003
0.196426
0.0102905
0.194626
0.0126048
0.192473
0.0149206
0.189963
0.0172649
0.187092
0.0196626
0.183853
0.0221375
0.180235
0.0247101
0.176228
0.0273985
0.17182
0.0302183
0.166994
0.0331822
0.161738
0.0362996
0.156035
0.0395749
0.149868
0.0430056
0.143219
0.0465797
0.13607
0.0502714
0.128397
0.054036
0.120177
0.0578028
0.111382
0.061467
0.101983
0.0648794
0.0919488
0.0678368
0.081248
0.0700736
0.0698484
0.071257
0.0577116
0.0709943
0.0447563
0.0688337
0.0308459
0.0643211
0.0158715
0.0573091
0.0467911
0.19965
0.00320045
0.198954
0.00618249
0.197904
0.0089897
0.196505
0.0116903
0.194762
0.0143471
0.19268
0.0170027
0.190256
0.0196886
0.187487
0.0224324
0.184364
0.0252597
0.180881
0.0281932
0.177027
0.0312527
0.17279
0.0344551
0.168158
0.0378146
0.163116
0.0413415
0.157649
0.0450415
0.151742
0.0489135
0.145374
0.0529477
0.138524
0.0571214
0.131165
0.0613947
0.123264
0.0657041
0.114776
0.0699542
0.105648
0.0740077
0.09581
0.077675
0.0851793
0.0807043
0.0736615
0.0827748
0.0611552
0.0835006
0.0475499
0.082439
0.0327548
0.0791163
0.0167808
0.073283
0.0635719
0.199655
0.00354581
0.198974
0.00686263
0.197959
0.0100055
0.19661
0.0130391
0.194934
0.0160232
0.192933
0.0190034
0.190607
0.0220148
0.187952
0.0250877
0.184962
0.0282498
0.181629
0.0315255
0.177946
0.0349363
0.1739
0.0385007
0.16948
0.0422344
0.164672
0.0461492
0.159461
0.0502527
0.153828
0.0545463
0.147753
0.0590234
0.141208
0.0636666
0.134159
0.0684436
0.126561
0.0733015
0.118355
0.07816
0.109462
0.082901
0.0997788
0.0873582
0.0891793
0.0913038
0.0775171
0.094437
0.0646398
0.0963779
0.0504109
0.0966679
0.0347633
0.0947639
0.0177872
0.0902591
0.0813591
0.199664
0.00388165
0.199006
0.00752046
0.19803
0.0109818
0.196739
0.0143306
0.195136
0.0176253
0.193227
0.0209133
0.191009
0.0242327
0.18848
0.0276165
0.185636
0.0310939
0.18247
0.0346914
0.178974
0.0384319
0.175139
0.0423359
0.170953
0.0464205
0.166402
0.0507
0.161471
0.0551842
0.156139
0.0598781
0.150382
0.0647802
0.144169
0.0698801
0.137457
0.0751558
0.130189
0.0805688
0.122291
0.0860585
0.113659
0.091533
0.104159
0.0968575
0.0936245
0.101839
0.081855
0.106206
0.06864
0.109593
0.0537936
0.111514
0.0372302
0.111327
0.0190799
0.108409
0.100439
0.199677
0.00420444
0.199047
0.00815073
0.198116
0.0119131
0.196887
0.0155589
0.195366
0.0191462
0.193556
0.0227239
0.191456
0.0263326
0.189065
0.0300073
0.186379
0.0337793
0.183395
0.0376763
0.180103
0.0417233
0.176497
0.0459422
0.172565
0.0503524
0.168294
0.0549704
0.163669
0.0598094
0.158668
0.0648788
0.153265
0.0701834
0.147424
0.0757217
0.141095
0.0814842
0.134214
0.0874504
0.126688
0.0935839
0.118396
0.0998251
0.109174
0.10608
0.0988083
0.112204
0.0870407
0.117974
0.0735781
0.123056
0.0581376
0.126955
0.0405433
0.128922
0.0208965
0.128056
0.121336
0.199693
0.00451152
0.199095
0.00874913
0.198213
0.0127948
0.197053
0.0167186
0.19562
0.0205796
0.193916
0.0244278
0.191943
0.0283057
0.1897
0.0322503
0.187185
0.0362944
0.184394
0.0404674
0.181321
0.0447957
0.177961
0.0493029
0.174302
0.0540107
0.170335
0.058938
0.166042
0.0641018
0.161404
0.0695167
0.156393
0.0751943
0.150972
0.0811435
0.145087
0.0873691
0.138667
0.0938707
0.13161
0.10064
0.12378
0.107656
0.114984
0.114876
0.10497
0.122219
0.0934046
0.129539
0.079883
0.136577
0.0639535
0.142884
0.0452228
0.147652
0.0236046
0.149674
0.14494
0.199711
0.00480084
0.199148
0.00931215
0.19832
0.0136224
0.197234
0.0178049
0.195894
0.0219198
0.194303
0.0260182
0.192465
0.0301443
0.190378
0.0343365
0.188044
0.0386292
0.185458
0.0430531
0.182618
0.0476358
0.179518
0.0524028
0.176151
0.0573776
0.172507
0.0625819
0.168573
0.0680362
0.164329
0.0737604
0.15975
0.0797735
0.154799
0.0860948
0.149424
0.092744
0.143553
0.0997419
0.137082
0.10711
0.129867
0.114871
0.121703
0.12304
0.112299
0.131622
0.101256
0.140583
0.088026
0.149807
0.0719034
0.159007
0.0520689
0.167487
0.0278746
0.173869
0.172815
0.19973
0.00507077
0.199205
0.00983694
0.198435
0.0143924
0.197427
0.0188136
0.196185
0.0231619
0.194713
0.0274895
0.193016
0.0318417
0.191094
0.0362585
0.188948
0.0407752
0.186577
0.0454235
0.183981
0.0502325
0.181155
0.0552289
0.178095
0.0604377
0.174793
0.0658834
0.17124
0.0715896
0.167419
0.077581
0.163309
0.0838834
0.158878
0.0905258
0.15408
0.0975418
0.14885
0.104972
0.143091
0.112868
0.136668
0.121294
0.129378
0.13033
0.120924
0.140076
0.110862
0.150645
0.0985184
0.16215
0.0828741
0.174651
0.0624094
0.187951
0.0351063
0.201172
0.207921
0.199751
0.00532007
0.199266
0.0103212
0.198557
0.0151018
0.197629
0.0197411
0.19649
0.0243018
0.195142
0.0288368
0.193591
0.0333926
0.19184
0.03801
0.18989
0.0427252
0.187743
0.0475709
0.185398
0.0525766
0.182857
0.0577703
0.180116
0.0631785
0.177172
0.0688271
0.174019
0.0747427
0.170647
0.0809536
0.167039
0.0874912
0.163173
0.0943922
0.159013
0.101702
0.154508
0.109477
0.149585
0.117792
0.14413
0.126749
0.137977
0.136484
0.130865
0.147187
0.122381
0.15913
0.111829
0.172702
0.0979798
0.1885
0.0784959
0.207435
0.0486294
0.231038
0.256551
0.199772
0.00554777
0.19933
0.0107631
0.198684
0.0157483
0.19784
0.0205847
0.196806
0.0253362
0.195586
0.0300565
0.194186
0.0347927
0.19261
0.0395863
0.190861
0.044474
0.188943
0.0494889
0.186858
0.0546612
0.18461
0.0600192
0.182198
0.0655902
0.179624
0.0714013
0.176886
0.0774807
0.17398
0.0838591
0.1709
0.0905713
0.167633
0.0976591
0.16416
0.105174
0.160452
0.113185
0.156465
0.121779
0.152133
0.131081
0.147355
0.141261
0.141973
0.15257
0.135722
0.16538
0.128132
0.180293
0.11826
0.198372
0.103857
0.221839
0.0776173
0.257278
0.334168
0.00385696
-0.00385696
0.0075331
-0.00367614
0.0105584
-0.0030253
0.0129093
-0.00235095
0.014659
-0.00174964
0.0158859
-0.0012269
0.0166563
-0.000770453
0.0170261
-0.000369788
0.0170567
-3.05345e-05
0.0167786
0.000278084
0.0162624
0.000516161
0.0155612
0.000701246
0.0147291
0.000832028
0.0138216
0.000907552
0.0128932
0.000928437
0.0119938
0.000899361
0.0111647
0.000829078
0.010435
0.000729738
0.00981903
0.000615954
0.0093156
0.000503429
0.00890996
0.000405638
0.00858018
0.000329777
0.00830561
0.000274571
0.00807217
0.000233443
0.00787231
0.000199858
0.00770218
0.000170132
0.00755838
0.000143797
0.0074359
0.000122477
0.00732878
0.00010712
8.53309e-05
0.00358384
-0.00744081
0.0070243
-0.00711659
0.0099199
-0.0059209
0.0122596
-0.00469062
0.0141163
-0.00360639
0.015563
-0.00267354
0.0166593
-0.00186675
0.0174505
-0.00116099
0.0179531
-0.000533159
0.0182054
2.58132e-05
0.0181856
0.000535898
0.0179589
0.000927929
0.0175782
0.00121273
0.0170996
0.00138618
0.0165787
0.00144935
0.016066
0.00141206
0.0156029
0.00129216
0.0152177
0.00111497
0.0149234
0.00091029
0.0147169
0.00070985
0.0145827
0.000539914
0.0144992
0.000413239
0.0144484
0.000325326
0.0144196
0.000262312
0.0144078
0.000211664
0.0144109
0.000167046
0.0144261
0.000128507
0.0144488
9.9829e-05
0.0144714
8.45022e-05
8.51295e-05
0.00305391
-0.0104947
0.0058967
-0.00995938
0.00825312
-0.00827732
0.0101556
-0.00659308
0.01168
-0.00513079
0.012887
-0.00388054
0.013824
-0.00280379
0.0145285
-0.00186548
0.0150336
-0.00103824
0.0153611
-0.000301719
0.0155346
0.000362443
0.0155506
0.000911909
0.0154485
0.00131483
0.0152724
0.00156233
0.0150647
0.00165699
0.0148632
0.00161356
0.0146974
0.00145793
0.0145872
0.00122518
0.0145397
0.000957827
0.0145483
0.000701234
0.0145957
0.00049249
0.0146609
0.000348116
0.0147288
0.00025742
0.0147927
0.000198394
0.0148512
0.000153155
0.0149045
0.000113701
0.0149521
8.09875e-05
0.0149909
6.09536e-05
0.0150155
5.9963e-05
8.86386e-05
0.00247155
-0.0129663
0.00460992
-0.0120978
0.00630934
-0.00997674
0.00766973
-0.00795347
0.00876637
-0.00622743
0.00964354
-0.00475772
0.0103338
-0.00349403
0.0108611
-0.00239278
0.0112459
-0.00142304
0.0115114
-0.00056727
0.0116746
0.000199302
0.0117282
0.00085831
0.0117062
0.00133678
0.0116489
0.00161968
0.0115875
0.00171837
0.0115452
0.00165579
0.0115375
0.00146566
0.011571
0.0011917
0.0116425
0.000886345
0.0117372
0.000606513
0.0118314
0.000398241
0.0119
0.000279537
0.011932
0.000225448
0.0119273
0.000203124
0.0118914
0.00018905
0.0118306
0.000174508
0.01175
0.000161554
0.0116536
0.000157383
0.0115449
0.000168605
0.000193547
0.00179662
-0.0147629
0.00315151
-0.0134526
0.00412466
-0.0109499
0.00488309
-0.00871191
0.00549068
-0.00683501
0.00597622
-0.00524326
0.00635989
-0.0038777
0.00665506
-0.00268795
0.00687033
-0.00163831
0.00701879
-0.000715728
0.00710944
0.000108651
0.00711259
0.000855159
0.00708761
0.00136177
0.00706627
0.00164102
0.00706395
0.0017207
0.00708579
0.00163394
0.00712821
0.00142325
0.00718023
0.00113968
0.00722598
0.000840597
0.0072421
0.000590393
0.00720344
0.000436899
0.00708568
0.000397292
0.00689688
0.000414249
0.00665583
0.000444175
0.0063818
0.000463083
0.00609014
0.000466169
0.00578877
0.000462921
0.00548131
0.000464844
0.00517926
0.00047066
0.000432125
0.0010288
-0.0157917
0.00151505
-0.0139389
0.00171825
-0.0111531
0.00182858
-0.00882224
0.00188323
-0.00688966
0.00190597
-0.00526601
0.00190846
-0.00388019
0.00189958
-0.00267907
0.00189165
-0.00163039
0.00188318
-0.000707258
0.00181334
0.000178495
0.00173615
0.000932348
0.00167341
0.00142451
0.00163288
0.00168155
0.00160027
0.00175331
0.00154714
0.00168707
0.00143989
0.0015305
0.00124778
0.00133178
0.000956359
0.00113202
0.00058152
0.000965232
0.000158898
0.000859521
-0.000255241
0.00081143
-0.000652002
0.00081101
-0.00102493
0.000817102
-0.00137025
0.0008084
-0.00169077
0.000786694
-0.00199261
0.000764759
-0.00228192
0.000754151
-0.0025489
0.000737648
0.000658941
9.45548e-05
-0.0158862
-0.000309034
-0.0135353
-0.000901096
-0.010561
-0.00149529
-0.00822805
-0.00207086
-0.00631408
-0.00259797
-0.0047389
-0.00306544
-0.00341272
-0.00347217
-0.00227234
-0.00384312
-0.00125943
-0.00422218
-0.000328203
-0.00451425
0.000470571
-0.00467742
0.00109551
-0.00480029
0.00154738
-0.00493786
0.00181912
-0.00511894
0.00193439
-0.00536149
0.00192963
-0.00567071
0.00183972
-0.00603817
0.00169925
-0.00644812
0.00154197
-0.00688138
0.0013985
-0.00731502
0.00129316
-0.0077324
0.00122881
-0.00811261
0.00119122
-0.00844853
0.00115302
-0.00873938
0.00109925
-0.00898865
0.00103596
-0.00920411
0.000980226
-0.00939103
0.00094107
-0.00955126
0.000897874
0.00083549
-0.00087315
-0.0150131
-0.00227326
-0.0121352
-0.00371183
-0.00912246
-0.00510615
-0.00683373
-0.0063826
-0.00503763
-0.00752041
-0.00360109
-0.00851708
-0.00241604
-0.00937886
-0.00141055
-0.0101204
-0.000517881
-0.0107003
0.000251643
-0.0110949
0.000865161
-0.0113651
0.0013658
-0.0115801
0.00176238
-0.0117893
0.00202825
-0.0120241
0.0021692
-0.0122972
0.00220277
-0.0126081
0.00215064
-0.0129489
0.00204003
-0.0133105
0.00190349
-0.0136847
0.0017727
-0.0140601
0.00166862
-0.0144228
0.00159151
-0.014755
0.00152344
-0.0150433
0.00144124
-0.0152814
0.00133737
-0.0154721
0.0012267
-0.0156248
0.00113293
-0.0157495
0.00106574
-0.0158623
0.0010107
0.000970477
-0.00198885
-0.0130242
-0.00440871
-0.00971532
-0.00680419
-0.00672698
-0.00902306
-0.00461485
-0.0109822
-0.00307845
-0.0126617
-0.0019216
-0.0140792
-0.000998607
-0.0152537
-0.000236077
-0.0161526
0.000381063
-0.0167831
0.000882168
-0.017236
0.00131805
-0.0175788
0.0017086
-0.0178439
0.00202744
-0.0180732
0.00225758
-0.0183003
0.00239632
-0.018544
0.00244646
-0.0188093
0.00241597
-0.0190934
0.00232411
-0.0193921
0.00220214
-0.0197025
0.00208315
-0.02002
0.00198612
-0.0203342
0.00190573
-0.0206281
0.00181733
-0.0208835
0.0016966
-0.0210884
0.00154224
-0.0212427
0.00138105
-0.0213573
0.00124755
-0.0214475
0.00115593
-0.0215343
0.00109745
0.00107532
-0.00331105
-0.00971319
-0.00690886
-0.00611751
-0.0103089
-0.0033269
-0.0133028
-0.00162103
-0.0158371
-0.000544082
-0.0179038
0.000145036
-0.0195059
0.000603568
-0.0206839
0.000941856
-0.0215437
0.00124085
-0.0221981
0.00153658
-0.0227061
0.0018261
-0.0230898
0.0020923
-0.0233793
0.0023169
-0.0236129
0.00249114
-0.0238268
0.00261022
-0.0240448
0.00266454
-0.0242751
0.00264626
-0.0245156
0.00256461
-0.0247641
0.00245062
-0.0250228
0.00234179
-0.025294
0.00225732
-0.0255726
0.00218436
-0.0258419
0.00208668
-0.0260783
0.00193294
-0.0262623
0.00172622
-0.0263904
0.0015092
-0.0264765
0.00133368
-0.0265421
0.00122147
-0.0266086
0.00116394
0.00115519
-0.00509388
-0.00461931
-0.0104984
-0.000712954
-0.0149303
0.00110501
-0.0183699
0.00181848
-0.0209446
0.00203064
-0.0228593
0.0020598
-0.0243138
0.00205807
-0.025448
0.00207602
-0.0263336
0.00212647
-0.027021
0.00222394
-0.0275511
0.00235621
-0.0279514
0.00249266
-0.0282482
0.0026137
-0.0284775
0.00272041
-0.0286794
0.00281208
-0.0288817
0.00286691
-0.0290916
0.00285616
-0.0293029
0.00277591
-0.0295124
0.00266011
-0.029728
0.00255741
-0.0299618
0.00249107
-0.0302155
0.00243809
-0.0304723
0.00234345
-0.0307006
0.00216121
-0.0308709
0.00189658
-0.0309757
0.00161395
-0.0310342
0.00139222
-0.0310767
0.00126394
-0.0311244
0.00121164
0.00121297
-0.00794181
0.00332251
-0.0144664
0.00581164
-0.0191583
0.00579694
-0.0226198
0.0052799
-0.0252129
0.00462382
-0.0271642
0.00401109
-0.0286522
0.00354604
-0.0297936
0.00321746
-0.0306664
0.00299919
-0.0313362
0.00289375
-0.0318558
0.00287582
-0.0322515
0.00288841
-0.0325391
0.00290124
-0.032751
0.00293235
-0.0329354
0.00299647
-0.0331267
0.0030582
-0.0333273
0.00305674
-0.03352
0.00296863
-0.0336963
0.00283645
-0.0338714
0.0027325
-0.0340714
0.00269108
-0.0343081
0.00267476
-0.0345634
0.00259879
-0.0347944
0.00239212
-0.0349566
0.00205885
-0.0350365
0.00169381
-0.0350626
0.00141837
-0.0350793
0.00128064
-0.0351089
0.0012412
0.0012512
-0.0101117
0.0134342
-0.0178742
0.0135741
-0.0232336
0.0111563
-0.0269176
0.00896387
-0.0295193
0.00722557
-0.0313724
0.00586414
-0.0327502
0.00492387
-0.0338073
0.00427457
-0.0346002
0.00379208
-0.0351982
0.00349179
-0.0356735
0.00335109
-0.0360477
0.00326259
-0.0363105
0.00316408
-0.0364857
0.00310748
-0.0366388
0.00314961
-0.0368191
0.00323848
-0.0370204
0.00325811
-0.0372037
0.00315184
-0.0373475
0.00298031
-0.0374771
0.00286212
-0.0376412
0.00285514
-0.0378664
0.00289998
-0.0381323
0.00286472
-0.0383785
0.0026383
-0.0385385
0.00221881
-0.0385884
0.00174375
-0.0385715
0.00140148
-0.0385563
0.00126545
-0.0385695
0.00125435
0.0012738
-0.0133917
0.0268259
-0.0230326
0.0232151
-0.0284581
0.0165818
-0.0317354
0.0122411
-0.0340376
0.00952783
-0.0355376
0.0073641
-0.0366141
0.00600037
-0.0374959
0.0051564
-0.0381491
0.0044453
-0.0386168
0.00395943
-0.0390143
0.00374864
-0.0393617
0.00360992
-0.0395892
0.00339165
-0.0396981
0.00321636
-0.0397937
0.0032452
-0.0399598
0.00340461
-0.0401763
0.00347459
-0.0403619
0.00333747
-0.0404695
0.00308784
-0.040539
0.00293163
-0.0406573
0.00297351
-0.0408749
0.00311758
-0.041166
0.00315578
-0.041444
0.00291627
-0.041609
0.00238382
-0.0416199
0.00175471
-0.0415413
0.00132287
-0.0414836
0.00120776
-0.0414853
0.00125601
0.00128956
-0.0190544
0.0458803
-0.0307485
0.0349091
-0.0355384
0.0213717
-0.0371886
0.0138913
-0.0388511
0.0111903
-0.0395989
0.00811192
-0.0400889
0.00649031
-0.0407952
0.00586269
-0.0413275
0.00497768
-0.0415853
0.00421715
-0.0418476
0.00401099
-0.0421712
0.00393356
-0.0423612
0.00358165
-0.0423622
0.0032173
-0.0423556
0.00323864
-0.0425059
0.00355486
-0.0427654
0.00373409
-0.0429746
0.00354665
-0.0430356
0.00314888
-0.0430136
0.00290964
-0.0430638
0.00302373
-0.0432751
0.00332883
-0.0436094
0.00349008
-0.0439411
0.00324796
-0.0441212
0.00256396
-0.0440787
0.00171215
-0.0439069
0.00115109
-0.0437884
0.00108923
-0.0437896
0.00125729
0.00131947
0.207447
0.00576053
0.207034
0.0111757
0.206432
0.0163508
0.205647
0.0213691
0.204688
0.0262954
0.203561
0.0311839
0.202271
0.0360822
0.200825
0.041032
0.199229
0.0460703
0.197488
0.0512303
0.195607
0.0565421
0.193592
0.0620342
0.191448
0.0677338
0.189181
0.0736684
0.186795
0.0798666
0.184295
0.0863596
0.181683
0.0931834
0.178961
0.100381
0.176129
0.108006
0.173185
0.116128
0.170126
0.124839
0.166945
0.134261
0.163639
0.144568
0.160207
0.156002
0.156671
0.168916
0.153124
0.18384
0.149927
0.201568
0.148748
0.223017
0.160349
0.245678
0.258914
0.235602
0.21249
0.00595295
0.212118
0.0115485
0.211574
0.0168944
0.210868
0.022075
0.210008
0.0271559
0.209
0.0321914
0.207853
0.0372293
0.206574
0.0423112
0.20517
0.047474
0.20365
0.0527503
0.202022
0.0581701
0.200295
0.0637611
0.198479
0.0695499
0.196584
0.0755632
0.194623
0.0818285
0.192606
0.0883758
0.190551
0.0952392
0.188472
0.102459
0.186393
0.110086
0.184341
0.11818
0.182357
0.126823
0.1805
0.136118
0.17887
0.146198
0.177638
0.157234
0.177123
0.16943
0.177979
0.182984
0.181616
0.197931
0.190629
0.214004
0.206022
0.230285
0.245862
0.219073
0.217658
0.00612288
0.217329
0.0118775
0.21685
0.017373
0.21623
0.0226947
0.215478
0.0279082
0.214601
0.033068
0.213609
0.0382214
0.212511
0.0434098
0.211315
0.0486693
0.210034
0.0540318
0.208678
0.0595263
0.20726
0.0651792
0.205794
0.0710156
0.204297
0.0770603
0.202787
0.0833384
0.201286
0.0898767
0.19982
0.0967051
0.198422
0.103857
0.197133
0.111374
0.19601
0.119303
0.19513
0.127703
0.194607
0.136641
0.19461
0.146195
0.195402
0.156442
0.197393
0.16744
0.201192
0.179185
0.20757
0.191554
0.217189
0.204385
0.229777
0.217697
0.228915
0.246725
0.222951
0.00626832
0.22267
0.0121588
0.222262
0.0177812
0.221736
0.023221
0.2211
0.0285437
0.220365
0.0338035
0.219539
0.039047
0.218634
0.0443147
0.217661
0.0496418
0.216634
0.0550591
0.215567
0.0605936
0.214476
0.0662702
0.21338
0.0721116
0.212301
0.0781396
0.211263
0.0843757
0.210298
0.0908419
0.209442
0.0975613
0.20874
0.104559
0.208252
0.111863
0.208053
0.119503
0.208246
0.12751
0.208971
0.135916
0.210421
0.144745
0.21286
0.154003
0.216635
0.163665
0.222164
0.173655
0.229899
0.183819
0.240414
0.19387
0.254627
0.203483
0.210406
0.273136
0.228374
0.00638743
0.228144
0.0123888
0.227812
0.0181137
0.227385
0.0236472
0.226875
0.0290544
0.22629
0.0343886
0.225641
0.0396954
0.224942
0.0450143
0.224204
0.050379
0.223445
0.0558185
0.222681
0.061358
0.221931
0.0670197
0.221219
0.0728234
0.220572
0.0787872
0.22002
0.0849279
0.2196
0.0912614
0.219358
0.0978032
0.219349
0.104568
0.219643
0.111569
0.220328
0.118818
0.221516
0.126322
0.223352
0.13408
0.226022
0.142075
0.229757
0.150269
0.234835
0.158587
0.241588
0.166902
0.250394
0.175012
0.261702
0.182563
0.275986
0.189199
0.193836
0.292556
0.233929
0.00647851
0.233754
0.0125642
0.233502
0.0183659
0.233182
0.0239675
0.232803
0.0294331
0.232376
0.034815
0.231914
0.0401576
0.23143
0.0454988
0.230938
0.0508704
0.230457
0.0562994
0.230007
0.0618086
0.229609
0.0674173
0.229291
0.0731418
0.229082
0.0789959
0.229019
0.0849912
0.229143
0.0911369
0.229506
0.0974402
0.230169
0.103905
0.231206
0.110532
0.232708
0.117316
0.234788
0.124242
0.237581
0.131286
0.241252
0.138404
0.245993
0.145528
0.252024
0.152555
0.259589
0.159337
0.268931
0.165671
0.280229
0.171264
0.293581
0.175847
0.178902
0.308515
0.23962
0.00654007
0.239502
0.0126823
0.239334
0.0185336
0.239125
0.0241765
0.238884
0.0296737
0.238623
0.035076
0.238355
0.0404261
0.238094
0.0457601
0.237856
0.0511079
0.237661
0.056494
0.237532
0.0619385
0.237491
0.0674575
0.23757
0.0730634
0.2378
0.0787657
0.238221
0.0845704
0.238878
0.0904802
0.239824
0.0964942
0.241122
0.102607
0.242846
0.108807
0.245085
0.115077
0.247942
0.121386
0.251535
0.127693
0.256001
0.133938
0.26149
0.140039
0.268158
0.145887
0.276156
0.15134
0.285604
0.156222
0.29655
0.160319
0.308982
0.163414
0.16524
0.322644
0.245448
0.00657085
0.24539
0.0127405
0.24531
0.0186134
0.245217
0.02427
0.245119
0.0297712
0.245029
0.0351659
0.24496
0.0404951
0.244928
0.0457927
0.244949
0.0510863
0.245045
0.0563979
0.245239
0.0617446
0.245558
0.0671393
0.24603
0.0725905
0.246693
0.0781032
0.247585
0.0836783
0.248753
0.0893124
0.250249
0.0949976
0.252136
0.100721
0.254482
0.106461
0.257369
0.11219
0.260884
0.117871
0.265127
0.12345
0.270202
0.128863
0.276217
0.134025
0.283271
0.138833
0.291445
0.143165
0.300789
0.146879
0.31129
0.149818
0.322883
0.151821
0.152758
0.335364
0.251418
0.00656983
0.251422
0.012737
0.251432
0.0186026
0.251458
0.0242446
0.251507
0.0297218
0.251592
0.035081
0.251726
0.0403609
0.251926
0.0455933
0.252209
0.0508032
0.252597
0.05601
0.253113
0.061228
0.253786
0.0664666
0.254646
0.0717309
0.255727
0.0770215
0.257071
0.0823348
0.258721
0.0876623
0.260728
0.0929904
0.263149
0.0982996
0.266046
0.103564
0.269488
0.108748
0.273548
0.11381
0.278303
0.118696
0.283827
0.123338
0.290191
0.127661
0.297452
0.131573
0.305643
0.134974
0.314767
0.137755
0.324778
0.139807
0.335577
0.141022
0.141342
0.346994
0.257532
0.00653626
0.257599
0.0126703
0.257702
0.0184993
0.257849
0.0240982
0.258048
0.0295231
0.25831
0.0348189
0.258649
0.0400217
0.259081
0.0451608
0.259626
0.050259
0.260303
0.0553328
0.261137
0.0603936
0.262156
0.065448
0.263389
0.0704974
0.264872
0.0755392
0.266641
0.0805657
0.268738
0.0855645
0.271211
0.0905179
0.274108
0.0954024
0.277483
0.100188
0.281393
0.104839
0.285893
0.10931
0.291039
0.11355
0.296881
0.117497
0.303458
0.121083
0.310797
0.124235
0.318897
0.126873
0.327734
0.128919
0.337242
0.130299
0.347317
0.130947
0.130842
0.357816
0.263794
0.00646969
0.263925
0.0125395
0.264122
0.0183023
0.264391
0.0238293
0.26474
0.0291743
0.265179
0.0343791
0.265723
0.0394777
0.266387
0.044497
0.267189
0.0494569
0.26815
0.0543717
0.269294
0.0592501
0.270646
0.0640957
0.272236
0.0689073
0.274096
0.0736793
0.276261
0.0784012
0.278768
0.0830576
0.281657
0.0876284
0.284972
0.0920881
0.288754
0.0964059
0.293048
0.100545
0.297894
0.104464
0.303329
0.108114
0.309382
0.111444
0.316071
0.114395
0.323395
0.11691
0.331338
0.11893
0.339856
0.120401
0.348879
0.121276
0.358308
0.121518
0.121127
0.368024
0.270207
0.00636992
0.270402
0.0123444
0.270693
0.0180113
0.271084
0.0234381
0.271583
0.0286755
0.272199
0.0337628
0.272946
0.0387314
0.273837
0.0436055
0.274891
0.0484029
0.276127
0.0531353
0.277568
0.0578091
0.279238
0.0624256
0.281164
0.0669813
0.283375
0.0714684
0.285902
0.0758743
0.288777
0.0801823
0.292035
0.0843709
0.295708
0.0884145
0.299831
0.092283
0.304435
0.0959419
0.309546
0.099353
0.315186
0.102475
0.321366
0.105263
0.328088
0.107673
0.335337
0.109661
0.343082
0.111185
0.351274
0.112209
0.359844
0.112706
0.368701
0.11266
0.112081
0.377747
0.276774
0.00623706
0.277033
0.0120851
0.277417
0.0176268
0.27793
0.0229255
0.278577
0.0280286
0.279367
0.0329728
0.280311
0.0377868
0.281424
0.0424925
0.282722
0.0471053
0.284223
0.0516348
0.285946
0.0560854
0.287916
0.0604564
0.290154
0.0647428
0.292687
0.0689352
0.295542
0.0730201
0.298744
0.07698
0.302321
0.0807939
0.306299
0.0844368
0.310701
0.0878809
0.315548
0.0910951
0.320854
0.0940463
0.326629
0.0966997
0.332872
0.0990203
0.339572
0.100974
0.346704
0.102528
0.354233
0.103656
0.362107
0.104335
0.370259
0.104554
0.378613
0.104306
0.103611
0.387083
0.283498
0.0060715
0.283821
0.0117626
0.284297
0.0171502
0.284929
0.0222936
0.285721
0.0272366
0.286681
0.0320133
0.287818
0.0366498
0.289144
0.0411657
0.290675
0.0455743
0.292427
0.0498834
0.294417
0.0540955
0.296664
0.0582087
0.29919
0.0622168
0.302016
0.0661097
0.305162
0.0698737
0.308651
0.0734915
0.312501
0.0769433
0.316732
0.080206
0.321358
0.0832546
0.326391
0.0860624
0.331836
0.0886017
0.337691
0.0908446
0.343947
0.0927641
0.350586
0.0943352
0.357577
0.0955362
0.364883
0.0963503
0.372452
0.0967665
0.380225
0.0967809
0.388134
0.0963969
0.0956351
0.39611
0.290384
0.00587386
0.290769
0.011378
0.291335
0.0165836
0.292084
0.0215452
0.293016
0.0263037
0.29414
0.03089
0.295462
0.035328
0.296993
0.0396349
0.298745
0.0438222
0.300732
0.047896
0.30297
0.0518578
0.305474
0.0557045
0.308261
0.0594294
0.311349
0.0630223
0.314753
0.0664698
0.318489
0.0697558
0.32257
0.0728619
0.327008
0.075768
0.33181
0.0784523
0.33698
0.0808925
0.342515
0.0830665
0.348408
0.0849525
0.354641
0.0865308
0.361192
0.0877842
0.368029
0.0886992
0.375112
0.0892668
0.382395
0.0894834
0.389825
0.0893514
0.397343
0.088879
0.0880876
0.40489
0.297435
0.00564503
0.29788
0.0109332
0.298534
0.0159295
0.299394
0.0206843
0.300463
0.0252349
0.301744
0.0296096
0.303242
0.0338297
0.304966
0.0379106
0.306926
0.041862
0.309133
0.0456888
0.3116
0.0493914
0.314338
0.0529663
0.317361
0.0564066
0.320681
0.0597025
0.324309
0.0628415
0.328256
0.065809
0.332529
0.0685888
0.337133
0.0711636
0.34207
0.0735153
0.347337
0.0756259
0.352925
0.0774782
0.358821
0.0790563
0.365006
0.0803464
0.371452
0.0813376
0.378129
0.0820226
0.384998
0.0823982
0.392015
0.0824658
0.399135
0.0822318
0.406307
0.081707
0.0809124
0.413482
0.304654
0.00538606
0.305157
0.0104301
0.305895
0.0151913
0.306864
0.0197154
0.308063
0.0240363
0.309493
0.0281797
0.311158
0.0321647
0.313064
0.0360047
0.315218
0.039708
0.317628
0.0432784
0.320304
0.0467158
0.323253
0.0500165
0.326486
0.0531738
0.33001
0.0561786
0.333832
0.0590196
0.337957
0.0616842
0.342387
0.0641585
0.347123
0.066428
0.35216
0.0684783
0.35749
0.0702953
0.363102
0.0718664
0.368978
0.0731804
0.375096
0.0742285
0.381429
0.0750047
0.387945
0.0755062
0.394609
0.0757339
0.401382
0.0756926
0.408223
0.075391
0.415089
0.074841
0.0740624
0.421939
0.312046
0.00509817
0.312605
0.00987126
0.313424
0.0143725
0.314496
0.0186434
0.315818
0.0227144
0.317389
0.0266087
0.31921
0.030343
0.321286
0.0339293
0.323619
0.0373745
0.326216
0.0406817
0.329081
0.0438504
0.332221
0.0468768
0.33564
0.049755
0.339342
0.0524767
0.343329
0.0550323
0.347602
0.0574108
0.35216
0.0596009
0.356997
0.0615909
0.362106
0.0633696
0.367474
0.0649267
0.373088
0.0662532
0.378926
0.0673419
0.384967
0.068188
0.391182
0.068789
0.397543
0.0691455
0.404016
0.0692613
0.410565
0.0691429
0.417156
0.0688002
0.423751
0.0682456
0.0674972
0.430317
0.319615
0.00478268
0.320227
0.00925922
0.321122
0.0134772
0.322292
0.0174737
0.32373
0.0212762
0.325434
0.024905
0.327402
0.0283752
0.329634
0.0316968
0.332133
0.034876
0.3349
0.0379151
0.337936
0.0408135
0.341246
0.0435677
0.344828
0.0461725
0.348684
0.0486208
0.352812
0.0509043
0.357209
0.0530141
0.361868
0.0549412
0.366783
0.0566765
0.371941
0.0582117
0.377328
0.0595396
0.382927
0.0606543
0.388717
0.0615518
0.394675
0.06223
0.400774
0.0626895
0.406987
0.0629329
0.413283
0.0629657
0.41963
0.0627956
0.425997
0.0624327
0.432354
0.0618892
0.0611814
0.43867
0.327365
0.00444096
0.328028
0.00859668
0.328995
0.0125093
0.330257
0.0162119
0.331805
0.0197286
0.333632
0.0230775
0.335736
0.0262714
0.338114
0.0293193
0.340763
0.0322262
0.343684
0.0349942
0.346875
0.0376224
0.350335
0.040108
0.354061
0.0424463
0.358051
0.0446315
0.362298
0.0466568
0.366797
0.0485154
0.371538
0.0501999
0.376511
0.0517039
0.381701
0.0530215
0.387093
0.0541479
0.392667
0.0550798
0.398404
0.0558155
0.404278
0.0563553
0.410266
0.0567013
0.416341
0.0568579
0.422476
0.0568313
0.428642
0.0566297
0.434811