/*--------------------------------*- C++ -*----------------------------------*\
  =========                 |
  \\      /  F ield         | OpenFOAM: The Open Source CFD Toolbox
   \\    /   O peration     | Website:  https://openfoam.org
    \\  /    A nd           | Version:  dev
     \\/     M anipulation  |
\*---------------------------------------------------------------------------*/
FoamFile
{
    version     2.0;
    format      ascii;
    class       surfaceVectorField;
    location    "9.4";
    object      Uf;
}
// * * * * * * * * * * * * * * * * * * * * * * * * * * * * * * * * * * * * * //

dimensions      [0 1 -1 0 0 0 0];

internalField   nonuniform List<vector> 
5457
(
(9.92088 0 0.0251101)
(9.97124 0 0.0387465)
(9.82401 0 0.0328278)
(9.92859 0 0.0485866)
(9.7096 0 0.0393134)
(9.85547 0 0.0587704)
(9.57542 0 0.0460134)
(9.75679 0 0.0705965)
(9.42136 0 0.0529513)
(9.63751 0 0.0830174)
(9.24751 0 0.0601691)
(9.49858 0 0.0959416)
(9.05358 0 0.0678144)
(9.33927 0 0.109619)
(8.83887 0 0.0760387)
(9.15869 0 0.124296)
(8.60245 0 0.0849751)
(8.95603 0 0.140176)
(8.34318 0 0.0947505)
(8.73031 0 0.157443)
(8.05974 0 0.105494)
(8.48031 0 0.176281)
(7.75068 0 0.117335)
(8.20466 0 0.19687)
(7.41442 0 0.130404)
(7.90182 0 0.219376)
(7.04934 0 0.144819)
(7.57015 0 0.243939)
(6.65385 0 0.160682)
(7.20801 0 0.27065)
(6.22651 0 0.178055)
(6.8138 0 0.299518)
(5.7662 0 0.196939)
(6.38611 0 0.330432)
(5.27233 0 0.217243)
(5.92393 0 0.363101)
(4.74511 0 0.238745)
(5.42685 0 0.396992)
(4.18593 0 0.26104)
(4.89539 0 0.43125)
(3.59769 0 0.283494)
(4.33136 0 0.464629)
(2.98528 0 0.305205)
(3.73832 0 0.495429)
(2.35585 0 0.325068)
(3.12199 0 0.52151)
(1.71885 0 0.342543)
(2.4908 0 0.540548)
(1.08411 0 0.361876)
(1.8556 0 0.551658)
(0.451614 0 0.348623)
(1.24526 0 0.563006)
(-0.145974 0 0.102381)
(0.608664 0 0.544801)
(-0.423668 0 -0.2071)
(0.0945897 0 0.259288)
(-0.402171 0 -0.36123)
(-0.133794 0 -0.0205576)
(-0.119681 0 -0.393901)
(9.99641 0 0.0516741)
(9.99705 0 0.0405061)
(9.95878 0 0.0708643)
(9.9785 0 0.0674574)
(9.89823 0 0.0879908)
(9.93377 0 0.0898745)
(9.81657 0 0.10599)
(9.86452 0 0.113561)
(9.71356 0 0.124928)
(9.77436 0 0.138523)
(9.58906 0 0.144862)
(9.66433 0 0.164656)
(9.4427 0 0.1661)
(9.53393 0 0.192344)
(9.27385 0 0.188979)
(9.38245 0 0.222045)
(9.0816 0 0.213797)
(9.20913 0 0.254166)
(8.86481 0 0.240831)
(9.01309 0 0.289084)
(8.6222 0 0.270355)
(8.79322 0 0.327175)
(8.35227 0 0.302627)
(8.54825 0 0.368812)
(8.05342 0 0.33788)
(8.2767 0 0.414345)
(7.72395 0 0.376287)
(7.97702 0 0.464078)
(7.36218 0 0.417928)
(7.64754 0 0.518223)
(6.96651 0 0.462734)
(7.28663 0 0.576842)
(6.5356 0 0.510412)
(6.89274 0 0.639762)
(6.06858 0 0.560357)
(6.46458 0 0.706462)
(5.56532 0 0.611542)
(6.00134 0 0.775941)
(5.02682 0 0.662401)
(5.50299 0 0.84655)
(4.45559 0 0.710717)
(4.97061 0 0.915825)
(3.8562 0 0.75354)
(4.40689 0 0.980314)
(3.23591 0 0.787186)
(3.81675 0 1.03545)
(2.60555 0 0.80748)
(3.20818 0 1.07547)
(1.98255 0 0.810435)
(2.59313 0 1.09311)
(1.40508 0 0.776842)
(1.99598 0 1.07703)
(0.929565 0 0.646321)
(1.41929 0 0.978315)
(0.439681 0 0.384231)
(0.93743 0 0.716702)
(0.059087 0 -0.118705)
(0.443632 0 0.343407)
(0.174889 0 -0.336029)
(9.98903 0 0.0594336)
(9.99481 0 0.0458797)
(9.95433 0 0.0894812)
(9.97368 0 0.0848586)
(9.89728 0 0.118038)
(9.92984 0 0.11918)
(9.82045 0 0.147907)
(9.86356 0 0.153985)
(9.72414 0 0.179433)
(9.77734 0 0.19042)
(9.60818 0 0.212789)
(9.67224 0 0.228651)
(9.4723 0 0.248409)
(9.54806 0 0.269147)
(9.31602 0 0.286794)
(9.40427 0 0.312518)
(9.13862 0 0.32842)
(9.24028 0 0.35935)
(8.93917 0 0.373748)
(9.05542 0 0.410203)
(8.71655 0 0.423235)
(8.84881 0 0.465631)
(8.46948 0 0.477328)
(8.61941 0 0.526189)
(8.19654 0 0.536434)
(8.36603 0 0.592412)
(7.89617 0 0.600879)
(8.08737 0 0.664781)
(7.56674 0 0.670849)
(7.78203 0 0.743663)
(7.20663 0 0.746296)
(7.44855 0 0.829236)
(6.81434 0 0.826821)
(7.08547 0 0.921366)
(6.38863 0 0.911519)
(6.69148 0 1.01945)
(5.92878 0 0.998789)
(6.26547 0 1.12221)
(5.43487 0 1.08612)
(5.80686 0 1.22746)
(4.90827 0 1.16984)
(5.3158 0 1.33177)
(4.35215 0 1.24489)
(4.79369 0 1.4302)
(3.77231 0 1.30453)
(4.24369 0 1.51587)
(3.17846 0 1.3398)
(3.67154 0 1.5794)
(2.58639 0 1.33806)
(3.08607 0 1.60769)
(2.01966 0 1.27289)
(2.5027 0 1.5815)
(1.48677 0 1.0953)
(1.92855 0 1.46413)
(0.958175 0 0.769044)
(1.3851 0 1.21026)
(0.479804 0 0.202295)
(0.829446 0 0.800875)
(0.433684 0 0.133909)
(9.98515 0 0.0716177)
(9.99367 0 0.0531507)
(9.95039 0 0.113637)
(9.97087 0 0.102297)
(9.89436 0 0.154142)
(9.9269 0 0.147962)
(9.81881 0 0.195585)
(9.86184 0 0.193733)
(9.7244 0 0.238826)
(9.77744 0 0.241293)
(9.61109 0 0.284343)
(9.67464 0 0.291183)
(9.4787 0 0.332743)
(9.5534 0 0.343979)
(9.3269 0 0.384701)
(9.41331 0 0.4004)
(9.15517 0 0.440877)
(9.25395 0 0.461172)
(8.96283 0 0.501919)
(9.07477 0 0.526998)
(8.74907 0 0.568467)
(8.87511 0 0.598578)
(8.51293 0 0.641156)
(8.65419 0 0.676609)
(8.25333 0 0.720578)
(8.4111 0 0.761773)
(7.9691 0 0.807241)
(8.14486 0 0.854693)
(7.659 0 0.901491)
(7.85438 0 0.955879)
(7.32173 0 1.0034)
(7.53857 0 1.06563)
(6.95599 0 1.11263)
(7.19626 0 1.18391)
(6.56061 0 1.22818)
(6.82631 0 1.31014)
(6.13464 0 1.34821)
(6.42765 0 1.44297)
(5.67758 0 1.46963)
(5.9994 0 1.57995)
(5.18972 0 1.58779)
(5.54107 0 1.71711)
(4.67259 0 1.69602)
(5.05277 0 1.84855)
(4.12952 0 1.78512)
(4.53568 0 1.96582)
(3.56639 0 1.84247)
(3.99245 0 2.05726)
(2.99181 0 1.85064)
(3.42734 0 2.10706)
(2.41564 0 1.78237)
(2.8474 0 2.09437)
(1.84038 0 1.6003)
(2.25603 0 1.98858)
(1.25927 0 1.27825)
(1.66017 0 1.75285)
(0.666717 0 0.789347)
(1.02387 0 1.36754)
(0.523 0 0.786917)
(9.98337 0 0.0844122)
(9.99316 0 0.0612949)
(9.9482 0 0.136845)
(9.96958 0 0.119934)
(9.89314 0 0.188043)
(9.92574 0 0.176251)
(9.81905 0 0.240184)
(9.86198 0 0.232712)
(9.72661 0 0.294486)
(9.77962 0 0.291106)
(9.61587 0 0.351682)
(9.67937 0 0.352297)
(9.48667 0 0.412498)
(9.56124 0 0.417005)
(9.33874 0 0.477709)
(9.42492 0 0.486041)
(9.17164 0 0.548088)
(9.27004 0 0.560243)
(8.98485 0 0.624397)
(9.09613 0 0.640431)
(8.77769 0 0.707392)
(8.90266 0 0.727418)
(8.54942 0 0.797818)
(8.68897 0 0.822013)
(8.29922 0 0.896385)
(8.45432 0 0.925004)
(8.0262 0 1.00372)
(8.19794 0 1.03712)
(7.7294 0 1.12027)
(7.91896 0 1.15899)
(7.40786 0 1.24623)
(7.61651 0 1.291)
(7.06055 0 1.38134)
(7.28965 0 1.43322)
(6.68646 0 1.52465)
(6.9374 0 1.58518)
(6.2846 0 1.67424)
(6.55874 0 1.74557)
(5.85411 0 1.82683)
(6.1526 0 1.91194)
(5.39442 0 1.97728)
(5.71794 0 2.0802)
(4.90546 0 2.11805)
(5.25378 0 2.24411)
(4.38796 0 2.23857)
(4.75944 0 2.39459)
(3.84367 0 2.32448)
(4.23466 0 2.51914)
(3.27518 0 2.35684)
(3.67961 0 2.60114)
(2.68517 0 2.31044)
(3.09547 0 2.61956)
(2.07251 0 2.15481)
(2.48148 0 2.54712)
(1.42925 0 1.86716)
(1.83975 0 2.35347)
(0.742546 0 1.41931)
(1.13126 0 2.02424)
(0.543261 0 1.5142)
(9.98264 0 0.0975033)
(9.99299 0 0.0697969)
(9.94743 0 0.159784)
(9.96924 0 0.137591)
(9.89354 0 0.221361)
(9.92596 0 0.203939)
(9.82132 0 0.28411)
(9.8638 0 0.270705)
(9.73132 0 0.34937)
(9.78384 0 0.339604)
(9.62364 0 0.418046)
(9.68662 0 0.411724)
(9.49815 0 0.490971)
(9.57215 0 0.487935)
(9.3546 0 0.569013)
(9.44018 0 0.569143)
(9.19263 0 0.653049)
(9.29038 0 0.656279)
(9.01176 0 0.743949)
(9.12236 0 0.750266)
(8.81142 0 0.842575)
(8.93563 0 0.852016)
(8.59098 0 0.949774)
(8.72963 0 0.962433)
(8.34972 0 1.06636)
(8.5037 0 1.0824)
(8.08691 0 1.19304)
(8.25715 0 1.21273)
(7.80175 0 1.33039)
(7.98922 0 1.35413)
(7.4934 0 1.47868)
(7.69911 0 1.50712)
(7.16097 0 1.63777)
(7.38596 0 1.67186)
(6.80348 0 1.80683)
(7.0488 0 1.84801)
(6.41985 0 1.98404)
(6.6865 0 2.03445)
(6.00885 0 2.16619)
(6.29774 0 2.22891)
(5.56911 0 2.34814)
(5.8809 0 2.42754)
(5.09916 0 2.52221)
(5.43403 0 2.62429)
(4.59744 0 2.67753)
(4.95479 0 2.81028)
(4.0624 0 2.79941)
(4.44052 0 2.97317)
(3.49242 0 2.86897)
(3.88821 0 3.09651)
(2.88558 0 2.86273)
(3.29494 0 3.15972)
(2.23781 0 2.75368)
(2.65665 0 3.13767)
(1.5423 0 2.52074)
(1.97465 0 3.00289)
(0.793573 0 2.13101)
(1.20712 0 2.74025)
(0.556682 0 2.29145)
(9.9825 0 0.110633)
(9.99302 0 0.078366)
(9.9477 0 0.182335)
(9.96954 0 0.155046)
(9.89522 0 0.253832)
(9.92722 0 0.230899)
(9.82523 0 0.326787)
(9.86696 0 0.307528)
(9.73811 0 0.40258)
(9.78976 0 0.386546)
(9.63401 0 0.482265)
(9.69603 0 0.469178)
(9.51282 0 0.566795)
(9.58576 0 0.556434)
(9.37433 0 0.657137)
(9.45876 0 0.649314)
(9.21822 0 0.754265)
(9.31476 0 0.748838)
(9.04407 0 0.859144)
(9.1534 0 0.856022)
(8.85136 0 0.97273)
(8.97426 0 0.971869)
(8.63952 0 1.09596)
(8.77682 0 1.09737)
(8.4079 0 1.22973)
(8.56047 0 1.2335)
(8.15581 0 1.37484)
(8.32456 0 1.38117)
(7.88247 0 1.53196)
(8.06837 0 1.54118)
(7.58708 0 1.70149)
(7.79108 0 1.71416)
(7.26868 0 1.8834)
(7.49175 0 1.90042)
(6.92618 0 2.07708)
(7.16931 0 2.09982)
(6.55824 0 2.28095)
(6.8224 0 2.3115)
(6.16318 0 2.49213)
(6.4493 0 2.53359)
(5.73882 0 2.70589)
(6.04779 0 2.76272)
(5.2824 0 2.91501)
(5.61491 0 2.99351)
(4.7905 0 3.10913)
(5.14689 0 3.21785)
(4.25896 0 3.27411)
(4.63903 0 3.42422)
(3.68307 0 3.39171)
(4.0857 0 3.59703)
(3.05776 0 3.43946)
(3.48098 0 3.71634)
(2.3775 0 3.3915)
(2.81807 0 3.75784)
(1.63774 0 3.22581)
(2.09892 0 3.69362)
(0.839041 0 2.90044)
(1.27877 0 3.50405)
(0.573292 0 3.11324)
(9.98273 0 0.123589)
(9.99316 0 0.0868225)
(9.94872 0 0.204321)
(9.97026 0 0.172103)
(9.89793 0 0.285269)
(9.92926 0 0.25699)
(9.8305 0 0.367988)
(9.87123 0 0.343009)
(9.74669 0 0.45388)
(9.79714 0 0.431705)
(9.64666 0 0.544112)
(9.70733 0 0.524384)
(9.53035 0 0.63975)
(9.60178 0 0.622176)
(9.39758 0 0.74185)
(9.48035 0 0.726175)
(9.24808 0 0.851473)
(9.34281 0 0.837482)
(9.08146 0 0.969675)
(9.18888 0 0.957199)
(8.89728 0 1.0975)
(9.01817 0 1.08642)
(8.695 0 1.23597)
(8.83021 0 1.22622)
(8.47401 0 1.38608)
(8.62444 0 1.37768)
(8.23362 0 1.54874)
(8.40024 0 1.54179)
(7.97306 0 1.72472)
(8.15687 0 1.7195)
(7.69142 0 1.91457)
(7.89346 0 1.91156)
(7.38764 0 2.11847)
(7.609 0 2.11849)
(7.06038 0 2.33608)
(7.30219 0 2.34042)
(6.70793 0 2.56623)
(6.97139 0 2.57689)
(6.32806 0 2.80658)
(6.61442 0 2.82655)
(5.91777 0 3.05312)
(6.22839 0 3.0868)
(5.4731 0 3.29956)
(5.80939 0 3.35324)
(4.98894 0 3.53663)
(5.35227 0 3.619)
(4.45896 0 3.75132)
(4.85048 0 3.87395)
(3.87586 0 3.92629)
(4.29602 0 4.10381)
(3.23199 0 4.0396)
(3.68016 0 4.28946)
(2.52054 0 4.06463)
(2.99315 0 4.40645)
(1.73816 0 3.97569)
(2.23709 0 4.42414)
(0.889359 0 3.71826)
(1.36317 0 4.31576)
(0.598666 0 3.98431)
(9.98321 0 0.136211)
(9.99339 0 0.0950459)
(9.95032 0 0.225585)
(9.97131 0 0.1886)
(9.9015 0 0.315515)
(9.93193 0 0.282066)
(9.83693 0 0.407528)
(9.87642 0 0.376983)
(9.75682 0 0.503044)
(9.80578 0 0.47487)
(9.66133 0 0.603316)
(9.72029 0 0.577086)
(9.55043 0 0.709506)
(9.61993 0 0.684859)
(9.424 0 0.822757)
(9.50462 0 0.799369)
(9.28179 0 0.944211)
(9.37418 0 0.921797)
(9.1235 0 1.07501)
(9.22838 0 1.05332)
(8.94872 0 1.21628)
(9.06689 0 1.19512)
(8.75696 0 1.36914)
(8.8893 0 1.34837)
(8.54765 0 1.53469)
(8.6951 0 1.51423)
(8.32012 0 1.71396)
(8.4837 0 1.69383)
(8.07354 0 1.90787)
(8.25436 0 1.88824)
(7.80695 0 2.11716)
(8.00619 0 2.09841)
(7.51911 0 2.3423)
(7.73806 0 2.32512)
(7.20844 0 2.5833)
(7.4485 0 2.56884)
(6.87283 0 2.83952)
(7.13559 0 2.8296)
(6.50946 0 3.10939)
(6.79671 0 3.10678)
(6.11453 0 3.3899)
(6.42834 0 3.39874)
(5.68294 0 3.67607)
(6.02566 0 3.70239)
(5.20797 0 3.9602)
(5.58226 0 4.01253)
(4.68122 0 4.2309)
(5.08976 0 4.32094)
(4.09275 0 4.47213)
(4.53769 0 4.61526)
(3.432 0 4.66224)
(3.91411 0 4.87762)
(2.68968 0 4.77272)
(3.20513 0 5.08319)
(1.86151 0 4.77185)
(2.41081 0 5.19743)
(0.953995 0 4.58908)
(1.47596 0 5.18362)
(0.639046 0 4.91869)
(9.98386 0 0.148378)
(9.99368 0 0.10295)
(9.95235 0 0.245985)
(9.9726 0 0.204406)
(9.90578 0 0.34442)
(9.9351 0 0.305988)
(9.84436 0 0.445226)
(9.8824 0 0.409295)
(9.76832 0 0.549846)
(9.81551 0 0.515848)
(9.67778 0 0.659602)
(9.7347 0 0.627051)
(9.57279 0 0.775739)
(9.63997 0 0.744206)
(9.45324 0 0.899479)
(9.53127 0 0.868574)
(9.31897 0 1.03204)
(9.4085 0 1.00141)
(9.16973 0 1.17464)
(9.27147 0 1.14395)
(9.00516 0 1.32849)
(9.11993 0 1.29748)
(8.82484 0 1.49482)
(8.95354 0 1.46323)
(8.62824 0 1.67483)
(8.77185 0 1.64249)
(8.41472 0 1.86968)
(8.57432 0 1.8365)
(8.18346 0 2.08048)
(8.36024 0 2.0465)
(7.93342 0 2.30821)
(8.12873 0 2.27366)
(7.66326 0 2.55367)
(7.87861 0 2.51905)
(7.37119 0 2.81735)
(7.60831 0 2.78358)
(7.05476 0 3.09928)
(7.31571 0 3.06787)
(6.71068 0 3.3988)
(6.99788 0 3.37214)
(6.33441 0 3.7142)
(6.65081 0 3.69594)
(5.91981 0 4.04218)
(6.26897 0 4.03779)
(5.45868 0 4.37708)
(5.8448 0 4.3946)
(4.94042 0 4.70981)
(5.36822 0 4.76072)
(4.35204 0 5.02634)
(4.82607 0 5.12663)
(3.6789 0 5.30584)
(4.20241 0 5.4768)
(2.90688 0 5.51765)
(3.47714 0 5.78702)
(2.02717 0 5.62231)
(2.64436 0 6.01883)
(1.04483 0 5.52861)
(1.63724 0 6.12304)
(0.704245 0 5.94203)
(9.98465 0 0.159991)
(9.99402 0 0.110469)
(9.95473 0 0.265397)
(9.97409 0 0.219413)
(9.91065 0 0.371843)
(9.93867 0 0.328632)
(9.85266 0 0.480914)
(9.88904 0 0.439803)
(9.78099 0 0.594083)
(9.82618 0 0.554468)
(9.69579 0 0.712727)
(9.75037 0 0.674068)
(9.59714 0 0.838164)
(9.66165 0 0.799969)
(9.48499 0 0.971682)
(9.56001 0 0.933498)
(9.35923 0 1.11457)
(9.4454 0 1.07597)
(9.21968 0 1.26812)
(9.31772 0 1.2287)
(9.06606 0 1.43362)
(9.17679 0 1.39302)
(8.89803 0 1.6124)
(9.02234 0 1.57027)
(8.71512 0 1.80577)
(8.85402 0 1.76182)
(8.51674 0 2.01504)
(8.67135 0 1.96905)
(8.30211 0 2.24153)
(8.47372 0 2.19337)
(8.07022 0 2.48648)
(8.26029 0 2.43619)
(7.81967 0 2.75109)
(8.02993 0 2.69891)
(7.54858 0 3.03638)
(7.78107 0 2.98289)
(7.25434 0 3.34318)
(7.51155 0 3.28943)
(6.93333 0 3.6719)
(7.21835 0 3.61971)
(6.58052 0 4.02235)
(6.89723 0 3.97461)
(6.18898 0 4.39328)
(6.54226 0 4.35454)
(5.74921 0 4.7817)
(6.14516 0 4.75896)
(5.24848 0 5.18172)
(5.69442 0 5.18564)
(4.67023 0 5.58266)
(5.17432 0 5.62919)
(3.99415 0 5.96621)
(4.56424 0 6.0786)
(3.19767 0 6.30113)
(3.83543 0 6.51314)
(2.26114 0 6.53982)
(2.96996 0 6.89329)
(1.18023 0 6.564)
(1.87846 0 7.15672)
(0.812469 0 7.098)
(9.98553 0 0.170973)
(9.9944 0 0.117553)
(9.95738 0 0.283715)
(9.97572 0 0.233533)
(9.916 0 0.397659)
(9.94258 0 0.349889)
(9.86169 0 0.514443)
(9.89623 0 0.468379)
(9.79468 0 0.635574)
(9.83764 0 0.590576)
(9.71516 0 0.762478)
(9.76712 0 0.717954)
(9.62323 0 0.896526)
(9.68474 0 0.85193)
(9.51892 0 1.03907)
(9.59054 0 0.993885)
(9.40218 0 1.19146)
(9.48453 0 1.14519)
(9.27289 0 1.35504)
(9.3667 0 1.30721)
(9.13088 0 1.5312)
(9.23694 0 1.48134)
(8.97589 0 1.72132)
(9.09509 0 1.669)
(8.80754 0 1.92685)
(8.94089 0 1.87165)
(8.62535 0 2.14924)
(8.77399 0 2.09079)
(8.42863 0 2.39002)
(8.59389 0 2.328)
(8.21645 0 2.65072)
(8.39988 0 2.58491)
(7.98749 0 2.93293)
(8.19096 0 2.86326)
(7.73993 0 3.23828)
(7.96573 0 3.1649)
(7.47118 0 3.56841)
(7.72216 0 3.4918)
(7.17763 0 3.92493)
(7.45742 0 3.84611)
(6.85411 0 4.30936)
(7.16743 0 4.23014)
(6.49337 0 4.72284)
(6.84638 0 4.64637)
(6.08513 0 5.16567)
(6.48591 0 5.09721)
(5.61496 0 5.63635)
(6.07401 0 5.58462)
(5.06278 0 6.1297)
(5.5932 0 6.1091)
(4.4013 0 6.63342)
(5.01862 0 6.6674)
(3.59517 0 7.12053)
(4.31144 0 7.24806)
(2.60345 0 7.53954)
(3.43451 0 7.81928)
(1.39373 0 7.73895)
(2.25546 0 8.31358)
(1.00207 0 8.46307)
(9.9865 0 0.181262)
(9.9948 0 0.124163)
(9.96026 0 0.300849)
(9.97747 0 0.246693)
(9.92176 0 0.421758)
(9.94676 0 0.369667)
(9.87133 0 0.545682)
(9.90387 0 0.494914)
(9.80923 0 0.674164)
(9.84977 0 0.62404)
(9.73566 0 0.808664)
(9.78478 0 0.758552)
(9.65079 0 0.950605)
(9.70901 0 0.899903)
(9.5547 0 1.10138)
(9.62257 0 1.04952)
(9.4474 0 1.2624)
(9.52553 0 1.2088)
(9.32887 0 1.43505)
(9.41796 0 1.37918)
(9.19904 0 1.62079)
(9.29985 0 1.56209)
(9.05774 0 1.82108)
(9.17114 0 1.75901)
(8.90473 0 2.03745)
(9.03171 0 1.97147)
(8.73965 0 2.27152)
(8.88134 0 2.20109)
(8.56198 0 2.52499)
(8.71971 0 2.44958)
(8.37095 0 2.79967)
(8.54629 0 2.7188)
(8.16546 0 3.09754)
(8.36034 0 3.01078)
(7.94391 0 3.4208)
(8.16074 0 3.32778)
(7.70401 0 3.77192)
(7.94584 0 3.67244)
(7.44249 0 4.1537)
(7.71328 0 4.0478)
(7.15457 0 4.56941)
(7.45961 0 4.45755)
(6.8334 0 5.02276)
(7.17981 0 4.90619)
(6.4689 0 5.51788)
(6.86647 0 5.39921)
(6.04621 0 6.05887)
(6.50855 0 5.94331)
(5.54309 0 6.64874)
(6.08909 0 6.54637)
(4.92592 0 7.28672)
(5.58193 0 7.21676)
(4.14371 0 7.96073)
(4.94106 0 7.96118)
(3.12047 0 8.63226)
(4.10764 0 8.7747)
(1.75532 0 9.12579)
(2.87684 0 9.61909)
(1.36375 0 10.1823)
(9.98754 0 0.190809)
(9.99523 0 0.130267)
(9.96332 0 0.316724)
(9.97932 0 0.258838)
(9.92785 0 0.444047)
(9.95115 0 0.387889)
(9.88147 0 0.574522)
(9.91187 0 0.519314)
(9.82448 0 0.709721)
(9.86243 0 0.654752)
(9.75711 0 0.851138)
(9.80317 0 0.79573)
(9.67957 0 1.00023)
(9.73424 0 0.943733)
(9.59199 0 1.15843)
(9.65581 0 1.10021)
(9.49449 0 1.32716)
(9.56804 0 1.26661)
(9.38713 0 1.50789)
(9.47105 0 1.44438)
(9.26992 0 1.70209)
(9.36496 0 1.63498)
(9.14285 0 1.91129)
(9.24983 0 1.83995)
(9.00581 0 2.13711)
(9.12567 0 2.06087)
(8.85862 0 2.38128)
(8.99244 0 2.29943)
(8.70097 0 2.64565)
(8.85003 0 2.55747)
(8.53234 0 2.93227)
(8.69817 0 2.83699)
(8.35195 0 3.24347)
(8.53643 0 3.14027)
(8.15863 0 3.58191)
(8.36413 0 3.46992)
(7.95064 0 3.95079)
(8.1802 0 3.82905)
(7.72542 0 4.354)
(7.98304 0 4.22149)
(7.47924 0 4.79637)
(7.77029 0 4.65201)
(7.20651 0 5.2841)
(7.53844 0 5.12682)
(6.89884 0 5.82516)
(7.28227 0 5.65412)
(6.54327 0 6.42987)
(6.99375 0 6.24504)
(6.11905 0 7.11163)
(6.66016 0 6.91507)
(5.59145 0 7.88751)
(6.26091 0 7.6864)
(4.89899 0 8.77729)
(5.75555 0 8.59247)
(3.92479 0 9.80003)
(5.08482 0 9.68432)
(2.43147 0 10.8538)
(3.97665 0 11.0472)
(2.14419 0 12.5638)
(9.98862 0 0.199573)
(9.99567 0 0.135842)
(9.96652 0 0.331279)
(9.98124 0 0.26992)
(9.9342 0 0.464444)
(9.9557 0 0.404493)
(9.89202 0 0.600855)
(9.92016 0 0.541505)
(9.8403 0 0.742109)
(9.87552 0 0.682621)
(9.77931 0 0.889723)
(9.82216 0 0.829387)
(9.70931 0 1.04518)
(9.76028 0 0.983303)
(9.6305 0 1.20993)
(9.69009 0 1.14584)
(9.54305 0 1.38544)
(9.61184 0 1.31846)
(9.44715 0 1.57317)
(9.52576 0 1.50262)
(9.34292 0 1.77464)
(9.43204 0 1.69981)
(9.23048 0 1.99143)
(9.33089 0 1.91157)
(9.10989 0 2.2252)
(9.22249 0 2.13954)
(8.98118 0 2.47774)
(9.10698 0 2.38544)
(8.84428 0 2.75104)
(8.98449 0 2.65116)
(8.699 0 3.04731)
(8.85506 0 2.93882)
(8.545 0 3.36911)
(8.71866 0 3.25082)
(8.38165 0 3.71948)
(8.57513 0 3.59001)
(8.20801 0 4.10211)
(8.42412 0 3.9598)
(8.02262 0 4.52167)
(8.26506 0 4.36447)
(7.82327 0 4.9842)
(8.09703 0 4.80947)
(7.60666 0 5.49774)
(7.91867 0 5.30205)
(7.36777 0 6.07332)
(7.72799 0 5.85206)
(7.09865 0 6.7266)
(7.52208 0 6.47342)
(6.78611 0 7.48072)
(7.29669 0 7.18669)
(6.40658 0 8.37236)
(7.04629 0 8.02424)
(5.91302 0 9.46582)
(6.7606 0 9.04244)
(5.19285 0 10.907)
(6.45847 0 10.3568)
(3.88087 0 13.1744)
(6.18425 0 12.3018)
(5.25053 0 16.3648)
(0.192848 0 -0.11489)
(0.113567 0 -0.188883)
(0.376655 0 -0.0976725)
(0.27573 0 -0.175776)
(0.52792 0 -0.0744386)
(0.437584 0 -0.141239)
(0.645467 0 -0.0532911)
(0.573697 0 -0.107164)
(0.73295 0 -0.0355343)
(0.679343 0 -0.0778709)
(0.794294 0 -0.0208387)
(0.758158 0 -0.0533155)
(0.832817 0 -0.00864977)
(0.814592 0 -0.0326897)
(0.851306 0 0.00139061)
(0.852023 0 -0.0153192)
(0.852833 0 0.0089953)
(0.872849 0 -0.00123508)
(0.838929 0 0.0142717)
(0.879165 0 0.0109825)
(0.813121 0 0.0179235)
(0.87147 0 0.0199035)
(0.778059 0 0.0202036)
(0.852444 0 0.0264018)
(0.736457 0 0.0212031)
(0.824882 0 0.0305859)
(0.69108 0 0.0210083)
(0.791577 0 0.0325742)
(0.644658 0 0.0197611)
(0.755316 0 0.0325368)
(0.59969 0 0.0176815)
(0.718787 0 0.0307735)
(0.558236 0 0.0150696)
(0.68436 0 0.0276986)
(0.521749 0 0.012277)
(0.653854 0 0.0238039)
(0.490951 0 0.00964614)
(0.628364 0 0.0196178)
(0.46578 0 0.00743896)
(0.608176 0 0.0156552)
(0.445498 0 0.00577666)
(0.592798 0 0.0123162)
(0.429009 0 0.00462054)
(0.581213 0 0.00977642)
(0.415281 0 0.00382394)
(0.572285 0 0.00794757)
(0.403608 0 0.00322918)
(0.56515 0 0.0065975)
(0.393616 0 0.00273491)
(0.559336 0 0.00551493)
(0.385109 0 0.00230826)
(0.55465 0 0.00458378)
(0.377919 0 0.00196236)
(0.55099 0 0.00378274)
(0.371795 0 0.00170884)
(0.548187 0 0.00314581)
(0.366439 0 0.00143261)
(0.545929 0 0.00268638)
(0.543559 0 0.00208941)
(0.179192 0 -0.274754)
(0.0954198 0 -0.364391)
(0.351215 0 -0.240567)
(0.246351 0 -0.340282)
(0.495995 0 -0.190305)
(0.388771 0 -0.276423)
(0.612978 0 -0.143801)
(0.509944 0 -0.213814)
(0.705816 0 -0.104426)
(0.606519 0 -0.160509)
(0.778148 0 -0.071533)
(0.682141 0 -0.11618)
(0.832963 0 -0.043887)
(0.740513 0 -0.0792047)
(0.872523 0 -0.0204478)
(0.784342 0 -0.0480963)
(0.897654 0 -0.00062851)
(0.815496 0 -0.0215656)
(0.910268 0 0.0155276)
(0.835448 0 0.00101945)
(0.909281 0 0.0279261)
(0.844569 0 0.0206645)
(0.897947 0 0.0367539)
(0.843198 0 0.0349364)
(0.878912 0 0.0421685)
(0.833804 0 0.0445806)
(0.854981 0 0.044372)
(0.818836 0 0.0497532)
(0.828935 0 0.0437147)
(0.800786 0 0.0507921)
(0.8033 0 0.0407216)
(0.782051 0 0.0483165)
(0.780146 0 0.0360593)
(0.764702 0 0.0431695)
(0.760885 0 0.0304885)
(0.750287 0 0.03637)
(0.746168 0 0.0247949)
(0.739683 0 0.0289922)
(0.735847 0 0.0196618)
(0.733017 0 0.0220743)
(0.729133 0 0.0155158)
(0.729707 0 0.0163932)
(0.72496 0 0.0124257)
(0.728709 0 0.0122507)
(0.722422 0 0.0101677)
(0.728967 0 0.0094167)
(0.720979 0 0.00843084)
(0.729782 0 0.00741339)
(0.720388 0 0.00698539)
(0.730866 0 0.00584071)
(0.720543 0 0.005736)
(0.732163 0 0.00450064)
(0.721307 0 0.0046937)
(0.733659 0 0.00338052)
(0.72244 0 0.00390148)
(0.735242 0 0.0025641)
(0.72357 0 0.00331552)
(0.736639 0 0.00211917)
(0.737499 0 0.00208448)
(0.152695 0 -0.436315)
(0.0753347 0 -0.513946)
(0.294835 0 -0.382996)
(0.203465 0 -0.47621)
(0.412656 0 -0.3063)
(0.313126 0 -0.386435)
(0.507779 0 -0.235964)
(0.406804 0 -0.300535)
(0.583999 0 -0.17672)
(0.481058 0 -0.228355)
(0.644349 0 -0.127407)
(0.540004 0 -0.168631)
(0.691201 0 -0.0861736)
(0.586358 0 -0.118963)
(0.726426 0 -0.0513668)
(0.622005 0 -0.0772816)
(0.75168 0 -0.0214016)
(0.6484 0 -0.0419955)
(0.768057 0 0.00432336)
(0.666514 0 -0.0119159)
(0.776729 0 0.0251308)
(0.679137 0 0.013976)
(0.77753 0 0.0404828)
(0.683636 0 0.0343332)
(0.772426 0 0.0503249)
(0.68232 0 0.0483338)
(0.763618 0 0.0548983)
(0.677218 0 0.0560759)
(0.753236 0 0.0547824)
(0.670291 0 0.0580686)
(0.743161 0 0.0508441)
(0.663301 0 0.0552113)
(0.734872 0 0.0441623)
(0.657637 0 0.0487077)
(0.729362 0 0.0359736)
(0.654221 0 0.0399651)
(0.726985 0 0.027576)
(0.65345 0 0.0305062)
(0.727416 0 0.0201167)
(0.655119 0 0.0218064)
(0.729787 0 0.0143084)
(0.658433 0 0.0149533)
(0.733043 0 0.0102313)
(0.662222 0 0.0103201)
(0.736438 0 0.00746314)
(0.665427 0 0.00745112)
(0.739634 0 0.00547042)
(0.667549 0 0.00560696)
(0.74256 0 0.00389021)
(0.668576 0 0.0042262)
(0.745227 0 0.00259485)
(0.668701 0 0.00306338)
(0.747603 0 0.00163055)
(0.668118 0 0.00213047)
(0.749547 0 0.00110952)
(0.666933 0 0.00156559)
(0.750774 0 0.00117099)
(0.665143 0 0.00150377)
(0.662156 0 0.0021704)
(0.123577 0 -0.563375)
(0.0551742 0 -0.634982)
(0.230496 0 -0.489587)
(0.15504 0 -0.578458)
(0.315467 0 -0.390398)
(0.225851 0 -0.465774)
(0.383487 0 -0.301795)
(0.288556 0 -0.362546)
(0.438318 0 -0.227992)
(0.336386 0 -0.277163)
(0.482177 0 -0.166742)
(0.374892 0 -0.206749)
(0.516689 0 -0.115527)
(0.405506 0 -0.148249)
(0.543054 0 -0.0723042)
(0.429324 0 -0.0991261)
(0.562293 0 -0.0356148)
(0.447249 0 -0.05756)
(0.575571 0 -0.00451645)
(0.459495 0 -0.0224034)
(0.583728 0 0.0210453)
(0.469271 0 0.0076852)
(0.586408 0 0.0403219)
(0.472711 0 0.0323152)
(0.58531 0 0.0527661)
(0.472306 0 0.049141)
(0.582443 0 0.058541)
(0.470115 0 0.0581344)
(0.579373 0 0.0584208)
(0.467756 0 0.0602199)
(0.577262 0 0.0535581)
(0.466253 0 0.0566561)
(0.576875 0 0.0453858)
(0.466106 0 0.0489661)
(0.57855 0 0.0355513)
(0.467392 0 0.0388729)
(0.582124 0 0.0257676)
(0.469808 0 0.0282295)
(0.58686 0 0.0174989)
(0.472681 0 0.0188608)
(0.591572 0 0.0115712)
(0.474981 0 0.0120917)
(0.595001 0 0.00789933)
(0.475444 0 0.00828703)
(0.5966 0 0.00574924)
(0.473156 0 0.00652567)
(0.596363 0 0.00437335)
(0.468207 0 0.00574065)
(0.594568 0 0.0033216)
(0.461185 0 0.00521669)
(0.591528 0 0.00246648)
(0.452732 0 0.00470168)
(0.5875 0 0.00189465)
(0.443357 0 0.00424987)
(0.582678 0 0.00173383)
(0.433378 0 0.00404237)
(0.577246 0 0.00216321)
(0.423094 0 0.00422833)
(0.411265 0 0.00473918)
(0.0898309 0 -0.657875)
(0.0340555 0 -0.722966)
(0.157575 0 -0.562847)
(0.100474 0 -0.643242)
(0.206233 0 -0.445991)
(0.127692 0 -0.511206)
(0.244155 0 -0.345342)
(0.157491 0 -0.397118)
(0.274534 0 -0.26253)
(0.175751 0 -0.304204)
(0.298811 0 -0.194017)
(0.190717 0 -0.227849)
(0.317995 0 -0.136757)
(0.202191 0 -0.164528)
(0.332753 0 -0.0883981)
(0.210942 0 -0.111354)
(0.343517 0 -0.0472787)
(0.217584 0 -0.0662674)
(0.35094 0 -0.0120132)
(0.22177 0 -0.0282665)
(0.355472 0 0.0173892)
(0.22541 0 0.00418966)
(0.35563 0 0.0394005)
(0.224468 0 0.0321966)
(0.35438 0 0.0531781)
(0.222086 0 0.0500595)
(0.353314 0 0.0591392)
(0.219693 0 0.0589002)
(0.353197 0 0.0584315)
(0.218141 0 0.0603014)
(0.35429 0 0.0525461)
(0.217118 0 0.0559086)
(0.35641 0 0.0432183)
(0.215766 0 0.0475491)
(0.359011 0 0.032346)
(0.212969 0 0.037176)
(0.361299 0 0.0219077)
(0.20773 0 0.0267725)
(0.362105 0 0.013685)
(0.199834 0 0.0183595)
(0.360172 0 0.00874578)
(0.189578 0 0.0132654)
(0.354284 0 0.00672498)
(0.177153 0 0.0117779)
(0.344844 0 0.00634506)
(0.163372 0 0.0119906)
(0.332792 0 0.00657562)
(0.148685 0 0.0125532)
(0.31909 0 0.00678809)
(0.133331 0 0.0127784)
(0.304507 0 0.00679016)
(0.117785 0 0.0125598)
(0.289439 0 0.00674122)
(0.102378 0 0.0121777)
(0.274065 0 0.00693676)
(0.0871803 0 0.0119395)
(0.258963 0 0.0072275)
(0.0721073 0 0.0118033)
(0.0566954 0 0.010581)
(0.0514402 0 -0.715256)
(0.0110329 0 -0.773349)
(0.0757526 0 -0.5988)
(0.0388206 0 -0.666492)
(0.0859123 0 -0.469053)
(0.019751 0 -0.520693)
(0.091429 0 -0.361867)
(0.0141517 0 -0.402147)
(0.0941613 0 -0.274605)
(-1.34324e-05 0 -0.306636)
(0.0952985 0 -0.202828)
(-0.0122852 0 -0.228837)
(0.095423 0 -0.143106)
(-0.0240323 0 -0.164633)
(0.0949789 0 -0.0929166)
(-0.0344877 0 -0.110986)
(0.0945827 0 -0.0507376)
(-0.0433945 0 -0.0659469)
(0.0941592 0 -0.0145398)
(-0.0521455 0 -0.027932)
(0.090667 0 0.0172731)
(-0.0633292 0 0.00688286)
(0.0868076 0 0.0415791)
(-0.0683716 0 0.0351028)
(0.0836706 0 0.0554988)
(-0.0736371 0 0.0523659)
(0.081644 0 0.0604387)
(-0.0785542 0 0.060355)
(0.0800135 0 0.0585494)
(-0.0836439 0 0.0614443)
(0.0773568 0 0.0519694)
(-0.0901829 0 0.0577266)
(0.0719944 0 0.0427661)
(-0.0993462 0 0.0511321)
(0.062389 0 0.0330026)
(-0.111994 0 0.0434425)
(0.047818 0 0.0246312)
(-0.128446 0 0.0360541)
(0.029076 0 0.0191396)
(-0.147927 0 0.030016)
(0.00794489 0 0.0170092)
(-0.168954 0 0.0260974)
(-0.012762 0 0.0172526)
(-0.190257 0 0.0240553)
(-0.0326001 0 0.0181352)
(-0.210134 0 0.023475)
(-0.0512464 0 0.0185374)
(-0.228302 0 0.0230927)
(-0.0685123 0 0.0182467)
(-0.244952 0 0.0223072)
(-0.0845386 0 0.0175932)
(-0.260048 0 0.0211955)
(-0.0996305 0 0.0170646)
(-0.27371 0 0.0201179)
(-0.114096 0 0.0165911)
(-0.28631 0 0.0193703)
(-0.127445 0 0.0150054)
(-0.298394 0 0.0184989)
(-0.308817 0 0.0161348)
(0.00472774 0 -0.729952)
(-0.0160579 0 -0.777979)
(-0.0154517 0 -0.593127)
(-0.0319565 0 -0.647194)
(-0.0450548 0 -0.455726)
(-0.0967313 0 -0.493052)
(-0.0747645 0 -0.347411)
(-0.142262 0 -0.375062)
(-0.103543 0 -0.26047)
(-0.191262 0 -0.281019)
(-0.129898 0 -0.190075)
(-0.234521 0 -0.205932)
(-0.153272 0 -0.132303)
(-0.273109 0 -0.144799)
(-0.173609 0 -0.0839732)
(-0.306619 0 -0.0941363)
(-0.192156 0 -0.0422132)
(-0.335261 0 -0.0509424)
(-0.211109 0 -0.0052672)
(-0.36106 0 -0.0129618)
(-0.225713 0 0.025219)
(-0.384296 0 0.0181455)
(-0.233871 0 0.0462612)
(-0.394298 0 0.0412459)
(-0.240015 0 0.0580239)
(-0.403493 0 0.0568828)
(-0.246893 0 0.0625722)
(-0.412165 0 0.0652925)
(-0.255947 0 0.0618901)
(-0.421896 0 0.0677902)
(-0.268074 0 0.0578271)
(-0.433843 0 0.066026)
(-0.283535 0 0.0519773)
(-0.448447 0 0.0614628)
(-0.301908 0 0.0457)
(-0.465526 0 0.0554291)
(-0.322406 0 0.0399869)
(-0.484532 0 0.0491106)
(-0.344069 0 0.035427)
(-0.504708 0 0.0434893)
(-0.365751 0 0.0322494)
(-0.525144 0 0.0392638)
(-0.38662 0 0.0303488)
(-0.545055 0 0.0364289)
(-0.40563 0 0.0290883)
(-0.563513 0 0.0344802)
(-0.422426 0 0.0277169)
(-0.580064 0 0.0325864)
(-0.436969 0 0.0260631)
(-0.594401 0 0.0303331)
(-0.449432 0 0.0243686)
(-0.606439 0 0.0279113)
(-0.460206 0 0.0229029)
(-0.61648 0 0.025786)
(-0.469552 0 0.0214762)
(-0.62516 0 0.0241713)
(-0.477563 0 0.0196037)
(-0.63298 0 0.0225171)
(-0.638468 0 0.0204578)
(-0.0436575 0 -0.695883)
(-0.0492362 0 -0.73522)
(-0.113663 0 -0.544652)
(-0.111894 0 -0.580248)
(-0.185591 0 -0.407357)
(-0.223208 0 -0.425891)
(-0.255307 0 -0.302453)
(-0.312625 0 -0.311504)
(-0.31913 0 -0.220445)
(-0.398096 0 -0.224209)
(-0.37602 0 -0.155182)
(-0.472933 0 -0.156487)
(-0.425854 0 -0.101913)
(-0.537503 0 -0.102511)
(-0.468943 0 -0.0571659)
(-0.592332 0 -0.0584352)
(-0.506021 0 -0.0189605)
(-0.638525 0 -0.0209476)
(-0.535013 0 0.0122353)
(-0.674644 0 0.00993821)
(-0.554743 0 0.0359716)
(-0.699222 0 0.0333611)
(-0.568257 0 0.0533115)
(-0.715772 0 0.0514222)
(-0.579007 0 0.0646262)
(-0.728914 0 0.0647862)
(-0.589463 0 0.0701926)
(-0.740194 0 0.0727988)
(-0.601204 0 0.0711561)
(-0.75149 0 0.0760189)
(-0.614861 0 0.0687277)
(-0.763906 0 0.0753722)
(-0.630407 0 0.0640516)
(-0.77782 0 0.0718505)
(-0.647446 0 0.0582805)
(-0.793094 0 0.0665454)
(-0.665523 0 0.0525181)
(-0.809409 0 0.0606249)
(-0.684233 0 0.0476122)
(-0.826451 0 0.055126)
(-0.703006 0 0.0438807)
(-0.843853 0 0.0506637)
(-0.721141 0 0.041051)
(-0.861098 0 0.0471813)
(-0.737752 0 0.0384831)
(-0.877419 0 0.0440964)
(-0.752163 0 0.0356438)
(-0.892028 0 0.0407321)
(-0.764069 0 0.0325285)
(-0.904293 0 0.0369039)
(-0.773606 0 0.0295595)
(-0.914008 0 0.0330505)
(-0.781241 0 0.0271002)
(-0.921559 0 0.0298031)
(-0.787475 0 0.0250403)
(-0.92778 0 0.0273735)
(-0.793117 0 0.023161)
(-0.933167 0 0.0253467)
(-0.936429 0 0.0237631)
(-0.0994423 0 -0.612271)
(-0.0906676 0 -0.637822)
(-0.220436 0 -0.451645)
(-0.203684 0 -0.464541)
(-0.34021 0 -0.319482)
(-0.36643 0 -0.314056)
(-0.451153 0 -0.223632)
(-0.499867 0 -0.21036)
(-0.549112 0 -0.152435)
(-0.620211 0 -0.137012)