/*--------------------------------*- C++ -*----------------------------------*\
  =========                 |
  \\      /  F ield         | OpenFOAM: The Open Source CFD Toolbox
   \\    /   O peration     | Website:  https://openfoam.org
    \\  /    A nd           | Version:  dev
     \\/     M anipulation  |
\*---------------------------------------------------------------------------*/
FoamFile
{
    version     2.0;
    format      ascii;
    class       volScalarField;
    location    "10";
    object      p;
}
// * * * * * * * * * * * * * * * * * * * * * * * * * * * * * * * * * * * * * //

dimensions      [0 2 -2 0 0 0 0];

internalField   nonuniform List<scalar> 
2790
(
146.654
146.562
146.829
147.4
148.18
149.138
150.27
151.577
153.054
154.695
156.494
158.445
160.539
162.764
165.105
167.541
170.045
172.584
175.116
177.59
179.948
182.126
184.056
185.676
186.936
187.81
188.246
188.301
188.352
188.564
146.452
146.469
146.762
147.33
148.106
149.06
150.188
151.489
152.958
154.591
156.381
158.322
160.405
162.619
164.949
167.374
169.87
172.404
174.934
177.412
179.78
181.975
183.93
185.578
186.862
187.736
188.133
188.187
188.32
188.605
146.253
146.34
146.652
147.21
147.973
148.915
150.028
151.31
152.758
154.366
156.128
158.038
160.086
162.261
164.55
166.932
169.384
171.875
174.367
176.814
179.164
181.357
183.329
185.019
186.369
187.345
187.937
188.293
188.608
188.907
146.028
146.146
146.47
147.02
147.768
148.693
149.787
151.045
152.464
154.039
155.762
157.628
159.627
161.747
163.976
166.294
168.679
171.102
173.529
175.919
178.226
180.398
182.38
184.119
185.573
186.725
187.593
188.264
188.816
189.335
145.767
145.9
146.232
146.774
147.506
148.41
149.477
150.705
152.087
153.618
155.292
157.102
159.037
161.088
163.24
165.476
167.774
170.109
172.451
174.764
177.009
179.144
181.127
182.917
184.487
185.829
186.959
187.922
188.733
189.479
145.466
145.604
145.939
146.471
147.183
148.061
149.097
150.286
151.624
153.104
154.719
156.461
158.322
160.291
162.352
164.49
166.685
168.914
171.151
173.367
175.529
177.607
179.569
181.39
183.053
184.554
185.9
187.106
188.125
189.043
145.124
145.263
145.594
146.113
146.802
147.65
148.65
149.795
151.081
152.501
154.048
155.714
157.489
159.362
161.319
163.345
165.421
167.527
169.64
171.736
173.791
175.783
177.69
179.501
181.206
182.807
184.301
185.68
186.844
187.89
144.739
144.876
145.2
145.703
146.366
147.18
148.138
149.233
150.461
151.814
153.285
154.864
156.543
158.309
160.149
162.049
163.99
165.954
167.922
169.874
171.792
173.659
175.466
177.209
178.887
180.506
182.061
183.533
184.783
185.933
144.313
144.446
144.76
145.243
145.877
146.653
147.565
148.605
149.769
151.048
152.434
153.918
155.491
157.139
158.85
160.609
162.398
164.202
166.002
167.781
169.524
171.223
172.871
174.471
176.033
177.568
179.077
180.547
181.819
183.056
143.846
143.974
144.275
144.735
145.338
146.073
146.934
147.915
149.008
150.207
151.502
152.883
154.34
155.861
157.431
159.034
160.656
162.279
163.885
165.459
166.987
168.462
169.88
171.249
172.582
173.901
175.222
176.56
177.76
179.064
143.341
143.463
143.748
144.183
144.751
145.442
146.249
147.166
148.185
149.298
150.495
151.766
153.1
154.483
155.9
157.336
158.774
160.195
161.582
162.917
164.185
165.376
166.483
167.512
168.477
169.406
170.338
171.337
172.3
173.618
142.799
142.913
143.181
143.59
144.121
144.764
145.514
146.363
147.304
148.326
149.42
150.575
151.778
153.015
154.27
155.527
156.766
157.967
159.109
160.171
161.133
161.976
162.685
163.252
163.679
163.991
164.235
164.545
164.928
166.102
142.222
142.328
142.578
142.958
143.45
144.044
144.734
145.512
146.37
147.297
148.284
149.317
150.384
151.468
152.554
153.62
154.647
155.611
156.487
157.246
157.86
158.295
158.518
158.494
158.192
157.597
156.725
155.737
154.793
155.3
141.612
141.711
141.941
142.29
142.741
143.284
143.912
144.617
145.39
146.219
147.095
148.003
148.929
149.855
150.764
151.633
152.438
153.153
153.744
154.176
154.407
154.384
154.046
153.316
152.095
150.269
147.711
144.417
140.478
138.451
140.973
141.063
141.273
141.59
141.999
142.489
143.053
143.683
144.368
145.098
145.86
146.64
147.422
148.187
148.915
149.582
150.159
150.616
150.912
151.003
150.83
150.32
149.376
147.862
145.585
142.257
137.421
130.417
119.978
107.792
0.460547
0.440333
0.370078
0.273348
0.174018
0.0844922
0.00972315
-0.0487179
-0.0909375
-0.118128
-0.131536
-0.133992
-0.128383
-0.117377
-0.103417
-0.088573
-0.07439
-0.0618258
-0.0513096
-0.0428623
-0.0362255
-0.0309874
-0.0267014
-0.0229839
-0.0195642
-0.016278
-0.0130212
-0.00970017
-0.0062064
-0.00242535
0.411039
0.388349
0.322334
0.23322
0.141746
0.0588123
-0.0109005
-0.0655412
-0.104444
-0.127934
-0.138844
-0.1394
-0.132134
-0.119684
-0.104534
-0.0887788
-0.0739632
-0.0610404
-0.0504057
-0.0420176
-0.035541
-0.0304896
-0.0263631
-0.022756
-0.0194048
-0.0161649
-0.0129486
-0.00966812
-0.00620763
-0.0023579
0.354957
0.327969
0.264717
0.182849
0.0998889
0.0246069
-0.0388337
-0.0885077
-0.1238
-0.144703
-0.15274
-0.15029
-0.1401
-0.124888
-0.107252
-0.0894004
-0.0729598
-0.0589127
-0.0476652
-0.0391494
-0.0329323
-0.0283595
-0.024744
-0.0215545
-0.0184984
-0.0154707
-0.0124307
-0.00931548
-0.00599793
-0.00226757
0.299011
0.267568
0.20623
0.130637
0.0556906
-0.0121862
-0.0693779
-0.113937
-0.145061
-0.162792
-0.167747
-0.162096
-0.148666
-0.130369
-0.109979
-0.0898103
-0.0715646
-0.0562938
-0.0444439
-0.035915
-0.0301344
-0.0262143
-0.0232264
-0.0205036
-0.0177508
-0.0149368
-0.0120939
-0.009175
-0.00606279
-0.00262046
0.256566
0.220922
0.161269
0.0903092
0.0213596
-0.0411275
-0.0937518
-0.134522
-0.162459
-0.17739
-0.180019
-0.171976
-0.155789
-0.134831
-0.112127
-0.0900596
-0.0703699
-0.0541548
-0.0418863
-0.0334432
-0.0281192
-0.0247825
-0.0222816
-0.0198532
-0.0172466
-0.0145137
-0.011776
-0.00899145
-0.0059918
-0.00270618
0.23967
0.199052
0.140639
0.0715832
0.00524128
-0.0551814
-0.106115
-0.145527
-0.172336
-0.186046
-0.187365
-0.177828
-0.159908
-0.137435
-0.113465
-0.0903956
-0.0699813
-0.0533115
-0.0408292
-0.0323839
-0.0272256
-0.0241237
-0.0218274
-0.0195713
-0.0170972
-0.0144553
-0.0117834
-0.00904699
-0.00615989
-0.0028073
0.259155
0.211109
0.152312
0.0808199
0.0121436
-0.0505171
-0.103305
-0.144119
-0.1718
-0.186022
-0.18795
-0.179002
-0.160997
-0.138404
-0.114349
-0.0912404
-0.0708377
-0.0542291
-0.0418389
-0.0334752
-0.0282541
-0.0249145
-0.0223531
-0.0199029
-0.0173121
-0.0146218
-0.0119327
-0.00928944
-0.00662439
-0.00293035
0.321599
0.264557
0.197792
0.118223
0.0413338
-0.0279405
-0.0858086
-0.130249
-0.16064
-0.177936
-0.183085
-0.175968
-0.159867
-0.138735
-0.115814
-0.0935611
-0.0736886
-0.0572409
-0.0446673
-0.0358745
-0.0301786
-0.0264811
-0.0237065
-0.0211036
-0.018328
-0.0153907
-0.0124965
-0.00988695
-0.00735406
-0.00306967
0.429773
0.355937
0.271181
0.175705
0.0854804
0.00613604
-0.0591019
-0.108875
-0.144135
-0.166251
-0.174663
-0.170568
-0.157303
-0.138529
-0.117483
-0.0966275
-0.0776181
-0.0614559
-0.0486673
-0.0393626
-0.0331531
-0.0291702
-0.0263199
-0.0236294
-0.0205479
-0.0170829
-0.0136808
-0.010839
-0.00812506
-0.00320038
0.572891
0.468074
0.354723
0.236465
0.1303
0.0405451
-0.0323874
-0.0891605
-0.129556
-0.154452
-0.165461
-0.164373
-0.153994
-0.137754
-0.118908
-0.099887
-0.0821484
-0.066499
-0.0535187
-0.0436673
-0.0370243
-0.0330124
-0.0304256
-0.0278547
-0.0243644
-0.0199928
-0.0156212
-0.0121062
-0.0088439
-0.00331649
0.723406
0.569107
0.42511
0.283933
0.16007
0.0591085
-0.0192875
-0.0777786
-0.119294
-0.145608
-0.15848
-0.159605
-0.151352
-0.137067
-0.120237
-0.103288
-0.0872116
-0.0722811
-0.0590263
-0.0484695
-0.0414652
-0.0378515
-0.0361471
-0.0341368
-0.0301845
-0.0243819
-0.0183672
-0.0136147
-0.00947577
-0.00341479
0.849454
0.640413
0.453149
0.291112
0.160239
0.0577506
-0.0206869
-0.078233
-0.117954
-0.143094
-0.156141
-0.158205
-0.150715
-0.13707
-0.12156
-0.106814
-0.0929119
-0.0789376
-0.0651283
-0.0534243
-0.0460086
-0.0433864
-0.0435606
-0.0429041
-0.0385162
-0.0305213
-0.02188
-0.015231
-0.00999787
-0.00349228
0.909665
0.624603
0.406145
0.23606
0.110763
0.0202149
-0.0472368
-0.0965518
-0.129052
-0.148945
-0.159977
-0.16178
-0.153355
-0.138183
-0.122679
-0.110326
-0.0995315
-0.0869233
-0.0719433
-0.0581027
-0.0499425
-0.0491015
-0.0527016
-0.0547406
-0.0500801
-0.0387482
-0.0260014
-0.0166991
-0.0103757
-0.00354696
0.740231
0.36113
0.187187
0.0738569
-0.0107578
-0.0621119
-0.101229
-0.134362
-0.15365
-0.163148
-0.170248
-0.171785
-0.160666
-0.140319
-0.122412
-0.112961
-0.107271
-0.0970017
-0.0797631
-0.0618572
-0.052123
-0.0541428
-0.0635517
-0.0704859
-0.0659638
-0.0495435
-0.0303785
-0.0175142
-0.0105383
-0.00357867
0.10694
-0.353698
-0.313864
-0.225222
-0.22104
-0.183508
-0.170266
-0.191184
-0.197086
-0.187318
-0.186618
-0.18928
-0.173956
-0.142686
-0.11838
-0.113515
-0.117258
-0.111469
-0.08993
-0.0641593
-0.0509902
-0.0572704
-0.0760407
-0.0913511
-0.0878269
-0.0636504
-0.0343368
-0.0167018
-0.0103176
-0.00359
140.294
140.375
140.563
140.848
141.213
141.648
142.146
142.697
143.293
143.919
144.564
145.212
145.846
146.446
146.988
147.447
147.791
147.982
147.976
147.716
147.13
146.121
144.558
142.245
138.885
133.982
126.618
114.884
92.7664
33.143
139.567
139.638
139.804
140.054
140.373
140.751
141.18
141.651
142.152
142.672
143.197
143.709
144.191
144.621
144.973
145.22
145.326
145.25
144.939
144.329
143.336
141.846
139.7
136.668
132.391
126.286
117.32
103.763
84.2482
55.7829
138.797
138.858
139.001
139.215
139.486
139.806
140.164
140.552
140.958
141.37
141.771
142.146
142.474
142.732
142.895
142.93
142.8
142.46
141.854
140.911
139.541
137.621
134.987
131.41
126.564
119.993
111.107
99.2623
85.0025
68.3177
137.987
138.038
138.156
138.333
138.556
138.815
139.102
139.406
139.715
140.017
140.295
140.531
140.706
140.795
140.77
140.598
140.24
139.649
138.767
137.52
135.818
133.544
130.545
126.624
121.534
114.981
106.668
96.2575
83.6845
68.5048
137.137
137.177
137.272
137.411
137.585
137.783
137.997
138.217
138.429
138.621
138.776
138.876
138.9
138.823
138.616
138.246
137.673
136.849
135.717
134.206
132.23
129.684
126.436
122.333
117.191
110.811
102.991
93.4866
82.1293
69.1239
136.25
136.28
136.35
136.452
136.576
136.713
136.854
136.989
137.106
137.189
137.224
137.19
137.068
136.831
136.452
135.896
135.124
134.091
132.741
131.009
128.819
126.078
122.683
118.513
113.437
107.32
100.04
91.4953
81.6754
70.992
135.329
135.349
135.394
135.458
135.532
135.609
135.679
135.73
135.752
135.73
135.647
135.485
135.222
134.834
134.293
133.567
132.617
131.401
129.867
127.96
125.611
122.747
119.286
115.14
110.221
104.451
97.7741
90.1787
81.7074
72.696
134.377
134.386
134.407
134.433
134.459
134.476
134.475
134.445
134.375
134.25
134.055
133.77
133.376
132.847
132.159
131.278
130.172
128.801
127.119
125.078
122.623
119.695
116.235
112.181
107.48
102.093
96.0042
89.2345
81.8331
74.0725
133.397
133.396
133.393
133.383
133.361
133.319
133.249
133.141
132.983
132.76
132.457
132.058
131.541
130.884
130.062
129.047
127.807
126.308
124.512
122.377
119.861
116.919
113.508
109.592
105.139
100.136
94.5886
88.5301
82.0145
75.2696
132.394
132.383
132.356
132.31
132.242
132.144
132.008
131.825
131.582
131.267
130.864
130.358
129.729
128.956
128.017
126.886
125.536
123.936
122.056
119.862
117.322
114.404
111.08
107.328
103.134
98.5011
93.4454
88.0065
82.2375
76.3236
131.372
131.351
131.302
131.222
131.109
130.957
130.758
130.503
130.181
129.779
129.285
128.681
127.951
127.076
126.036
124.808
123.369
121.694
119.757
117.534
115
112.134
108.92
105.346
101.412
97.1262
92.513
87.6116
82.4699
77.2366
130.336
130.306
130.235
130.122
129.967
129.764
129.506
129.184
128.788
128.307
127.728
127.036
126.217
125.254
124.128
122.821
121.313
119.585
117.615
115.387
112.883
110.09
107
103.61
99.9251
95.9607
91.7418
87.3045
82.691
78.0206
129.291
129.253
129.161
129.017
128.822
128.571
128.257
127.873
127.41
126.856
126.202
125.433
124.536
123.498
122.302
120.932
119.374
117.611
115.629
113.415
110.958
108.252
105.293
102.084
98.6357
94.9642
91.0941
87.0578
82.8914
78.6911
128.244
128.197
128.086
127.913
127.681
127.385
127.021
126.58
126.055
125.437
124.715
123.878
122.916
121.815
120.562
119.146
117.553
115.773
113.795
111.609
109.212
106.599
103.773
100.74
97.5116
94.1046
90.5422
86.8527
83.0665
79.2614
127.2
127.145
127.017
126.817
126.55
126.214
125.802
125.31
124.73
124.055
123.274
122.38
121.362
120.21
118.914
117.465
115.852
114.068
112.105
109.96
107.63
105.115
102.42
99.5528
96.5263
93.3569
90.0653
86.6759
83.2143
79.7438
126.165
126.104
125.959
125.735
125.436
125.063
124.61
124.072
123.443
122.717
121.887
120.944
119.881
118.689
117.361
115.89
114.268
112.491
110.555
108.457
106.198
103.781
101.212
98.5006
95.6585
92.7014
89.6478
86.5185
83.3351
80.1491
125.147
125.079
124.92
124.673
124.346
123.94
123.449
122.871
122.2
121.431
120.558
119.575
118.476
117.254
115.905
114.421
112.801
111.039
109.136
107.09
104.904
102.583
100.134
97.566
94.8908
92.1227
89.278
86.3744
83.43
80.4874
124.153
124.079
123.906
123.639
123.287
122.851
122.328
121.715
121.008
120.202
119.294
118.279
117.152
115.909
114.546
113.059
111.447
109.707
107.841
105.85
103.737
101.508
99.171
96.7342
94.2092
91.6089
88.9473
86.2397
83.5014
80.7673
123.188
123.109
122.924
122.64
122.266
121.804
121.253
120.61
119.872
119.036
118.1
117.06
115.913
114.655
113.286
111.802
110.203
108.49
106.664
104.728
102.686
100.545
98.3105
95.9932
93.6028
91.1508
88.6496
86.1122
83.5516
80.9967
122.262
122.179
121.983
121.683
121.29
120.806
120.23
119.562
118.798
117.938
116.98
115.921
114.76
113.494
112.124
110.648
109.068
107.384
105.599
103.717
101.743
99.6821
97.5429
95.3332
93.0627
90.7415
88.3804
85.9908
83.5836
81.1829
121.381
121.294
121.089
120.776
120.366
119.863
119.267
118.577
117.793
116.914
115.939
114.866
113.696
112.427
111.061
109.597
108.037
106.383
104.64
102.81
100.899
98.9131
96.8598
94.7466
92.5822
90.3758
88.1369
85.8753
83.6003
81.3321
120.553
120.462
120.25
119.925
119.501
118.982
118.37
117.663
116.862
115.968
114.98
113.898
112.723
111.456
110.096
108.646
107.109
105.486
103.782
102.001
100.149
98.2311
96.2548
94.2273
92.1564
90.0503
87.9174
85.7662
83.605
81.4505
119.787
119.693
119.474
119.139
118.703
118.171
117.544
116.824
116.01
115.105
114.108
113.021
111.845
110.58
109.23
107.796
106.281
104.688
103.021
101.286
99.487
97.6305
95.7228
93.7707
91.7813
89.7622
87.7207
85.6644
83.6005
81.5429
119.089
118.993
118.768
118.425
117.979
117.436
116.798
116.066
115.243
114.329
113.327
112.237
111.062
109.804
108.464
107.046
105.552
103.988
102.356
100.662
98.9107
97.1083
95.2606
93.3741
91.4552
89.5108
87.5475
85.5719
83.5907
81.6154
118.47
118.372
118.141
117.79
117.335
116.783
116.136
115.397
114.566
113.647
112.641
111.551
110.378
109.126
107.797
106.395
104.922
103.383
101.783
100.125
98.4161
96.6606
94.8647
93.0342
91.1753
89.294
87.3966
85.4889
83.5768
81.67
117.939
117.837
117.6
117.243
116.78
116.221
115.568
114.822
113.986
113.063
112.056
110.966
109.798
108.553
107.234
105.846
104.392
102.877
101.303
99.6776
98.0042
96.2886
94.5363
92.7529
90.944
89.1153
87.2724
85.4208
83.5659
81.716
117.504
117.399
117.155
116.789
116.32
115.755
115.096
114.345
113.506
112.581
111.573
110.485
109.32
108.082
106.774
105.398
103.961
102.464
100.914
99.3143
97.6705
95.9874
94.2704
92.5249
90.7561
88.9693
87.1698
85.3627
83.5528
81.7469
117.178
117.067
116.814
116.442
115.968
115.399
114.735
113.981
113.139
112.212
111.205
110.119
108.958
107.726
106.425
105.061
103.636
102.155
100.623
99.0447
97.424
95.7665
94.0772
92.3612
90.6236
88.8694
87.1036
85.331
83.5563
81.7857
116.976
116.841
116.571
116.193
115.717
115.145
114.479
113.723
112.88
111.954
110.947
109.863
108.706
107.478
106.184
104.827
103.412
101.942
100.423
98.8582
97.2534
95.6131
93.9422
92.2458
90.5288
88.7959
87.052
85.3017
83.5493
81.7998
116.958
116.759
116.461
116.076
115.597
115.022
114.353
113.595
112.751
111.825
110.819
109.737
108.582
107.358
106.069
104.717
103.309
101.847
100.336
98.7811
97.1866
95.5575
93.8984
92.2144
90.5102
88.7906
87.0602
85.3234
83.5847
81.8481
-50.3394
-30.06
-11.0564
35.3824
27.8536
15.6448
50.7567
38.6215
27.3441
52.1991
41.7536
33.6803
56.5445
48.2369
41.458
60.9357
54.0111
48.1046
64.2171
58.3241
53.2646
66.8226
61.7889
57.4721
69.02
64.6809
60.9663
70.8755
67.0917
63.8604
72.4365
69.1024
66.2623
73.7523
70.787
68.2663
74.8635
72.2036
69.9458
75.8023
73.3977
71.3588
76.5953
74.406
72.5507
77.2644
75.258
73.5582
77.828
75.9778
74.4104
78.3012
76.5853
75.1309
78.697
77.0967
75.7394
79.0265
77.526
76.252
79.2993
77.8848
76.6824
79.524
78.1836
77.0425
79.7074
78.4304
77.3417
79.8574
78.6345
77.5899
79.9766
78.799
77.7917
80.0768
78.9366
77.9594
80.1494
79.0391
78.0866
80.2228
79.1352
78.2
80.2572
79.186
78.2648
80.3265
79.2694
78.3547
-3.10554
-3.04283
-1.6022
-0.466199
-0.420481
-0.311044
-0.254463
-0.292391
-0.271464
-0.203542
-0.188344
-0.207602
-0.197063
-0.148575
-0.108025
-0.109661
-0.130203
-0.132644
-0.103047
-0.0623751
-0.0424414
-0.0555926
-0.0897319
-0.119357
-0.118737
-0.0826646
-0.0367646
-0.0123667
-0.00923034
-0.0035887
1.85581
-0.961284
0.646403
0.113011
-1.28359
-1.00436
-0.301609
-0.304275
-0.273489
-0.167572
-0.196981
-0.281909
-0.279758
-0.167358
-0.0680421
-0.0842491
-0.142389
-0.166612
-0.126663
-0.0580483
-0.0246032
-0.0486109
-0.106995
-0.159633
-0.164658
-0.109552
-0.0354616
-0.000563677
-0.0058066
-0.00360333
13.0501
4.70493
1.84832
-0.623833
-0.884807
0.83096
0.940223
-0.594001
-0.913252
-0.503603
-0.173376
-0.272236
-0.274829
-0.0726976
0.0328424
-0.0572195
-0.192127
-0.252568
-0.180193
-0.0419059
0.022874
-0.0209632
-0.117956
-0.207822
-0.225822
-0.145298
-0.0264727
0.025783
0.00340625
-0.00373236
22.8825
12.9721
7.05781
3.2934
1.62698
1.17905
-0.153427
-0.831447
-0.302096
0.872073
0.648275
-0.464467
-0.821599
-0.516835
0.0441697
0.0491966
-0.193132
-0.308541
-0.187175
0.0328147
0.10376
0.0118152
-0.146881
-0.29518
-0.337301
-0.222345
-0.00729566
0.0764919
0.0244474
-0.00425929
32.0808
22.287
14.9512
9.66764
6.05285
3.59271
1.70132
0.732493
0.526638
0.456941
-0.0889101
-0.705756
-0.707217
0.496662
1.00303
0.205967
-0.37593
-0.667249
-0.558438
-0.0542101
0.20867
0.0864003
-0.149365
-0.368938
-0.434396
-0.23552
0.0436623
0.165609
0.0644021
-0.00594742
40.0826
31.135
23.2333
16.7973
11.8755
8.24178
5.57935
3.70684
2.44177
1.51047
0.736398
0.150179
0.00105413
0.414868
0.403701
0.0633309
-0.417775
-0.665235
-0.274147
0.50175
0.601604
0.148703
-0.213167
-0.539065
-0.717029
-0.539289
0.0508298
0.292884
0.127117
-0.0111155
46.6149
38.7917
31.0003
24.101
18.4763
14.0252
10.5085
7.75617
5.66379
4.09076
2.87367
1.93311
1.34436
1.08985
0.832874
0.453944
-0.0303688
-0.290651
-0.109199
0.234524
0.36234
0.157367
-0.19454
-0.576106
-0.743766
-0.321647
0.41746
0.530483
0.204635
-0.0242447
51.9351
45.1898
37.9186
31.0797
25.1944
20.2513
16.1134
12.6936
9.9293
7.7203
5.93969
4.5142
3.44784
2.70437
2.10736
1.49798
0.906779
0.525598
0.450617
0.537963
0.546987
0.314952
-0.066512
-0.425453
-0.546695
-0.252351
0.197451
0.401852
0.307113
-0.0630801
56.2749
50.4477
43.8526
37.371
31.5491
26.4371
21.9694
18.1112
14.8337
12.0804
9.77736
7.87022
6.33179
5.11474
4.10564
3.20248
2.41441
1.82742
1.48368
1.29778
1.09376
0.754194
0.337795
-0.0151436
-0.157453
-0.0123718
0.268104
0.402837
0.262114
-0.303036
59.8168
54.7416
48.8307
42.8391
37.2815
32.2358
27.6728
23.5882
19.9838
16.8413
14.1249
11.7976
9.82752
8.17212
6.76275
5.53784
4.48515
3.63228
2.98988
2.49943
2.04972
1.56586
1.07362
0.661453
0.422196
0.391891
0.468404
0.44243
0.173482
-0.518009
62.7261
58.2612
52.975
47.5016
42.3024
37.461
32.9644
28.8243
25.0621
21.6835
18.6772
16.0233
13.6993
11.6754
9.91096
8.36603
7.02123
5.87743
4.92894
4.13537
3.429
2.75955
2.13155
1.59364
1.1997
0.962128
0.805532
0.583006
0.172597
-0.592384
65.1362
61.1687
56.4263
51.4438
46.6272
42.0555
37.7218
33.6434
29.8504
26.3615
23.1808
20.3026
17.7159
15.404
13.343
11.5076
9.88011
8.45162
7.21034
6.12776
5.16117
4.27557
3.46558
2.75372
2.16635
1.70176
1.30387
0.870996
0.308487
-0.521298
67.1469
63.5889
59.3109
54.7696
50.3223
46.0397
41.9159
37.9681
34.2284
30.7214
27.4599
24.448
21.6841
19.1614
16.8677
14.7884
12.9104
11.2233
9.71494
8.36475
7.14482
6.03055
5.01269
4.09777
3.29442
2.59359
1.95343
1.30374
0.576966
-0.330494
68.8337
65.6164
61.7331
57.5792
53.4711
49.4712
45.5721
41.7888
38.1516
34.6872
31.4124
28.3372
25.4662
22.7998
20.3339
18.0614
15.9744
14.0644
12.3216
10.7311
9.2745
7.93413
6.69977
5.56923
4.54113
3.60332
2.72434
1.8561
0.953157
-0.0558494
70.2547
67.3232
63.7757
59.9588
56.1548
52.4186
48.741
45.1336
41.624
38.2381
34.9944
31.9056
28.9804
26.2236
23.6367
21.218
18.9637
16.8688
14.926
13.1255
11.4546
9.90071
8.45401
7.10837
5.85748
4.68858
3.57783
2.49217
1.40189
0.262795
71.4551
68.765
65.5043
61.9794
58.4447
54.9484
51.4799
48.0473
44.6747
41.3862
38.2004
35.131
32.1889
29.3817
26.7142
24.1886
21.8044
19.5596
17.4499
15.469
13.6085
11.8591
10.2124
8.66088
7.1964
5.80681
4.47363
3.17365
1.88686
0.590096
72.4706
69.9855
66.9703
63.6985
60.4007
57.1199
53.844
50.578
47.3425
44.1595
41.0464
38.0172
35.0834
32.2544
29.5369
26.9356
24.4526
22.0882
19.8409
17.707
15.681
13.7564
11.9261
10.1828
8.51806
6.92072
5.376
3.8666
2.37766
0.900625
73.3301
71.0195
68.215
65.1626
62.0726
58.9837
55.8826
52.7715
49.6681
46.5918
43.5585
40.5816
37.6727
34.8417
32.0968
29.4439
26.8871
24.4285
22.0685
19.8056
17.6367
15.557
13.5611
11.6421
9.79224
8.00135
6.25697
4.54501
2.85258
1.18007
74.0571
71.8952
69.272
66.4096
63.5013
60.5821
57.6381
54.669
51.6897
48.717
45.7653
42.8471
39.9734
37.1543
34.3982
31.7122
29.1013
26.5691
24.1175
21.7466
19.4548
17.2392
15.0953
13.0173
10.998
9.02825
7.09685
5.19119
3.29844
1.42347
74.6708
72.6359
70.1685
67.4708
64.7209
61.9512
59.1471
56.3065
53.4415
50.5669
47.6954
44.8382
42.0056
39.2073
36.4518
33.7465
31.0972
28.5082
25.9826
23.5216
21.1249
18.7908
16.5159
14.2952
12.1221
9.98825
7.8831
5.79449
3.70874
1.63218
75.1875
73.2609
70.9274
68.3719
65.7597
63.1209
60.4405
57.7149
54.9539
52.1703
49.3752
46.5785
43.7897
41.0177
38.271
35.5566
32.881
30.2489
27.6639
25.1283
22.6426
20.2059
17.8158
15.468
13.1565
10.8732
8.60819
6.34908
4.08114
1.81032
75.6211
73.7866
71.5677
69.1346
66.6417
64.1167
61.5448
58.9211
56.2534
53.5527
50.8288
48.0902
45.3454
42.6027
39.8699
37.154
34.4614
31.797
29.165
26.568
24.0072
21.4825
18.9919
16.5318
14.0967
11.6789
9.26832
6.85255
4.41584
1.96281
75.9826
74.2261
72.105
69.7768
67.3863
64.9597
62.4821
59.9476
57.3625
54.7362
52.0771
49.3926
46.6903
43.9776
41.2618
38.5496
35.8469
33.159
30.49
27.8429
25.2194
22.6197
20.0423
17.4841
14.9398
12.402
9.86077
7.30323
4.71304
2.09302
76.2831
74.5922
72.5538
70.3146
68.0112
65.6687
63.2721
60.8148
58.3018
55.741
53.1397
50.5045
47.8418
45.1584
42.4608
39.7554
37.0477
34.343
31.6453
28.9578
26.2824
23.6195
20.9681
18.3252
15.6858
13.0427
10.3858
7.70212
4.97489
2.20467
76.5288
74.8922
72.9229
70.7583
68.5282
66.2563
63.9283
61.5367
59.0853
56.581
54.0302
51.4385
48.8115
46.1552
43.4757
40.7787
38.0696
35.3531
32.6335
29.9137
27.1958
24.4805
21.7668
19.052
16.3311
13.5971
10.8398
8.04626
5.19931
2.29732
76.7314
75.139
73.2265
71.1232
68.9533
66.7398
64.4684
62.1313
59.7315
57.2748
54.7668
52.2123
49.6163
46.9843
44.3215
41.6334
38.9249
36.2005
33.4643
30.7193
27.9674
25.2094
22.4444
19.6698
16.8808
14.0702
11.228
8.34098
5.39189
2.37609
76.8878
75.3303
73.4626
71.408
69.2859
67.1188
64.8927
62.5993
60.2408
57.8225
55.3492
52.8253
50.255
47.6432
44.9949
42.315
39.6081
36.8786
34.1301
31.3657
28.5873
25.7956
22.9898
20.1672
17.3232
14.4505
11.539
8.57542
5.54273
2.43396
77.0203
75.4885
73.6548
71.6371
69.5511
67.4192
65.2273
62.9671
60.6402
58.2512
55.8046
53.3041
50.7538
48.1579
45.5211
42.8479
40.1428
37.4098
34.6526
31.8738
29.0756
26.2584
23.4215
20.5623
17.6759
14.7552
11.79
8.76664
5.66803
2.48344
77.1018
75.5861
73.7748
71.7821
69.7206
67.6121
65.4432
63.2052
60.8995
58.5302
56.1015
53.6169
51.08
48.495
45.8662
43.1978
40.4941
37.759
34.9961
32.2079
29.3964
26.5622
23.7045
20.8205
17.9055
14.9521
11.9498
8.88499
5.74026
2.50336
77.1909
75.6764
73.8773
71.8996
69.8518
67.7559
65.5991
63.3728
61.078
58.7189
56.2992
53.8223
51.2919
48.7118
46.0862
43.4193
40.7153
37.9781
35.211
32.4167
29.597
26.7527
23.8828
20.9847
18.0534
15.0816
12.0584
8.96932
5.79435
2.50972
)
;

boundaryField
{
    inlet
    {
        type            zeroGradient;
    }
    outlet
    {
        type            fixedValue;
        value           uniform 0;
    }
    flap
    {
        type            zeroGradient;
    }
    upperWall
    {
        type            zeroGradient;
    }
    lowerWall
    {
        type            zeroGradient;
    }
    frontAndBack
    {
        type            empty;
    }
}


// ************************************************************************* //
