/*--------------------------------*- C++ -*----------------------------------*\
  =========                 |
  \\      /  F ield         | OpenFOAM: The Open Source CFD Toolbox
   \\    /   O peration     | Website:  https://openfoam.org
    \\  /    A nd           | Version:  dev
     \\/     M anipulation  |
\*---------------------------------------------------------------------------*/
FoamFile
{
    version     2.0;
    format      ascii;
    class       volVectorField;
    location    "10";
    object      U;
}
// * * * * * * * * * * * * * * * * * * * * * * * * * * * * * * * * * * * * * //

dimensions      [0 1 -1 0 0 0 0];

internalField   nonuniform List<vector> 
2790
(
(9.94399 0 0.0205236)
(9.87572 0 0.0295886)
(9.7752 0 0.0359909)
(9.64942 0 0.0425581)
(9.50407 0 0.049388)
(9.34004 0 0.0564315)
(9.1565 0 0.0638198)
(8.95257 0 0.0717163)
(8.72739 0 0.0802608)
(8.47999 0 0.0895801)
(8.20916 0 0.0998011)
(7.91352 0 0.111054)
(7.59153 0 0.12347)
(7.2416 0 0.137176)
(6.86212 0 0.152285)
(6.45156 0 0.168884)
(6.00861 0 0.187012)
(5.53239 0 0.206634)
(5.02265 0 0.227605)
(4.48011 0 0.249625)
(3.9068 0 0.272188)
(3.30647 0 0.294534)
(2.68493 0 0.315624)
(2.05028 0 0.334288)
(1.41147 0 0.350601)
(0.79776 0 0.372883)
(0.110328 0 0.32491)
(-0.469579 0 -0.114928)
(-0.453819 0 -0.297095)
(-0.231165 0 -0.423835)
(9.9985 0 0.0407044)
(9.98145 0 0.0623855)
(9.93574 0 0.0791443)
(9.86415 0 0.0966304)
(9.77095 0 0.115131)
(9.65712 0 0.134497)
(9.52201 0 0.154986)
(9.3648 0 0.176956)
(9.18465 0 0.200723)
(8.98058 0 0.226568)
(8.75142 0 0.254765)
(8.49576 0 0.285584)
(8.21205 0 0.319276)
(7.89864 0 0.356052)
(7.55383 0 0.396052)
(7.17596 0 0.439296)
(6.76352 0 0.485627)
(6.31537 0 0.534621)
(5.83094 0 0.585493)
(5.31055 0 0.636981)
(4.7558 0 0.687224)
(4.17005 0 0.733657)
(3.55894 0 0.772952)
(2.93121 0 0.801078)
(2.29963 0 0.81372)
(1.69267 0 0.807214)
(1.10689 0 0.747165)
(0.65873 0 0.547826)
(0.186178 0 0.224454)
(-0.00819634 0 -0.453797)
(9.99559 0 0.0432093)
(9.97556 0 0.0752763)
(9.93179 0 0.103353)
(9.86488 0 0.13238)
(9.77776 0 0.163071)
(9.67152 0 0.195414)
(9.54584 0 0.22976)
(9.40008 0 0.266624)
(9.23358 0 0.306495)
(9.04555 0 0.349836)
(8.83499 0 0.397105)
(8.60069 0 0.44876)
(8.3413 0 0.505235)
(8.05533 0 0.56691)
(7.74118 0 0.634061)
(7.39722 0 0.706783)
(7.02186 0 0.78489)
(6.61368 0 0.867775)
(6.17164 0 0.954241)
(5.69532 0 1.04229)
(5.18529 0 1.12891)
(4.64361 0 1.2098)
(4.07445 0 1.27915)
(3.48504 0 1.3293)
(2.88653 0 1.35004)
(2.29919 0 1.32635)
(1.7316 0 1.22065)
(1.21607 0 0.972863)
(0.701017 0 0.569988)
(0.357961 0 -0.156779)
(9.99403 0 0.0495024)
(9.97181 0 0.0932126)
(9.92787 0 0.133582)
(9.86223 0 0.174222)
(9.77691 0 0.21645)
(9.67295 0 0.260682)
(9.55027 0 0.307455)
(9.40844 0 0.357444)
(9.24696 0 0.411325)
(9.06525 0 0.469745)
(8.86258 0 0.533347)
(8.63807 0 0.602774)
(8.3907 0 0.678649)
(8.11935 0 0.761536)
(7.82281 0 0.851886)
(7.49979 0 0.949944)
(7.149 0 1.05562)
(6.76918 0 1.16831)
(6.3592 0 1.28667)
(5.91828 0 1.40832)
(5.4462 0 1.52951)
(4.94366 0 1.6447)
(4.41282 0 1.74613)
(3.85793 0 1.82318)
(3.2855 0 1.86129)
(2.70612 0 1.84021)
(2.12541 0 1.72584)
(1.55408 0 1.47767)
(0.957835 0 1.08347)
(0.509386 0 0.502091)
(9.99331 0 0.0572176)
(9.96994 0 0.110967)
(9.92592 0 0.162116)
(9.86144 0 0.213364)
(9.77797 0 0.266378)
(9.67632 0 0.32194)
(9.5565 0 0.380733)
(9.41816 0 0.443525)
(9.26091 0 0.5111)
(9.08425 0 0.58422)
(8.8876 0 0.663644)
(8.67027 0 0.750127)
(8.43145 0 0.844405)
(8.1703 0 0.947161)
(7.88589 0 1.05896)
(7.57726 0 1.18016)
(7.24342 0 1.31077)
(6.88334 0 1.45026)
(6.49599 0 1.5973)
(6.08042 0 1.74939)
(5.63582 0 1.90246)
(5.16177 0 2.05034)
(4.65842 0 2.18416)
(4.12686 0 2.29169)
(3.56907 0 2.35646)
(2.98859 0 2.35717)
(2.38658 0 2.26475)
(1.76619 0 2.04739)
(1.08987 0 1.6911)
(0.536599 0 1.15383)
(9.99302 0 0.0655435)
(9.96923 0 0.128711)
(9.92556 0 0.190128)
(9.86252 0 0.251863)
(9.78127 0 0.315604)
(9.68242 0 0.38235)
(9.56597 0 0.452913)
(9.43166 0 0.528146)
(9.27914 0 0.608932)
(9.10798 0 0.696144)
(8.91768 0 0.790647)
(8.70762 0 0.893301)
(8.47714 0 1.00494)
(8.22551 0 1.12635)
(7.95196 0 1.25819)
(7.65567 0 1.40091)
(7.33579 0 1.55465)
(6.99137 0 1.71896)
(6.62139 0 1.89265)
(6.22468 0 2.0733)
(5.79994 0 2.25691)
(5.34568 0 2.43723)
(4.86033 0 2.60518)
(4.34233 0 2.74816)
(3.79004 0 2.84942)
(3.20224 0 2.88801)
(2.57629 0 2.83797)
(1.91324 0 2.67129)
(1.17261 0 2.37362)
(0.549904 0 1.894)
(9.99297 0 0.0740805)
(9.96926 0 0.146325)
(9.92637 0 0.2175)
(9.86507 0 0.289315)
(9.78641 0 0.363385)
(9.69082 0 0.440864)
(9.57831 0 0.522704)
(9.44867 0 0.609863)
(9.30159 0 0.703316)
(9.1367 0 0.804035)
(8.95355 0 0.91298)
(8.75159 0 1.0311)
(8.5302 0 1.15932)
(8.28872 0 1.29851)
(8.0264 0 1.44941)
(7.74248 0 1.6126)
(7.43605 0 1.78831)
(7.10613 0 1.97628)
(6.7515 0 2.17552)
(6.37067 0 2.38392)
(5.96174 0 2.59781)
(5.52225 0 2.81142)
(5.04912 0 3.01614)
(4.5386 0 3.1999)
(3.98626 0 3.34654)
(3.38753 0 3.43574)
(2.73692 0 3.443)
(2.03598 0 3.3411)
(1.24158 0 3.11311)
(0.563438 0 2.69264)
(9.99306 0 0.0825944)
(9.96981 0 0.163619)
(9.92806 0 0.244069)
(9.86884 0 0.325506)
(9.79311 0 0.409479)
(9.70123 0 0.497247)
(9.5932 0 0.589888)
(9.46884 0 0.688455)
(9.3279 0 0.794009)
(9.17007 0 0.907609)
(8.99493 0 1.03031)
(8.802 0 1.16314)
(8.59068 0 1.30712)
(8.36035 0 1.46321)
(8.11027 0 1.63228)
(7.8396 0 1.81501)
(7.54737 0 2.01181)
(7.23239 0 2.22266)
(6.89319 0 2.44687)
(6.52782 0 2.68281)
(6.13371 0 2.92745)
(5.70743 0 3.17583)
(5.24453 0 3.42037)
(4.73932 0 3.65013)
(4.18502 0 3.85008)
(3.57431 0 4.00063)
(2.89911 0 4.07753)
(2.16178 0 4.0519)
(1.31591 0 3.90112)
(0.583122 0 3.53952)
(9.99326 0 0.0909353)
(9.97072 0 0.180423)
(9.93045 0 0.269689)
(9.87361 0 0.36027)
(9.80116 0 0.453684)
(9.71341 0 0.551255)
(9.61035 0 0.654167)
(9.49184 0 0.763561)
(9.3577 0 0.880581)
(9.20767 0 1.00637)
(9.04137 0 1.14206)
(8.85837 0 1.28878)
(8.65815 0 1.44765)
(8.44007 0 1.61973)
(8.2034 0 1.80602)
(7.94725 0 2.00737)
(7.67054 0 2.22442)
(7.37188 0 2.45745)
(7.04947 0 2.70622)
(6.70091 0 2.96972)
(6.32294 0 3.24579)
(5.91119 0 3.53062)
(5.45987 0 3.8181)
(4.96148 0 4.09894)
(4.40686 0 4.35971)
(3.78586 0 4.58182)
(3.08706 0 4.74065)
(2.31228 0 4.80388)
(1.41036 0 4.74037)
(0.614178 0 4.44112)
(9.99352 0 0.0989998)
(9.9719 0 0.196594)
(9.9334 0 0.294218)
(9.87923 0 0.393448)
(9.81039 0 0.495796)
(9.72715 0 0.602638)
(9.6295 0 0.715242)
(9.51738 0 0.834833)
(9.39063 0 0.962628)
(9.24907 0 1.09984)
(9.09238 0 1.2477)
(8.92018 0 1.40742)
(8.73201 0 1.58021)
(8.52728 0 1.76726)
(8.30526 0 1.96973)
(8.06505 0 2.18867)
(7.80549 0 2.42499)
(7.52502 0 2.67937)
(7.22158 0 2.95212)
(6.89238 0 3.24301)
(6.53359 0 3.55096)
(6.13998 0 3.87362)
(5.70449 0 4.20677)
(5.21787 0 4.54336)
(4.66833 0 4.87229)
(4.04219 0 5.17667)
(3.32303 0 5.43182)
(2.50919 0 5.60127)
(1.54147 0 5.6426)
(0.663872 0 5.41701)
(9.99384 0 0.106712)
(9.9733 0 0.212016)
(9.93679 0 0.317527)
(9.88557 0 0.424889)
(9.82062 0 0.535632)
(9.74223 0 0.651174)
(9.65042 0 0.772852)
(9.54514 0 0.901962)
(9.42633 0 1.03979)
(9.29385 0 1.18762)
(9.14745 0 1.34675)
(8.98685 0 1.51849)
(8.81164 0 1.70415)
(8.6213 0 1.90504)
(8.41515 0 2.1225)
(8.19233 0 2.35781)
(7.95165 0 2.61219)
(7.6915 0 2.88678)
(7.40971 0 3.18253)
(7.10324 0 3.5001)
(6.76788 0 3.8397)
(6.39779 0 4.20073)
(5.98493 0 4.58131)
(5.51837 0 4.97736)
(4.98358 0 5.38121)
(4.36241 0 5.77926)
(3.63104 0 6.1486)
(2.77933 0 6.44984)
(1.73287 0 6.62738)
(0.744557 0 6.50175)
(9.9942 0 0.114015)
(9.97487 0 0.226592)
(9.94055 0 0.339499)
(9.89251 0 0.454458)
(9.83172 0 0.573028)
(9.75849 0 0.696665)
(9.67286 0 0.826762)
(9.57485 0 0.964674)
(9.46444 0 1.11175)
(9.34157 0 1.26933)
(9.20609 0 1.43878)
(9.05779 0 1.62148)
(8.89634 0 1.81886)
(8.72135 0 2.03235)
(8.53222 0 2.26345)
(8.32818 0 2.51368)
(8.10812 0 2.7846)
(7.87053 0 3.07784)
(7.61327 0 3.39501)
(7.33332 0 3.73778)
(7.02642 0 4.10774)
(6.68655 0 4.50629)
(6.30517 0 4.93432)
(5.87024 0 5.39157)
(5.3648 0 5.87533)
(4.7658 0 6.378)
(4.03955 0 6.88267)
(3.16034 0 7.35254)
(2.02387 0 7.72176)
(0.880291 0 7.75525)
(9.99459 0 0.120862)
(9.97657 0 0.240242)
(9.94461 0 0.360034)
(9.89995 0 0.482037)
(9.84355 0 0.607843)
(9.77574 0 0.738941)
(9.6966 0 0.876769)
(9.60621 0 1.02273)
(9.5046 0 1.17822)
(9.39181 0 1.34463)
(9.26776 0 1.52339)
(9.13235 0 1.71594)
(8.98539 0 1.92379)
(8.82658 0 2.1485)
(8.65549 0 2.39172)
(8.4715 0 2.65519)
(8.27371 0 2.94082)
(8.06081 0 3.25066)
(7.83093 0 3.58703)
(7.58137 0 3.95254)
(7.30827 0 4.35021)
(7.006 0 4.78352)
(6.66642 0 5.25643)
(6.2775 0 5.7732)
(5.82128 0 6.3378)
(5.2711 0 6.95228)
(4.58296 0 7.61313)
(3.70833 0 8.29985)
(2.48678 0 8.95638)
(1.1237 0 9.29057)
(9.99501 0 0.12722)
(9.97838 0 0.252903)
(9.94891 0 0.379049)
(9.90779 0 0.507525)
(9.85598 0 0.639957)
(9.79381 0 0.777863)
(9.72141 0 0.922712)
(9.63892 0 1.07595)
(9.54645 0 1.239)
(9.44409 0 1.4133)
(9.33191 0 1.6003)
(9.20989 0 1.80153)
(9.07798 0 2.01853)
(8.93605 0 2.25297)
(8.78386 0 2.50664)
(8.62101 0 2.78146)
(8.44689 0 3.07961)
(8.26056 0 3.40355)
(8.06063 0 3.75617)
(7.84504 0 4.14094)
(7.61078 0 4.56214)
(7.3534 0 5.02519)
(7.06628 0 5.53701)
(6.73931 0 6.10659)
(6.35653 0 6.74558)
(5.89234 0 7.46904)
(5.29868 0 8.29602)
(4.50645 0 9.24694)
(3.26645 0 10.3396)
(1.60352 0 11.355)
(9.99545 0 0.13306)
(9.98026 0 0.264523)
(9.95339 0 0.396471)
(9.91595 0 0.530828)
(9.86888 0 0.669249)
(9.81252 0 0.813275)
(9.74707 0 0.964398)
(9.6727 0 1.12409)
(9.58961 0 1.29379)
(9.49799 0 1.47497)
(9.39799 0 1.66911)
(9.28973 0 1.87775)
(9.17331 0 2.1025)
(9.04878 0 2.34508)
(8.91614 0 2.60736)
(8.77525 0 2.89143)
(8.62589 0 3.19963)
(8.4676 0 3.53472)
(8.29965 0 3.9)
(8.12089 0 4.29958)
(7.92962 0 4.73866)
(7.72327 0 5.22409)
(7.49799 0 5.76508)
(7.24786 0 6.37443)
(6.96338 0 7.07057)
(6.62897 0 7.88127)
(6.21181 0 8.85186)
(5.66244 0 10.0651)
(4.68604 0 11.7286)
(2.6843 0 14.5846)
(0.122322 0 -0.121058)
(0.286417 0 -0.109787)
(0.453419 0 -0.0857826)
(0.591725 0 -0.0625457)
(0.695628 0 -0.0427709)
(0.768836 0 -0.0263965)
(0.816175 0 -0.0128486)
(0.841445 0 -0.00163712)
(0.847606 0 0.00729184)
(0.837591 0 0.0134164)
(0.813934 0 0.01768)
(0.779627 0 0.0205223)
(0.737458 0 0.02207)
(0.690111 0 0.0223954)
(0.640284 0 0.0216082)
(0.590586 0 0.0198728)
(0.543359 0 0.0174162)
(0.500485 0 0.0145446)
(0.463231 0 0.0116073)
(0.432133 0 0.0089293)
(0.40698 0 0.00673712)
(0.386953 0 0.00510898)
(0.370935 0 0.00398022)
(0.357873 0 0.00320404)
(0.346996 0 0.00263571)
(0.337838 0 0.0021907)
(0.330097 0 0.00184219)
(0.323498 0 0.00158918)
(0.317739 0 0.00140677)
(0.311797 0 0.00111804)
(0.106226 0 -0.285302)
(0.267928 0 -0.2665)
(0.425598 0 -0.215178)
(0.559386 0 -0.164214)
(0.665313 0 -0.120442)
(0.746961 0 -0.0838695)
(0.808523 0 -0.0532581)
(0.853116 0 -0.0274309)
(0.882902 0 -0.00554368)
(0.898541 0 0.0123851)
(0.899917 0 0.0264214)
(0.88955 0 0.0368631)
(0.870043 0 0.0438567)
(0.844113 0 0.0475615)
(0.814505 0 0.0482557)
(0.783852 0 0.0463537)
(0.754503 0 0.0423989)
(0.728338 0 0.0370431)
(0.706593 0 0.0310167)
(0.689756 0 0.025054)
(0.677566 0 0.0197623)
(0.66921 0 0.0154852)
(0.663665 0 0.0122487)
(0.660041 0 0.00984524)
(0.657755 0 0.0080052)
(0.656474 0 0.00654299)
(0.655969 0 0.00538021)
(0.655991 0 0.00450106)
(0.656199 0 0.00387952)
(0.656206 0 0.0033623)
(0.0858092 0 -0.453516)
(0.227759 0 -0.423104)
(0.356204 0 -0.344359)
(0.465089 0 -0.266977)
(0.551463 0 -0.200966)
(0.619053 0 -0.14599)
(0.671173 0 -0.100179)
(0.710239 0 -0.0617719)
(0.737985 0 -0.0291969)
(0.757354 0 -0.000933656)
(0.767276 0 0.0224535)
(0.768249 0 0.0404379)
(0.762341 0 0.0528969)
(0.751609 0 0.0599874)
(0.738143 0 0.0621558)
(0.723926 0 0.0600824)
(0.710685 0 0.0546464)
(0.699758 0 0.0468911)
(0.691986 0 0.0379992)
(0.687607 0 0.0291846)
(0.686241 0 0.0214657)
(0.687066 0 0.0154092)
(0.689145 0 0.0110303)
(0.691749 0 0.00795244)
(0.694483 0 0.00571942)
(0.697188 0 0.00404157)
(0.699763 0 0.00281945)
(0.70205 0 0.00204198)
(0.703789 0 0.00172403)
(0.704497 0 0.00199562)
(0.0660205 0 -0.589812)
(0.182555 0 -0.542788)
(0.275077 0 -0.439137)
(0.354396 0 -0.340808)
(0.416304 0 -0.258273)
(0.465358 0 -0.189821)
(0.503732 0 -0.132805)
(0.532862 0 -0.0849476)
(0.553891 0 -0.0445556)
(0.567722 0 -0.0102607)
(0.577181 0 0.0184638)
(0.579903 0 0.0409527)
(0.578062 0 0.0565454)
(0.573588 0 0.0653495)
(0.568153 0 0.0680014)
(0.563085 0 0.0654086)
(0.559371 0 0.0586972)
(0.557644 0 0.0492292)
(0.558145 0 0.0385587)
(0.560644 0 0.0282796)
(0.564418 0 0.0196744)
(0.568425 0 0.0133345)
(0.571667 0 0.0091052)
(0.573517 0 0.00635964)
(0.573824 0 0.0044748)
(0.572738 0 0.00311442)
(0.570427 0 0.00223433)
(0.566995 0 0.0018652)
(0.562545 0 0.00200867)
(0.556227 0 0.00288368)
(0.0455564 0 -0.696043)
(0.13154 0 -0.62775)
(0.182738 0 -0.502518)
(0.230374 0 -0.389751)
(0.264692 0 -0.296813)
(0.292424 0 -0.22004)
(0.314227 0 -0.156124)
(0.330781 0 -0.102376)
(0.342681 0 -0.0568645)
(0.350139 0 -0.0185697)
(0.355497 0 0.0138459)
(0.355714 0 0.0396651)
(0.353182 0 0.0572858)
(0.350338 0 0.0668877)
(0.348532 0 0.0693725)
(0.348242 0 0.0659688)
(0.349468 0 0.0581209)
(0.351862 0 0.0474653)
(0.354785 0 0.0357719)
(0.357321 0 0.0248721)
(0.358293 0 0.0162794)
(0.356552 0 0.0106568)
(0.35135 0 0.00774103)
(0.34267 0 0.00658324)
(0.331209 0 0.00623689)
(0.317997 0 0.00616458)
(0.303822 0 0.00624948)
(0.289093 0 0.00655284)
(0.2742 0 0.0072252)
(0.257417 0 0.00771277)
(0.023912 0 -0.767326)
(0.0742193 0 -0.673999)
(0.080065 0 -0.530717)
(0.0945435 0 -0.409779)
(0.09829 0 -0.311442)
(0.101659 0 -0.230701)
(0.10341 0 -0.163709)
(0.104143 0 -0.107518)
(0.104123 0 -0.0599859)
(0.103657 0 -0.0202553)
(0.0992781 0 0.0145835)
(0.0952355 0 0.0436112)
(0.0911883 0 0.0612996)
(0.0894471 0 0.0693367)
(0.0895443 0 0.0698476)
(0.0902527 0 0.0647857)
(0.0899853 0 0.0560052)
(0.0868283 0 0.0453683)
(0.0789727 0 0.0348388)
(0.0657821 0 0.0263003)
(0.048058 0 0.0208923)
(0.0277397 0 0.0186042)
(0.00650408 0 0.0182959)
(-0.0136825 0 0.0182687)
(-0.0324184 0 0.0178416)
(-0.0499121 0 0.0171643)
(-0.0661231 0 0.0166645)
(-0.0814471 0 0.0166754)
(-0.0967186 0 0.0165002)
(-0.111552 0 0.0141083)
(-0.000231973 0 -0.797615)
(0.00924202 0 -0.67688)
(-0.0316948 0 -0.519968)
(-0.0535375 0 -0.397031)
(-0.0829107 0 -0.298125)
(-0.10791 0 -0.218219)
(-0.130516 0 -0.152708)
(-0.150027 0 -0.0983813)
(-0.166306 0 -0.0519401)
(-0.18093 0 -0.0105759)
(-0.200848 0 0.0243727)
(-0.205005 0 0.0481785)
(-0.210428 0 0.0624436)
(-0.214654 0 0.0688197)
(-0.219873 0 0.069342)
(-0.227623 0 0.0658477)
(-0.238945 0 0.059974)
(-0.254071 0 0.0532015)
(-0.272509 0 0.0467294)
(-0.293281 0 0.041263)
(-0.315035 0 0.0370167)
(-0.336543 0 0.0338801)
(-0.357034 0 0.0314705)
(-0.375715 0 0.0292896)
(-0.392293 0 0.0271032)
(-0.40656 0 0.0250772)
(-0.418704 0 0.0235177)
(-0.429299 0 0.022454)
(-0.438996 0 0.0211678)
(-0.446422 0 0.0190744)
(-0.0296559 0 -0.779341)
(-0.0660972 0 -0.631049)
(-0.151289 0 -0.472553)
(-0.2153 0 -0.351924)
(-0.279761 0 -0.257527)
(-0.336595 0 -0.182942)
(-0.386441 0 -0.122414)
(-0.429401 0 -0.0721876)
(-0.465959 0 -0.0292814)
(-0.49824 0 0.00697009)
(-0.515021 0 0.0341422)
(-0.526967 0 0.0536474)
(-0.536549 0 0.0668304)
(-0.545377 0 0.0738694)
(-0.555182 0 0.0761032)
(-0.566938 0 0.0747489)
(-0.580921 0 0.0708382)
(-0.596848 0 0.0653874)
(-0.614209 0 0.0594232)
(-0.632508 0 0.0538241)
(-0.651212 0 0.0491239)
(-0.669694 0 0.045292)
(-0.687259 0 0.0418347)
(-0.703133 0 0.0382748)
(-0.716712 0 0.0345476)
(-0.727757 0 0.0310484)
(-0.736557 0 0.028281)
(-0.743862 0 0.0263139)
(-0.750237 0 0.0245799)
(-0.754328 0 0.0229097)
(-0.0657417 0 -0.70911)
(-0.149254 0 -0.539097)
(-0.282914 0 -0.3834)
(-0.391497 0 -0.270366)
(-0.492592 0 -0.186522)
(-0.579696 0 -0.122954)
(-0.653033 0 -0.0723575)
(-0.713764 0 -0.0309271)
(-0.764086 0 0.00263584)
(-0.797412 0 0.028251)
(-0.819716 0 0.0482216)
(-0.836641 0 0.0639304)
(-0.849441 0 0.0750287)
(-0.860219 0 0.0815672)
(-0.87066 0 0.0841957)
(-0.881837 0 0.0835801)
(-0.894156 0 0.0803691)
(-0.907536 0 0.0753877)
(-0.921735 0 0.0696567)
(-0.936594 0 0.0641203)
(-0.951978 0 0.0592866)
(-0.967569 0 0.0550172)
(-0.982718 0 0.0507144)
(-0.996505 0 0.0458887)
(-1.00807 0 0.0406436)
(-1.01703 0 0.0356745)
(-1.02373 0 0.0317374)
(-1.02906 0 0.0290117)
(-1.03357 0 0.0270771)
(-1.03615 0 0.025834)
(-0.111443 0 -0.580496)
(-0.247571 0 -0.396206)
(-0.43606 0 -0.252297)
(-0.587908 0 -0.156568)
(-0.721634 0 -0.0894208)
(-0.833283 0 -0.0420137)
(-0.923797 0 -0.00771561)
(-0.989968 0 0.0168967)
(-1.03615 0 0.0357032)
(-1.07069 0 0.0513659)
(-1.09696 0 0.0649419)
(-1.11651 0 0.0760653)
(-1.13099 0 0.084121)
(-1.1423 0 0.0891159)
(-1.15228 0 0.0913417)
(-1.16226 0 0.0909715)
(-1.17285 0 0.0881743)
(-1.18403 0 0.0834938)
(-1.19563 0 0.0779339)
(-1.20772 0 0.0725425)
(-1.2205 0 0.0678216)
(-1.23396 0 0.0634541)
(-1.24752 0 0.0586111)
(-1.26007 0 0.0526865)
(-1.27039 0 0.0459313)
(-1.27791 0 0.0394302)
(-1.28305 0 0.0343238)
(-1.2869 0 0.0309633)
(-1.29009 0 0.0289632)
(-1.29179 0 0.0280468)
(-0.177205 0 -0.388487)
(-0.381918 0 -0.205889)
(-0.644368 0 -0.0711143)
(-0.837279 0 -0.001574)
(-0.983169 0 0.0306701)
(-1.09159 0 0.04645)
(-1.17108 0 0.0551084)
(-1.23289 0 0.0621115)
(-1.28054 0 0.068982)
(-1.31717 0 0.0762038)
(-1.34501 0 0.0832926)
(-1.36573 0 0.0893253)
(-1.38083 0 0.0936873)
(-1.39204 0 0.0964678)
(-1.40139 0 0.0978402)
(-1.41049 0 0.0974864)
(-1.42002 0 0.0949327)
(-1.42977 0 0.0903372)
(-1.43947 0 0.0847479)
(-1.44935 0 0.0794647)
(-1.46005 0 0.0750632)
(-1.47197 0 0.070966)
(-1.48464 0 0.0659187)
(-1.49662 0 0.0590319)
(-1.5062 0 0.0506774)
(-1.51254 0 0.0424723)
(-1.51621 0 0.036148)
(-1.51865 0 0.0322831)
(-1.5207 0 0.0303344)
(-1.52179 0 0.0296613)
(-0.296808 0 -0.0886527)
(-0.586707 0 0.116338)
(-0.862653 0 0.156437)
(-1.05603 0 0.154726)
(-1.2018 0 0.141622)
(-1.31093 0 0.127027)
(-1.39331 0 0.115675)
(-1.45603 0 0.107944)
(-1.50364 0 0.103229)
(-1.53974 0 0.10157)
(-1.56721 0 0.102074)
(-1.58781 0 0.102997)
(-1.60259 0 0.10334)
(-1.613 0 0.103478)
(-1.62137 0 0.103809)
(-1.62973 0 0.103504)
(-1.63872 0 0.101167)
(-1.64768 0 0.096404)
(-1.6559 0 0.0904439)
(-1.66379 0 0.0851254)
(-1.6726 0 0.0812475)
(-1.68337 0 0.0778527)
(-1.69572 0 0.0729847)
(-1.70774 0 0.0652352)
(-1.717 0 0.0550554)
(-1.72222 0 0.044812)
(-1.72423 0 0.0371462)
(-1.72508 0 0.032944)
(-1.72603 0 0.0312186)
(-1.72663 0 0.0307484)
(-0.398017 0 0.409291)
(-0.733744 0 0.450429)
(-1.05841 0 0.386683)
(-1.2723 0 0.317093)
(-1.42276 0 0.257943)
(-1.52928 0 0.20954)
(-1.60667 0 0.175113)
(-1.66481 0 0.151889)
(-1.70845 0 0.135573)
(-1.74101 0 0.125344)
(-1.76606 0 0.119965)
(-1.78539 0 0.116262)
(-1.79903 0 0.112347)
(-1.80773 0 0.109389)
(-1.81434 0 0.108712)
(-1.82179 0 0.108918)
(-1.83067 0 0.107087)
(-1.83936 0 0.101932)
(-1.84632 0 0.0950943)
(-1.85206 0 0.0894852)
(-1.85883 0 0.0864075)
(-1.8686 0 0.0843242)
(-1.88119 0 0.0801518)
(-1.89396 0 0.0716272)
(-1.90334 0 0.059221)
(-1.90735 0 0.0463656)
(-1.90724 0 0.0371187)
(-1.90614 0 0.0328311)
(-1.90596 0 0.0316429)
(-1.90619 0 0.031383)
(-0.525725 0 0.936246)
(-0.958743 0 0.862178)
(-1.32621 0 0.652383)
(-1.52903 0 0.482203)
(-1.66173 0 0.368101)
(-1.75116 0 0.280903)
(-1.81243 0 0.225767)
(-1.85937 0 0.19231)
(-1.89534 0 0.166035)
(-1.92138 0 0.146786)
(-1.94195 0 0.136045)
(-1.95929 0 0.128522)
(-1.9713 0 0.120202)
(-1.97706 0 0.113685)
(-1.9805 0 0.11242)
(-1.98651 0 0.114315)
(-1.9958 0 0.113699)
(-2.00493 0 0.10776)
(-2.01071 0 0.0990278)
(-2.01371 0 0.0924992)
(-2.01783 0 0.0905087)
(-2.02659 0 0.0905834)
(-2.04005 0 0.0878182)
(-2.05445 0 0.0786094)
(-2.06448 0 0.0633419)
(-2.06706 0 0.0469476)
(-2.06403 0 0.0356949)
(-2.06033 0 0.0317359)
(-2.05898 0 0.0316756)
(-2.05899 0 0.0317069)
(-0.769964 0 2.00719)
(-1.31147 0 1.56)
(-1.70818 0 0.954206)
(-1.84613 0 0.566133)
(-1.92311 0 0.434058)
(-1.97591 0 0.330952)
(-2.00435 0 0.267521)
(-2.03461 0 0.229115)
(-2.06336 0 0.187636)
(-2.08072 0 0.154998)
(-2.0937 0 0.143229)
(-2.1082 0 0.137945)
(-2.11845 0 0.127339)
(-2.11965 0 0.116209)
(-2.1176 0 0.11367)
(-2.12138 0 0.118579)
(-2.13212 0 0.120098)
(-2.14296 0 0.112752)
(-2.14755 0 0.100634)
(-2.14654 0 0.0924259)
(-2.14664 0 0.0923453)
(-2.15402 0 0.0962756)
(-2.16908 0 0.0962464)
(-2.1863 0 0.0866409)
(-2.1977 0 0.0676369)
(-2.1984 0 0.0462598)
(-2.19109 0 0.0322557)
(-2.18371 0 0.0293068)
(-2.18116 0 0.0314715)
(-2.18126 0 0.0320532)
(9.9959 0 0.138455)
(9.98225 0 0.275257)
(9.9581 0 0.412554)
(9.92453 0 0.552312)
(9.88242 0 0.696211)
(9.83216 0 0.845803)
(9.77398 0 1.00259)
(9.70814 0 1.16806)
(9.63491 0 1.34367)
(9.55456 0 1.53088)
(9.46737 0 1.73118)
(9.3736 0 1.94613)
(9.27351 0 2.17736)
(9.16736 0 2.4266)
(9.0554 0 2.69577)
(8.93785 0 2.98701)
(8.8149 0 3.30277)
(8.68667 0 3.64594)
(8.55324 0 4.02003)
(8.4146 0 4.42943)
(8.27068 0 4.87977)
(8.12134 0 5.37852)
(7.96652 0 5.93585)
(7.80645 0 6.56609)
(7.64231 0 7.29033)
(7.479 0 8.14111)
(7.32963 0 9.17235)
(7.2839 0 10.4775)
(7.73821 0 12.201)
(7.91267 0 14.9172)
(9.99638 0 0.143415)
(9.98434 0 0.285112)
(9.96305 0 0.427282)
(9.93351 0 0.571923)
(9.89656 0 0.720726)
(9.85262 0 0.875252)
(9.80196 0 1.03701)
(9.74492 0 1.20747)
(9.68183 0 1.38809)
(9.61308 0 1.58033)
(9.53905 0 1.78567)
(9.46016 0 2.00564)
(9.37685 0 2.24185)
(9.28959 0 2.49603)
(9.19891 0 2.77007)
(9.10537 0 3.06607)
(9.00964 0 3.38647)
(8.91246 0 3.73412)
(8.81473 0 4.11247)
(8.71764 0 4.52579)
(8.62278 0 4.97949)
(8.53251 0 5.48061)
(8.45053 0 6.03847)
(8.38306 0 6.66568)
(8.34125 0 7.37946)
(8.34707 0 8.20324)
(8.43924 0 9.16723)
(8.67348 0 10.3048)
(9.31819 0 11.5611)
(9.80475 0 12.6537)
(9.99688 0 0.147852)
(9.98651 0 0.293924)
(9.96819 0 0.440432)
(9.94283 0 0.589392)
(9.91121 0 0.742499)
(9.87377 0 0.901306)
(9.83085 0 1.06731)
(9.78283 0 1.24196)
(9.73013 0 1.42671)
(9.67322 0 1.62297)
(9.61262 0 1.83219)
(9.54887 0 2.05585)
(9.4826 0 2.29552)
(9.4145 0 2.55284)
(9.34536 0 2.82962)
(9.27612 0 3.12786)
(9.20786 0 3.44984)
(9.14192 0 3.79819)
(9.07999 0 4.17604)
(9.02428 0 4.58715)
(8.97779 0 5.03612)
(8.9448 0 5.52864)
(8.93159 0 6.0717)
(8.94765 0 6.67372)
(9.00746 0 7.34417)
(9.13313 0 8.09174)
(9.35563 0 8.91844)
(9.6845 0 9.81335)
(10.2498 0 10.7254)
(10.937 0 11.4457)
(9.9974 0 0.151714)
(9.98874 0 0.301585)
(9.97347 0 0.451839)
(9.95239 0 0.604491)
(9.92623 0 0.76123)
(9.89544 0 0.92359)
(9.86042 0 1.09304)
(9.82157 0 1.27102)
(9.77942 0 1.45891)
(9.73452 0 1.6581)
(9.68747 0 1.86996)
(9.63898 0 2.0959)
(9.58983 0 2.3374)
(9.54091 0 2.59598)
(9.49327 0 2.8733)
(9.44815 0 3.17118)
(9.40703 0 3.4916)
(9.37174 0 3.83684)
(9.34457 0 4.20949)
(9.32849 0 4.61252)
(9.32743 0 5.04934)
(9.34668 0 5.52379)
(9.39349 0 6.04003)
(9.47776 0 6.60204)
(9.61268 0 7.21263)
(9.81512 0 7.87152)
(10.1079 0 8.5717)
(10.4996 0 9.29862)
(11.0575 0 10.0422)
(11.8512 0 10.6893)
(9.99792 0 0.154953)
(9.99101 0 0.308004)
(9.97884 0 0.461365)
(9.96212 0 0.617041)
(9.9415 0 0.776698)
(9.91746 0 0.941843)
(9.8904 0 1.11391)
(9.86082 0 1.29428)
(9.82928 0 1.4843)
(9.79641 0 1.68527)
(9.76293 0 1.89849)
(9.72964 0 2.12526)
(9.69747 0 2.36692)
(9.6675 0 2.62486)
(9.64096 0 2.90051)
(9.61936 0 3.19542)
(9.60447 0 3.51125)
(9.59846 0 3.84976)
(9.60404 0 4.2129)
(9.62458 0 4.60269)
(9.6644 0 5.02127)
(9.72903 0 5.47065)
(9.82555 0 5.95245)
(9.96293 0 6.4674)
(10.1522 0 7.01444)
(10.4065 0 7.58972)
(10.7432 0 8.18516)
(11.174 0 8.7861)
(11.7219 0 9.38098)
(12.4761 0 9.89485)
(9.99845 0 0.157526)
(9.9933 0 0.313094)
(9.98427 0 0.468886)
(9.97194 0 0.626877)
(9.9569 0 0.788702)
(9.93962 0 0.955826)
(9.92055 0 1.12964)
(9.90022 0 1.31145)
(9.87925 0 1.50254)
(9.85834 0 1.70413)
(9.83826 0 1.9174)
(9.81994 0 2.14355)
(9.8044 0 2.38373)
(9.79286 0 2.63914)
(9.78671 0 2.91099)
(9.7876 0 3.20049)
(9.79752 0 3.5089)
(9.81882 0 3.83746)
(9.85437 0 4.18739)
(9.90766 0 4.55983)
(9.98297 0 4.95569)
(10.0855 0 5.37544)
(10.2217 0 5.81883)
(10.399 0 6.28441)
(10.6263 0 6.76896)
(10.9133 0 7.2667)
(11.2713 0 7.76843)
(11.7083 0 8.25859)
(12.2251 0 8.72049)
(12.9022 0 9.11255)
(9.99898 0 0.159395)
(9.9956 0 0.316779)
(9.98971 0 0.474287)
(9.98176 0 0.633851)
(9.97229 0 0.79706)
(9.96174 0 0.965328)
(9.9506 0 1.13998)
(9.93943 0 1.32226)
(9.92888 0 1.51336)
(9.9197 0 1.71439)
(9.91273 0 1.92643)
(9.90895 0 2.1505)
(9.90948 0 2.38761)
(9.9156 0 2.63872)
(9.92879 0 2.90476)
(9.95082 0 3.18662)
(9.9837 0 3.48513)
(10.0299 0 3.80101)
(10.0921 0 4.13482)
(10.1738 0 4.48687)
(10.279 0 4.85705)
(10.4121 0 5.24468)
(10.5786 0 5.64818)
(10.7843 0 6.06475)
(11.0357 0 6.48991)
(11.3393 0 6.91698)
(11.7012 0 7.33659)
(12.1256 0 7.73533)
(12.6063 0 8.09859)
(13.213 0 8.40579)
(9.99951 0 0.160526)
(9.99789 0 0.318992)
(9.9951 0 0.477472)
(9.99151 0 0.637838)
(9.98753 0 0.801622)
(9.98362 0 0.970177)
(9.98028 0 1.14475)
(9.97808 0 1.32652)
(9.9777 0 1.51656)
(9.97991 0 1.71587)
(9.9856 0 1.9254)
(9.99577 0 2.14602)
(10.0116 0 2.37853)
(10.0344 0 2.62368)
(10.0656 0 2.88212)
(10.1071 0 3.1544)
(10.1608 0 3.44095)
(10.2291 0 3.74199)
(10.3145 0 4.05752)
(10.4202 0 4.38716)
(10.5495 0 4.73005)
(10.7063 0 5.08468)
(10.8948 0 5.44865)
(11.1192 0 5.81845)
(11.3839 0 6.18918)
(11.6927 0 6.55427)
(12.0484 0 6.90543)
(12.4527 0 7.23233)
(12.8977 0 7.52379)
(13.4418 0 7.76844)
(10 0 0.16089)
(10.0001 0 0.319679)
(10.0004 0 0.47836)
(10.0011 0 0.638736)
(10.0025 0 0.80227)
(10.0051 0 0.970244)
(10.0093 0 1.14383)
(10.0158 0 1.32409)
(10.0252 0 1.51202)
(10.0384 0 1.70849)
(10.0561 0 1.9143)
(10.0795 0 2.13016)
(10.1097 0 2.35668)
(10.1479 0 2.59438)
(10.1958 0 2.84364)
(10.2548 0 3.10471)
(10.327 0 3.37765)
(10.4145 0 3.66227)
(10.5195 0 3.9581)
(10.6448 0 4.26424)
(10.7931 0 4.57932)
(10.9674 0 4.90132)
(11.1708 0 5.22745)
(11.4063 0 5.55398)
(11.6763 0 5.87618)
(11.9828 0 6.18818)
(12.3267 0 6.48309)
(12.7077 0 6.75306)
(13.1181 0 6.98972)
(13.6068 0 7.18618)
(10.0005 0 0.160466)
(10.0023 0 0.318796)
(10.0056 0 0.476892)
(10.0104 0 0.636471)
(10.0171 0 0.798922)
(10.0259 0 0.965443)
(10.0375 0 1.13712)
(10.0523 0 1.31492)
(10.0711 0 1.49971)
(10.0946 0 1.69225)
(10.1237 0 1.89321)
(10.1594 0 2.10311)
(10.2029 0 2.32238)
(10.2552 0 2.55134)
(10.318 0 2.79012)
(10.3926 0 3.03869)
(10.4808 0 3.2968)
(10.5845 0 3.56395)
(10.7057 0 3.8393)
(10.8465 0 4.12162)
(11.0091 0 4.40923)
(11.1956 0 4.69986)
(11.4083 0 4.99064)
(11.6488 0 5.27798)
(11.9185 0 5.55758)
(12.2179 0 5.82445)
(12.5467 0 6.07305)
(12.9036 0 6.29747)
(13.2814 0 6.49164)
(13.7221 0 6.65136)
(10.001 0 0.15924)
(10.0044 0 0.316317)
(10.0106 0 0.473028)
(10.0194 0 0.630998)
(10.0311 0 0.79153)
(10.0459 0 0.955736)
(10.0645 0 1.1246)
(10.0872 0 1.299)
(10.1148 0 1.47969)
(10.1481 0 1.6673)
(10.1877 0 1.86234)
(10.2348 0 2.0652)
(10.2903 0 2.27614)
(10.3553 0 2.49527)
(10.4313 0 2.72251)
(10.5194 0 2.95762)
(10.6213 0 3.20009)
(10.7384 0 3.4492)
(10.8724 0 3.70385)
(11.025 0 3.96264)
(11.1978 0 4.22372)
(11.3922 0 4.48482)
(11.6095 0 4.74314)
(11.8507 0 4.99544)
(12.1161 0 5.23799)
(12.4055 0 5.46669)
(12.7177 0 5.67718)
(13.051 0 5.8651)
(13.3991 0 6.0262)
(13.7985 0 6.15794)
(10.0015 0 0.157203)
(10.0065 0 0.312225)
(10.0154 0 0.46675)
(10.028 0 0.622301)
(10.0445 0 0.780088)
(10.065 0 0.941132)
(10.0901 0 1.10633)
(10.1203 0 1.27643)
(10.1561 0 1.4521)
(10.1983 0 1.63384)
(10.2477 0 1.82202)
(10.305 0 2.0169)
(10.3713 0 2.21858)
(10.4476 0 2.427)
(10.5349 0 2.64192)
(10.6346 0 2.86291)
(10.7477 0 3.0893)
(10.8756 0 3.32019)
(11.0195 0 3.55437)
(11.1806 0 3.79035)
(11.3601 0 4.02627)
(11.5587 0 4.25996)
(11.7772 0 4.48886)
(12.0159 0 4.71013)
(12.2744 0 4.92065)
(12.5521 0 5.11712)
(12.8475 0 5.29623)
(13.1584 0 5.45479)
(13.4797 0 5.58987)
(13.8436 0 5.69998)
(10.0019 0 0.154355)
(10.0084 0 0.306521)
(10.0199 0 0.458062)
(10.0362 0 0.610391)
(10.0571 0 0.764624)
(10.083 0 0.921687)
(10.1142 0 1.08237)
(10.1513 0 1.24735)
(10.1947 0 1.41715)
(10.2451 0 1.59217)
(10.3031 0 1.77267)
(10.3697 0 1.95876)
(10.4454 0 2.15043)
(10.5314 0 2.34747)
(10.6285 0 2.54952)
(10.7376 0 2.75601)
(10.8599 0 2.96618)
(10.9961 0 3.17902)
(11.1472 0 3.39328)
(11.3141 0 3.60748)
(11.4973 0 3.81985)
(11.6974 0 4.02839)
(11.9145 0 4.23085)
(12.1484 0 4.4248)
(12.3984 0 4.60771)
(12.6636 0 4.77698)
(12.9424 0 4.93013)
(13.2326 0 5.06487)
(13.5299 0 5.17921)
(13.8634 0 5.2723)
(10.0024 0 0.1507)
(10.0102 0 0.299217)
(10.0241 0 0.446987)
(10.0438 0 0.59531)
(10.0689 0 0.745203)
(10.0998 0 0.897499)
(10.1366 0 1.05289)
(10.18 0 1.21196)
(10.2303 0 1.37512)
(10.288 0 1.54266)
(10.3538 0 1.71476)
(10.4284 0 1.89141)
(10.5124 0 2.07248)
(10.6066 0 2.25767)
(10.7118 0 2.44652)
(10.8286 0 2.63839)
(10.9579 0 2.83244)
(11.1002 0 3.02764)
(11.2563 0 3.22278)
(11.4265 0 3.41643)
(11.6113 0 3.60696)
(11.8106 0 3.7926)
(12.0243 0 3.97142)
(12.2519 0 4.14141)
(12.4926 0 4.30053)
(12.7451 0 4.44678)
(13.008 0 4.57833)
(13.2793 0 4.69355)
(13.5552 0 4.79112)
(13.8622 0 4.87061)
(10.0027 0 0.146253)
(10.0119 0 0.29034)
(10.0281 0 0.433569)
(10.0508 0 0.577123)
(10.0798 0 0.721922)
(10.1152 0 0.868705)
(10.1572 0 1.01807)
(10.2063 0 1.17051)
(10.2627 0 1.32633)
(10.327 0 1.48576)
(10.3996 0 1.64885)
(10.4811 0 1.81553)
(10.5721 0 1.98558)
(10.6732 0 2.15862)
(10.7848 0 2.33413)
(10.9076 0 2.51143)
(11.0421 0 2.68968)
(11.1887 0 2.86786)
(11.3478 0 3.04481)
(11.5195 0 3.21923)
(11.7039 0 3.38966)
(11.9007 0 3.55456)
(12.1097 0 3.71232)
(12.3301 0 3.8613)
(12.561 0 3.9999)
(12.8011 0 4.12659)
(13.049 0 4.24003)
(13.303 0 4.33911)
(13.5598 0 4.42294)
(13.8437 0 4.49136)
(10.0031 0 0.141031)
(10.0134 0 0.279928)
(10.0317 0 0.417869)
(10.0573 0 0.555921)
(10.0898 0 0.694908)
(10.1293 0 0.835477)
(10.176 0 0.978143)
(10.2301 0 1.12329)
(10.2919 0 1.27118)
(10.3619 0 1.42194)
(10.4404 0 1.57554)
(10.5278 0 1.73184)
(10.6246 0 1.89057)
(10.7311 0 2.05131)
(10.8478 0 2.21351)
(10.9751 0 2.37647)
(11.1133 0 2.53937)
(11.2625 0 2.70126)
(11.4229 0 2.86106)
(11.5945 0 3.0176)
(11.7771 0 3.16962)
(11.9704 0 3.3158)
(12.1737 0 3.45483)
(12.3863 0 3.58538)
(12.6073 0 3.70621)
(12.8355 0 3.81618)
(13.0694 0 3.91433)
(13.3076 0 3.99989)
(13.5475 0 4.07231)
(13.8113 0 4.13159)
(10.0034 0 0.135058)
(10.0148 0 0.268029)
(10.035 0 0.399963)
(10.0632 0 0.531815)
(10.0989 0 0.664312)
(10.142 0 0.798015)
(10.1928 0 0.933359)
(10.2513 0 1.07065)