/*--------------------------------*- C++ -*----------------------------------*\
  =========                 |
  \\      /  F ield         | OpenFOAM: The Open Source CFD Toolbox
   \\    /   O peration     | Website:  https://openfoam.org
    \\  /    A nd           | Version:  dev
     \\/     M anipulation  |
\*---------------------------------------------------------------------------*/
FoamFile
{
    version     2.0;
    format      ascii;
    class       surfaceVectorField;
    location    "10";
    object      Uf;
}
// * * * * * * * * * * * * * * * * * * * * * * * * * * * * * * * * * * * * * //

dimensions      [0 1 -1 0 0 0 0];

internalField   nonuniform List<vector> 
5457
(
(9.92088 0 0.0251103)
(9.97124 0 0.0387467)
(9.82401 0 0.032828)
(9.92858 0 0.048587)
(9.7096 0 0.0393137)
(9.85547 0 0.058771)
(9.57542 0 0.0460138)
(9.75679 0 0.0705973)
(9.42135 0 0.0529518)
(9.63751 0 0.0830184)
(9.24751 0 0.0601698)
(9.49858 0 0.0959427)
(9.05357 0 0.0678152)
(9.33926 0 0.10962)
(8.83886 0 0.0760396)
(9.15868 0 0.124298)
(8.60244 0 0.0849761)
(8.95602 0 0.140178)
(8.34316 0 0.0947517)
(8.73029 0 0.157445)
(8.05972 0 0.105495)
(8.48029 0 0.176284)
(7.75065 0 0.117336)
(8.20464 0 0.196872)
(7.41439 0 0.130405)
(7.90179 0 0.219378)
(7.0493 0 0.144821)
(7.57012 0 0.243942)
(6.65381 0 0.160684)
(7.20798 0 0.270653)
(6.22647 0 0.178056)
(6.81376 0 0.299521)
(5.76615 0 0.19694)
(6.38607 0 0.330435)
(5.27228 0 0.217245)
(5.92388 0 0.363104)
(4.74506 0 0.238747)
(5.42679 0 0.396994)
(4.18587 0 0.261041)
(4.89533 0 0.431252)
(3.59763 0 0.283495)
(4.3313 0 0.46463)
(2.98522 0 0.305205)
(3.73826 0 0.495429)
(2.35579 0 0.325068)
(3.12193 0 0.521509)
(1.71879 0 0.342542)
(2.49074 0 0.540545)
(1.08406 0 0.361875)
(1.85555 0 0.551654)
(0.451568 0 0.34861)
(1.24522 0 0.563003)
(-0.146002 0 0.102363)
(0.608611 0 0.544784)
(-0.423676 0 -0.2071)
(0.0945756 0 0.25927)
(-0.402173 0 -0.361222)
(-0.133821 0 -0.0205638)
(-0.119681 0 -0.393904)
(9.99641 0 0.0516745)
(9.99705 0 0.0405065)
(9.95878 0 0.0708651)
(9.9785 0 0.0674582)
(9.89823 0 0.0879918)
(9.93377 0 0.0898756)
(9.81657 0 0.105991)
(9.86452 0 0.113563)
(9.71356 0 0.12493)
(9.77436 0 0.138525)
(9.58905 0 0.144864)
(9.66432 0 0.164659)
(9.44269 0 0.166102)
(9.53393 0 0.192347)
(9.27384 0 0.188982)
(9.38244 0 0.222048)
(9.08158 0 0.2138)
(9.20912 0 0.254169)
(8.86479 0 0.240835)
(9.01307 0 0.289088)
(8.62217 0 0.270359)
(8.7932 0 0.32718)
(8.35224 0 0.302631)
(8.54822 0 0.368817)
(8.05338 0 0.337884)
(8.27668 0 0.414351)
(7.72392 0 0.376291)
(7.97699 0 0.464084)
(7.36214 0 0.417932)
(7.64751 0 0.518229)
(6.96647 0 0.462738)
(7.28659 0 0.576848)
(6.53555 0 0.510417)
(6.89269 0 0.639767)
(6.06852 0 0.560361)
(6.46453 0 0.706468)
(5.56527 0 0.611545)
(6.00129 0 0.775946)
(5.02676 0 0.662402)
(5.50293 0 0.846554)
(4.45553 0 0.710718)
(4.97055 0 0.915827)
(3.85614 0 0.753539)
(4.40683 0 0.980314)
(3.23585 0 0.787183)
(3.81669 0 1.03545)
(2.60549 0 0.807475)
(3.20812 0 1.07546)
(1.9825 0 0.810428)
(2.59308 0 1.0931)
(1.40504 0 0.776831)
(1.99593 0 1.07702)
(0.929526 0 0.646304)
(1.41925 0 0.978296)
(0.439644 0 0.384208)
(0.937401 0 0.716683)
(0.0590688 0 -0.118724)
(0.443597 0 0.343382)
(0.174883 0 -0.336049)
(9.98903 0 0.0594344)
(9.99481 0 0.0458802)
(9.95433 0 0.0894824)
(9.97368 0 0.0848597)
(9.89728 0 0.11804)
(9.92983 0 0.119182)
(9.82045 0 0.147909)
(9.86356 0 0.153988)
(9.72413 0 0.179436)
(9.77734 0 0.190423)
(9.60817 0 0.212792)
(9.67224 0 0.228655)
(9.47229 0 0.248413)
(9.54806 0 0.269151)
(9.31601 0 0.286798)
(9.40426 0 0.312523)
(9.1386 0 0.328425)
(9.24027 0 0.359356)
(8.93915 0 0.373753)
(9.0554 0 0.410209)
(8.71653 0 0.423241)
(8.84878 0 0.465638)
(8.46946 0 0.477335)
(8.61938 0 0.526196)
(8.19651 0 0.536441)
(8.366 0 0.592421)
(7.89613 0 0.600887)
(8.08734 0 0.664789)
(7.5667 0 0.670856)
(7.78199 0 0.743672)
(7.20659 0 0.746303)
(7.44851 0 0.829245)
(6.8143 0 0.826828)
(7.08543 0 0.921375)
(6.38858 0 0.911525)
(6.69143 0 1.01946)
(5.92872 0 0.998794)
(6.26542 0 1.12222)
(5.43481 0 1.08612)
(5.8068 0 1.22746)
(4.90821 0 1.16984)
(5.31574 0 1.33177)
(4.35209 0 1.24489)
(4.79364 0 1.4302)
(3.77226 0 1.30453)
(4.24363 0 1.51586)
(3.17841 0 1.33979)
(3.67148 0 1.57939)
(2.58634 0 1.33805)
(3.08601 0 1.60768)
(2.01962 0 1.27287)
(2.50265 0 1.58148)
(1.48673 0 1.09528)
(1.92851 0 1.46411)
(0.958149 0 0.769018)
(1.38507 0 1.21023)
(0.479788 0 0.202262)
(0.829426 0 0.800842)
(0.433674 0 0.133874)
(9.98515 0 0.0716187)
(9.99367 0 0.0531515)
(9.95038 0 0.113638)
(9.97087 0 0.102298)
(9.89435 0 0.154145)
(9.9269 0 0.147965)
(9.8188 0 0.195588)
(9.86184 0 0.193736)
(9.72439 0 0.23883)
(9.77744 0 0.241297)
(9.61109 0 0.284348)
(9.67464 0 0.291187)
(9.47869 0 0.332748)
(9.55339 0 0.343984)
(9.32688 0 0.384707)
(9.4133 0 0.400406)
(9.15515 0 0.440884)
(9.25393 0 0.461179)
(8.96281 0 0.501926)
(9.07475 0 0.527007)
(8.74905 0 0.568476)
(8.87509 0 0.598587)
(8.5129 0 0.641165)
(8.65417 0 0.676619)
(8.2533 0 0.720588)
(8.41108 0 0.761783)
(7.96907 0 0.807251)
(8.14482 0 0.854704)
(7.65897 0 0.901501)
(7.85435 0 0.95589)
(7.32169 0 1.00341)
(7.53853 0 1.06564)
(6.95595 0 1.11264)
(7.19621 0 1.18392)
(6.56056 0 1.22819)
(6.82626 0 1.31015)
(6.13458 0 1.34822)
(6.4276 0 1.44298)
(5.67752 0 1.46964)
(5.99935 0 1.57995)
(5.18966 0 1.58779)
(5.54101 0 1.71712)
(4.67253 0 1.69602)
(5.05271 0 1.84855)
(4.12947 0 1.78512)
(4.53562 0 1.96581)
(3.56634 0 1.84246)
(3.9924 0 2.05725)
(2.99176 0 1.85062)
(3.42729 0 2.10705)
(2.41559 0 1.78234)
(2.84735 0 2.09434)
(1.84034 0 1.60027)
(2.25599 0 1.98855)
(1.25925 0 1.27821)
(1.66013 0 1.75281)
(0.666704 0 0.789307)
(1.02385 0 1.36749)
(0.522993 0 0.78687)
(9.98337 0 0.0844134)
(9.99316 0 0.0612958)
(9.9482 0 0.136847)
(9.96958 0 0.119936)
(9.89313 0 0.188046)
(9.92574 0 0.176254)
(9.81905 0 0.240188)
(9.86198 0 0.232716)
(9.7266 0 0.294491)
(9.77962 0 0.29111)
(9.61586 0 0.351688)
(9.67937 0 0.352303)
(9.48666 0 0.412505)
(9.56124 0 0.417012)
(9.33872 0 0.477716)
(9.42491 0 0.486049)
(9.17163 0 0.548097)
(9.27002 0 0.560252)
(8.98483 0 0.624407)
(9.09612 0 0.640441)
(8.77767 0 0.707402)
(8.90264 0 0.727429)
(8.5494 0 0.797829)
(8.68894 0 0.822025)
(8.29919 0 0.896397)
(8.4543 0 0.925017)
(8.02616 0 1.00373)
(8.1979 0 1.03714)
(7.72936 0 1.12028)
(7.91892 0 1.159)
(7.40782 0 1.24625)
(7.61647 0 1.29101)
(7.0605 0 1.38135)
(7.28961 0 1.43324)
(6.68641 0 1.52466)
(6.93735 0 1.58519)
(6.28454 0 1.67425)
(6.55869 0 1.74558)
(5.85406 0 1.82684)
(6.15255 0 1.91195)
(5.39437 0 1.97728)
(5.71788 0 2.08021)
(4.90541 0 2.11805)
(5.25372 0 2.24411)
(4.38791 0 2.23857)
(4.75938 0 2.39459)
(3.84361 0 2.32446)
(4.2346 0 2.51913)
(3.27513 0 2.35682)
(3.67955 0 2.60112)
(2.68513 0 2.31041)
(3.09542 0 2.61953)
(2.07248 0 2.15477)
(2.48143 0 2.54708)
(1.42923 0 1.86712)
(1.83972 0 2.35343)
(0.742533 0 1.41926)
(1.13124 0 2.02418)
(0.543252 0 1.51414)
(9.98264 0 0.0975048)
(9.99299 0 0.069798)
(9.94743 0 0.159787)
(9.96924 0 0.137594)
(9.89353 0 0.221365)
(9.92596 0 0.203942)
(9.82132 0 0.284114)
(9.86379 0 0.270709)
(9.73131 0 0.349376)
(9.78384 0 0.33961)
(9.62363 0 0.418053)
(9.68662 0 0.411731)
(9.49814 0 0.490979)
(9.57214 0 0.487943)
(9.35459 0 0.569022)
(9.44016 0 0.569152)
(9.19262 0 0.653059)
(9.29036 0 0.656289)
(9.01174 0 0.743961)
(9.12234 0 0.750278)
(8.8114 0 0.842587)
(8.93561 0 0.85203)
(8.59095 0 0.949788)
(8.72961 0 0.962448)
(8.34969 0 1.06637)
(8.50367 0 1.08241)
(8.08688 0 1.19306)
(8.25711 0 1.21274)
(7.80171 0 1.3304)
(7.98918 0 1.35415)
(7.49336 0 1.4787)
(7.69907 0 1.50714)
(7.16093 0 1.63779)
(7.38592 0 1.67188)
(6.80343 0 1.80684)
(7.04875 0 1.84803)
(6.4198 0 1.98405)
(6.68644 0 2.03446)
(6.00879 0 2.1662)
(6.29768 0 2.22892)
(5.56905 0 2.34815)
(5.88084 0 2.42755)
(5.0991 0 2.52221)
(5.43397 0 2.62429)
(4.59738 0 2.67752)
(4.95473 0 2.81028)
(4.06234 0 2.7994)
(4.44046 0 2.97315)
(3.49236 0 2.86895)
(3.88815 0 3.09649)
(2.88553 0 2.86269)
(3.29489 0 3.15969)
(2.23777 0 2.75363)
(2.6566 0 3.13762)
(1.54227 0 2.52068)
(1.97461 0 3.00283)
(0.793558 0 2.13094)
(1.20709 0 2.74018)
(0.556671 0 2.29138)
(9.9825 0 0.110634)
(9.99301 0 0.0783673)
(9.9477 0 0.182338)
(9.96953 0 0.155049)
(9.89522 0 0.253837)
(9.92721 0 0.230903)
(9.82523 0 0.326792)
(9.86696 0 0.307533)
(9.73811 0 0.402587)
(9.78976 0 0.386553)
(9.634 0 0.482273)
(9.69603 0 0.469186)
(9.51281 0 0.566804)
(9.58575 0 0.556443)
(9.37432 0 0.657148)
(9.45875 0 0.649325)
(9.21821 0 0.754277)
(9.31474 0 0.748851)
(9.04405 0 0.859158)
(9.15339 0 0.856036)
(8.85134 0 0.972746)
(8.97424 0 0.971885)
(8.6395 0 1.09598)
(8.77679 0 1.09739)
(8.40787 0 1.22975)
(8.56044 0 1.23352)
(8.15577 0 1.37486)
(8.32453 0 1.38119)
(7.88244 0 1.53198)
(8.06833 0 1.5412)
(7.58704 0 1.70151)
(7.79104 0 1.71418)
(7.26863 0 1.88342)
(7.49171 0 1.90044)
(6.92613 0 2.07709)
(7.16926 0 2.09984)
(6.55819 0 2.28096)
(6.82235 0 2.31152)
(6.16312 0 2.49214)
(6.44925 0 2.53361)
(5.73875 0 2.70589)
(6.04772 0 2.76274)
(5.28234 0 2.91501)
(5.61484 0 2.99352)
(4.79043 0 3.10912)
(5.14682 0 3.21785)
(4.2589 0 3.2741)
(4.63896 0 3.4242)
(3.68301 0 3.39167)
(4.08564 0 3.597)
(3.05771 0 3.43941)
(3.48092 0 3.7163)
(2.37745 0 3.39144)
(2.81802 0 3.75779)
(1.63771 0 3.22574)
(2.09888 0 3.69355)
(0.839024 0 2.90036)
(1.27874 0 3.50396)
(0.57328 0 3.11315)
(9.98273 0 0.123591)
(9.99316 0 0.0868239)
(9.94872 0 0.204325)
(9.97026 0 0.172106)
(9.89793 0 0.285274)
(9.92926 0 0.256995)
(9.83049 0 0.367994)
(9.87122 0 0.343014)
(9.74669 0 0.453888)
(9.79714 0 0.431712)
(9.64665 0 0.544122)
(9.70732 0 0.524393)
(9.53034 0 0.639761)
(9.60177 0 0.622187)
(9.39757 0 0.741862)
(9.48034 0 0.726187)
(9.24806 0 0.851488)
(9.3428 0 0.837496)
(9.08144 0 0.969691)
(9.18887 0 0.957215)
(8.89726 0 1.09752)
(9.01815 0 1.08644)
(8.69498 0 1.23599)
(8.83019 0 1.22624)
(8.47398 0 1.3861)
(8.62442 0 1.3777)
(8.23359 0 1.54876)
(8.40021 0 1.54182)
(7.97302 0 1.72474)
(8.15683 0 1.71952)
(7.69138 0 1.91459)
(7.89342 0 1.91158)
(7.38759 0 2.1185)
(7.60895 0 2.11852)
(7.06032 0 2.33611)
(7.30214 0 2.34045)
(6.70787 0 2.56625)
(6.97133 0 2.57691)
(6.328 0 2.80659)
(6.61436 0 2.82657)
(5.9177 0 3.05313)
(6.22832 0 3.08681)
(5.47303 0 3.29956)
(5.80931 0 3.35325)
(4.98887 0 3.53662)
(5.3522 0 3.619)
(4.45889 0 3.7513)
(4.8504 0 3.87393)
(3.87578 0 3.92626)
(4.29594 0 4.10378)
(3.23193 0 4.03954)
(3.68008 0 4.28942)
(2.52049 0 4.06456)
(2.99309 0 4.40638)
(1.73812 0 3.97561)
(2.23703 0 4.42406)
(0.889338 0 3.71816)
(1.36313 0 4.31566)
(0.59865 0 3.9842)
(9.98321 0 0.136214)
(9.99339 0 0.0950475)
(9.95032 0 0.225589)
(9.97131 0 0.188603)
(9.9015 0 0.315521)
(9.93193 0 0.28207)
(9.83693 0 0.407535)
(9.87642 0 0.376989)
(9.75682 0 0.503052)
(9.80578 0 0.474878)
(9.66132 0 0.603326)
(9.72028 0 0.577096)
(9.55042 0 0.709518)
(9.61993 0 0.684871)
(9.42399 0 0.822771)
(9.50461 0 0.799383)
(9.28178 0 0.944227)
(9.37417 0 0.921813)
(9.12348 0 1.07502)
(9.22837 0 1.05334)
(8.9487 0 1.2163)
(9.06687 0 1.19514)
(8.75694 0 1.36916)
(8.88928 0 1.34839)
(8.54762 0 1.53472)
(8.69508 0 1.51425)
(8.32008 0 1.71399)
(8.48367 0 1.69385)
(8.07351 0 1.9079)
(8.25433 0 1.88826)
(7.80691 0 2.11719)
(8.00615 0 2.09844)
(7.51906 0 2.34232)
(7.73801 0 2.32515)
(7.20838 0 2.58332)
(7.44845 0 2.56887)
(6.87276 0 2.83955)
(7.13553 0 2.82963)
(6.5094 0 3.10941)
(6.79665 0 3.1068)
(6.11446 0 3.38991)
(6.42826 0 3.39876)
(5.68286 0 3.67608)
(6.02559 0 3.7024)
(5.20789 0 3.96019)
(5.58218 0 4.01253)
(4.68114 0 4.23088)
(5.08967 0 4.32093)
(4.09267 0 4.47209)
(4.5376 0 4.61523)
(3.43192 0 4.66218)
(3.91402 0 4.87757)
(2.68961 0 4.77264)
(3.20505 0 5.08312)
(1.86146 0 4.77174)
(2.41074 0 5.19732)
(0.953967 0 4.58896)
(1.47591 0 5.1835)
(0.639025 0 4.91855)
(9.98386 0 0.14838)
(9.99368 0 0.102951)
(9.95235 0 0.245989)
(9.9726 0 0.20441)
(9.90578 0 0.344426)
(9.9351 0 0.305993)
(9.84436 0 0.445233)
(9.8824 0 0.409302)
(9.76831 0 0.549855)
(9.81551 0 0.515857)
(9.67778 0 0.659613)
(9.73469 0 0.627062)
(9.57278 0 0.775752)
(9.63996 0 0.744219)
(9.45323 0 0.899494)
(9.53126 0 0.868589)
(9.31896 0 1.03206)
(9.40848 0 1.00142)
(9.16971 0 1.17466)
(9.27146 0 1.14397)
(9.00514 0 1.32851)
(9.11992 0 1.2975)
(8.82481 0 1.49485)
(8.95352 0 1.46326)
(8.62821 0 1.67485)
(8.77183 0 1.64251)
(8.41469 0 1.86971)
(8.57429 0 1.83653)
(8.18342 0 2.08051)
(8.36021 0 2.04653)
(7.93338 0 2.30824)
(8.12869 0 2.27369)
(7.66322 0 2.5537)
(7.87857 0 2.51908)
(7.37113 0 2.81738)
(7.60826 0 2.78361)
(7.0547 0 3.09931)
(7.31565 0 3.0679)
(6.71061 0 3.39883)
(6.99781 0 3.37217)
(6.33434 0 3.71422)
(6.65073 0 3.69597)
(5.91973 0 4.04219)
(6.26888 0 4.03781)
(5.45858 0 4.37708)
(5.84471 0 4.3946)
(4.94032 0 4.70979)
(5.36812 0 4.76072)
(4.35194 0 5.0263)
(4.82596 0 5.1266)
(3.67881 0 5.30577)
(4.2023 0 5.47675)
(2.9068 0 5.51756)
(3.47703 0 5.78693)
(2.0271 0 5.62218)
(2.64426 0 6.01871)
(1.04479 0 5.52846)
(1.63717 0 6.12289)
(0.704215 0 5.94186)
(9.98465 0 0.159993)
(9.99402 0 0.110471)
(9.95472 0 0.265402)
(9.97408 0 0.219417)
(9.91064 0 0.371849)
(9.93867 0 0.328638)
(9.85266 0 0.480922)
(9.88904 0 0.43981)
(9.78098 0 0.594093)
(9.82617 0 0.554478)
(9.69579 0 0.71274)
(9.75036 0 0.67408)
(9.59713 0 0.838178)
(9.66164 0 0.799983)
(9.48498 0 0.971699)
(9.56 0 0.933514)
(9.35922 0 1.11459)
(9.44539 0 1.07599)
(9.21967 0 1.26814)
(9.31771 0 1.22872)
(9.06604 0 1.43365)
(9.17677 0 1.39304)
(8.89801 0 1.61243)
(9.02232 0 1.57029)
(8.71509 0 1.8058)
(8.85399 0 1.76185)
(8.5167 0 2.01507)
(8.67132 0 1.96908)
(8.30208 0 2.24156)
(8.47369 0 2.19341)
(8.07018 0 2.48652)
(8.26025 0 2.43623)
(7.81963 0 2.75112)
(8.02988 0 2.69894)
(7.54853 0 3.03642)
(7.78102 0 2.98293)
(7.25427 0 3.34321)
(7.51149 0 3.28947)
(6.93325 0 3.67193)
(7.21828 0 3.61975)
(6.58044 0 4.02237)
(6.89715 0 3.97464)
(6.18889 0 4.39329)
(6.54217 0 4.35456)
(5.74911 0 4.7817)
(6.14505 0 4.75898)
(5.24836 0 5.1817)
(5.6943 0 5.18564)
(4.67011 0 5.58262)
(5.17419 0 5.62917)
(3.99403 0 5.96614)
(4.56411 0 6.07855)
(3.19756 0 6.30102)
(3.83529 0 6.51305)
(2.26105 0 6.53967)
(2.96984 0 6.89315)
(1.18018 0 6.56381)
(1.87837 0 7.15653)
(0.812424 0 7.09777)
(9.98553 0 0.170976)
(9.9944 0 0.117555)
(9.95738 0 0.28372)
(9.97572 0 0.233537)
(9.916 0 0.397666)
(9.94258 0 0.349895)
(9.86168 0 0.514452)
(9.89623 0 0.468387)
(9.79467 0 0.635586)
(9.83764 0 0.590586)
(9.71515 0 0.762491)
(9.76712 0 0.717967)
(9.62322 0 0.896542)
(9.68473 0 0.851945)
(9.51891 0 1.03909)
(9.59053 0 0.993902)
(9.40216 0 1.19148)
(9.48452 0 1.14521)
(9.27288 0 1.35507)
(9.36669 0 1.30723)
(9.13087 0 1.53122)
(9.23693 0 1.48136)
(8.97587 0 1.72135)
(9.09507 0 1.66903)
(8.80752 0 1.92688)
(8.94087 0 1.87168)
(8.62532 0 2.14928)
(8.77396 0 2.09082)
(8.4286 0 2.39006)
(8.59386 0 2.32803)
(8.2164 0 2.65076)
(8.39984 0 2.58495)
(7.98744 0 2.93297)
(8.19092 0 2.86331)
(7.73987 0 3.23832)
(7.96567 0 3.16494)
(7.47112 0 3.56845)
(7.7221 0 3.49184)
(7.17755 0 3.92497)
(7.45735 0 3.84615)
(6.85402 0 4.3094)
(7.16734 0 4.23019)
(6.49327 0 4.72286)
(6.84628 0 4.64641)
(6.08501 0 5.16568)
(6.4858 0 5.09724)
(5.61482 0 5.63634)
(6.07387 0 5.58464)
(5.06263 0 6.12967)
(5.59304 0 6.10909)
(4.40115 0 6.63335)
(5.01845 0 6.66736)
(3.59502 0 7.12041)
(4.31126 0 7.24797)
(2.60331 0 7.53936)
(3.43433 0 7.81912)
(1.39365 0 7.73871)
(2.25532 0 8.31334)
(1.002 0 8.46276)
(9.9865 0 0.181266)
(9.9948 0 0.124165)
(9.96026 0 0.300854)
(9.97747 0 0.246698)
(9.92176 0 0.421765)
(9.94676 0 0.369674)
(9.87133 0 0.545692)
(9.90387 0 0.494922)
(9.80922 0 0.674175)
(9.84976 0 0.624051)
(9.73566 0 0.808678)
(9.78477 0 0.758565)
(9.65079 0 0.950622)
(9.70901 0 0.899919)
(9.55469 0 1.1014)
(9.62256 0 1.04953)
(9.44739 0 1.26242)
(9.52552 0 1.20882)
(9.32886 0 1.43508)
(9.41795 0 1.37921)
(9.19902 0 1.62082)
(9.29983 0 1.56212)
(9.05772 0 1.82111)
(9.17112 0 1.75904)
(8.9047 0 2.03749)
(9.03169 0 1.9715)
(8.73962 0 2.27156)
(8.88131 0 2.20113)
(8.56195 0 2.52503)
(8.71967 0 2.44962)
(8.37091 0 2.79971)
(8.54626 0 2.71885)
(8.16541 0 3.09759)
(8.3603 0 3.01083)
(7.94385 0 3.42085)
(8.16068 0 3.32784)
(7.70395 0 3.77197)
(7.94578 0 3.67249)
(7.4424 0 4.15375)
(7.7132 0 4.04785)
(7.15448 0 4.56945)
(7.45952 0 4.45761)
(6.83329 0 5.0228)
(7.1797 0 4.90624)
(6.46877 0 5.5179)
(6.86635 0 5.39925)
(6.04605 0 6.05887)
(6.5084 0 5.94334)
(5.54291 0 6.64871)
(6.08891 0 6.54638)
(4.92572 0 7.28666)
(5.58172 0 7.21674)
(4.1435 0 7.9606)
(4.94082 0 7.96109)
(3.12028 0 8.63204)
(4.10739 0 8.77453)
(1.75518 0 9.12547)
(2.87661 0 9.61879)
(1.36361 0 10.1819)
(9.98753 0 0.190812)
(9.99523 0 0.130269)
(9.96332 0 0.31673)
(9.97932 0 0.258842)
(9.92785 0 0.444054)
(9.95115 0 0.387896)
(9.88147 0 0.574532)
(9.91187 0 0.519323)
(9.82448 0 0.709734)
(9.86243 0 0.654763)
(9.75711 0 0.851153)
(9.80316 0 0.795745)
(9.67956 0 1.00025)
(9.73424 0 0.94375)
(9.59199 0 1.15845)
(9.65581 0 1.10023)
(9.49448 0 1.32719)
(9.56803 0 1.26664)
(9.38711 0 1.50792)
(9.47104 0 1.44441)
(9.2699 0 1.70212)
(9.36495 0 1.63501)
(9.14283 0 1.91132)
(9.24981 0 1.83998)
(9.00579 0 2.13715)
(9.12565 0 2.06091)
(8.8586 0 2.38132)
(8.99242 0 2.29948)
(8.70094 0 2.64569)
(8.85 0 2.55752)
(8.5323 0 2.93232)
(8.69813 0 2.83704)
(8.3519 0 3.24352)
(8.53639 0 3.14032)
(8.15857 0 3.58197)
(8.36408 0 3.46998)
(7.95057 0 3.95085)
(8.18014 0 3.82912)
(7.72534 0 4.35406)
(7.98296 0 4.22155)
(7.47914 0 4.79643)
(7.7702 0 4.65208)
(7.20639 0 5.28416)
(7.53833 0 5.12689)
(6.8987 0 5.8252)
(7.28213 0 5.65419)
(6.5431 0 6.4299)
(6.99358 0 6.2451)
(6.11884 0 7.11163)
(6.65996 0 6.91511)
(5.5912 0 7.88747)
(6.26066 0 7.68641)
(4.8987 0 8.77717)
(5.75524 0 8.59242)
(3.92449 0 9.79978)
(5.08444 0 9.68416)
(2.43123 0 10.8533)
(3.97624 0 11.0468)
(2.14391 0 12.5631)
(9.98861 0 0.199577)
(9.99567 0 0.135845)
(9.96652 0 0.331285)
(9.98124 0 0.269925)
(9.9342 0 0.464452)
(9.9557 0 0.4045)
(9.89202 0 0.600866)
(9.92016 0 0.541515)
(9.8403 0 0.742123)
(9.87552 0 0.682633)
(9.77931 0 0.889739)
(9.82215 0 0.829401)
(9.7093 0 1.0452)
(9.76027 0 0.98332)
(9.63049 0 1.20995)
(9.69009 0 1.14586)
(9.54305 0 1.38546)
(9.61183 0 1.31848)
(9.44714 0 1.5732)
(9.52575 0 1.50264)
(9.34291 0 1.77467)
(9.43203 0 1.69984)
(9.23046 0 1.99146)
(9.33088 0 1.91161)
(9.10987 0 2.22524)
(9.22247 0 2.13958)
(8.98115 0 2.47779)
(9.10696 0 2.38548)
(8.84425 0 2.75109)
(8.98446 0 2.65121)
(8.69897 0 3.04737)
(8.85503 0 2.93887)
(8.54495 0 3.36917)
(8.71862 0 3.25088)
(8.3816 0 3.71954)
(8.57508 0 3.59008)
(8.20795 0 4.10218)
(8.42406 0 3.95987)
(8.02253 0 4.52174)
(8.26499 0 4.36454)
(7.82316 0 4.98427)
(8.09694 0 4.80955)
(7.60654 0 5.49781)
(7.91856 0 5.30213)
(7.36762 0 6.0734)
(7.72785 0 5.85215)
(7.09845 0 6.72666)
(7.52191 0 6.47351)
(6.78587 0 7.48076)
(7.29647 0 7.18678)
(6.40628 0 8.37237)
(7.046 0 8.0243)
(5.91263 0 9.46575)
(6.76022 0 9.04246)
(5.19237 0 10.9068)
(6.45794 0 10.3567)
(3.88036 0 13.1737)
(6.18345 0 12.3015)
(5.24937 0 16.3637)
(0.193929 0 -0.11549)
(0.114274 0 -0.189941)
(0.378442 0 -0.0979281)
(0.277172 0 -0.176451)
(0.529807 0 -0.074303)
(0.439508 0 -0.141332)
(0.646758 0 -0.0527765)
(0.575555 0 -0.10662)
(0.732941 0 -0.0346815)
(0.68047 0 -0.0767145)
(0.792325 0 -0.0197035)
(0.757898 0 -0.051612)
(0.82831 0 -0.00730983)
(0.812349 0 -0.0305357)
(0.843856 0 0.00277401)
(0.847281 0 -0.0128812)
(0.842091 0 0.0103175)
(0.865254 0 0.00142789)
(0.824914 0 0.0155227)
(0.868066 0 0.0135679)
(0.79601 0 0.0190842)
(0.856925 0 0.0222908)
(0.757904 0 0.0212869)
(0.834589 0 0.0286942)
(0.713255 0 0.0222308)
(0.803751 0 0.0328263)
(0.664799 0 0.0220065)
(0.767112 0 0.0347837)
(0.615208 0 0.0207509)
(0.727394 0 0.0347582)
(0.566937 0 0.0186592)
(0.687219 0 0.0330342)
(0.522062 0 0.0159976)
(0.648931 0 0.0299839)
(0.482136 0 0.0130935)
(0.614411 0 0.0260481)
(0.448048 0 0.0102843)
(0.584912 0 0.0217132)
(0.419959 0 0.00784631)
(0.560945 0 0.0174698)
(0.39735 0 0.00593278)
(0.542273 0 0.0137295)
(0.37926 0 0.00455135)
(0.528082 0 0.010726)
(0.364626 0 0.00359677)
(0.5173 0 0.00847176)
(0.352571 0 0.00292327)
(0.508957 0 0.00681392)
(0.342505 0 0.00241586)
(0.502376 0 0.00555517)
(0.334044 0 0.00201853)
(0.497156 0 0.00455907)
(0.326881 0 0.00171719)
(0.493033 0 0.00376881)
(0.320705 0 0.00149906)
(0.489744 0 0.00317244)
(0.315236 0 0.00126413)
(0.486969 0 0.00274288)
(0.484001 0 0.00220282)
(0.180188 0 -0.276013)
(0.0960178 0 -0.366424)
(0.353014 0 -0.241145)
(0.247843 0 -0.341726)
(0.498101 0 -0.19)
(0.390901 0 -0.276802)
(0.614781 0 -0.142589)
(0.512237 0 -0.212994)
(0.706712 0 -0.102374)
(0.608388 0 -0.158545)
(0.777579 0 -0.0687467)
(0.683007 0 -0.113204)
(0.830424 0 -0.0404988)
(0.739848 0 -0.0753786)
(0.867487 0 -0.0166181)
(0.781677 0 -0.0435895)
(0.889626 0 0.00331358)
(0.810444 0 -0.0164818)
(0.898463 0 0.0193194)
(0.827948 0 0.00658756)
(0.894005 0 0.0315799)
(0.833596 0 0.0257288)
(0.879142 0 0.0403181)
(0.828899 0 0.0398864)
(0.856537 0 0.045687)
(0.816192 0 0.0494454)
(0.828915 0 0.0479044)
(0.797861 0 0.0546123)
(0.798953 0 0.0473161)
(0.776324 0 0.0557582)
(0.769117 0 0.0443999)
(0.753889 0 0.0534521)
(0.741507 0 0.039753)
(0.732594 0 0.0484324)
(0.717658 0 0.0340659)
(0.714048 0 0.0416069)
(0.698428 0 0.028071)
(0.69929 0 0.0339627)
(0.68393 0 0.0224397)
(0.688681 0 0.0264864)
(0.673631 0 0.0176493)
(0.681904 0 0.0199839)
(0.66662 0 0.0138863)
(0.678138 0 0.0148826)
(0.661964 0 0.0110613)
(0.676405 0 0.011167)
(0.658952 0 0.00893622)
(0.675895 0 0.00851644)
(0.657142 0 0.00728283)
(0.676119 0 0.00655429)
(0.656247 0 0.00596855)
(0.676831 0 0.00504156)
(0.656013 0 0.00494589)
(0.677866 0 0.00389176)
(0.65616 0 0.004194)
(0.67902 0 0.00309706)
(0.656354 0 0.003624)
(0.679994 0 0.00264536)
(0.680352 0 0.00252907)
(0.153737 0 -0.438492)
(0.0759148 0 -0.517)
(0.296824 0 -0.384202)
(0.205157 0 -0.478561)
(0.415158 0 -0.306131)
(0.31564 0 -0.387294)
(0.510235 0 -0.234366)
(0.409742 0 -0.299672)
(0.585858 0 -0.173806)
(0.483883 0 -0.22586)
(0.645091 0 -0.123358)
(0.542206 0 -0.164684)
(0.69036 0 -0.0812048)
(0.587453 0 -0.113793)
(0.723643 0 -0.045679)
(0.621551 0 -0.0711661)
(0.746859 0 -0.0152342)
(0.645938 0 -0.0352626)
(0.761311 0 0.0106202)
(0.662538 0 -0.00482784)
(0.766786 0 0.0313383)
(0.672228 0 0.0215065)
(0.764447 0 0.046593)
(0.674076 0 0.041648)
(0.756251 0 0.0563998)
(0.670201 0 0.0554711)
(0.744319 0 0.0610586)
(0.662599 0 0.0631772)
(0.730674 0 0.0611315)
(0.653148 0 0.0653222)
(0.717142 0 0.0573969)
(0.643506 0 0.0627124)
(0.705223 0 0.0508151)
(0.635028 0 0.0563962)
(0.696003 0 0.0424983)
(0.628701 0 0.0476226)
(0.690018 0 0.0336446)
(0.625066 0 0.0377747)
(0.68719 0 0.0253713)
(0.624126 0 0.0282454)
(0.686902 0 0.0184736)
(0.625329 0 0.0201591)
(0.688277 0 0.0132459)
(0.627745 0 0.0140669)
(0.690521 0 0.00950976)
(0.630406 0 0.00986817)
(0.693119 0 0.00684927)
(0.632633 0 0.0070478)
(0.695821 0 0.00489052)
(0.634154 0 0.00506344)
(0.698473 0 0.00343781)
(0.634963 0 0.00361221)
(0.700928 0 0.00243536)
(0.635095 0 0.00259995)
(0.702971 0 0.00188491)
(0.634523 0 0.00204781)
(0.704266 0 0.0018582)
(0.633167 0 0.00199561)
(0.630362 0 0.00264483)
(0.124774 0 -0.566581)
(0.0557884 0 -0.639208)
(0.232844 0 -0.491582)
(0.157048 0 -0.581909)
(0.31858 0 -0.39056)
(0.228908 0 -0.467346)
(0.386873 0 -0.300034)
(0.292385 0 -0.361933)
(0.441504 0 -0.224456)
(0.340498 0 -0.27449)
(0.484698 0 -0.161654)
(0.378891 0 -0.202224)
(0.518091 0 -0.109162)
(0.40898 0 -0.14213)
(0.542911 0 -0.064993)
(0.431822 0 -0.0917309)
(0.5602 0 -0.0276131)
(0.448286 0 -0.0492484)
(0.571308 0 0.0039299)
(0.45893 0 -0.0136019)
(0.577259 0 0.0295739)
(0.466339 0 0.0169173)
(0.577821 0 0.0486559)
(0.467808 0 0.0412247)
(0.574823 0 0.0608949)
(0.465622 0 0.0576751)
(0.570096 0 0.0666596)
(0.461963 0 0.0665707)
(0.565093 0 0.0667205)
(0.458342 0 0.0688284)
(0.560947 0 0.062093)
(0.455664 0 0.0655501)
(0.558445 0 0.0540198)
(0.45442 0 0.0580682)
(0.558023 0 0.0439577)
(0.454753 0 0.0478976)
(0.559684 0 0.0334806)
(0.456465 0 0.0367166)
(0.562918 0 0.0240284)
(0.458983 0 0.0262343)
(0.566795 0 0.0165423)
(0.461355 0 0.0178045)
(0.570293 0 0.0112451)
(0.462488 0 0.0119932)
(0.572672 0 0.00774883)
(0.461508 0 0.00849082)
(0.573646 0 0.00542848)
(0.458093 0 0.00649706)
(0.573255 0 0.00380274)
(0.452517 0 0.0052794)
(0.571602 0 0.00267963)
(0.445367 0 0.00450265)
(0.568772 0 0.00205197)
(0.437125 0 0.00408939)
(0.56485 0 0.00193608)
(0.428044 0 0.00406236)
(0.559991 0 0.00244095)
(0.418372 0 0.00443249)
(0.406822 0 0.00513403)
(0.0912469 0 -0.662305)
(0.0347342 0 -0.728579)
(0.160413 0 -0.565882)
(0.10288 0 -0.648053)
(0.210144 0 -0.446809)
(0.131402 0 -0.513781)
(0.248757 0 -0.343837)
(0.162459 0 -0.397134)
(0.279472 0 -0.258885)
(0.181491 0 -0.301831)
(0.303727 0 -0.188464)
(0.197041 0 -0.223304)
(0.322481 0 -0.129571)
(0.208819 0 -0.158044)
(0.336332 0 -0.0798924)
(0.217462 0 -0.103207)
(0.345646 0 -0.0379459)
(0.223402 0 -0.0567834)
(0.351532 0 -0.00255558)
(0.226898 0 -0.0182513)
(0.353968 0 0.0266013)
(0.227388 0 0.0150386)
(0.352621 0 0.0483702)
(0.225475 0 0.0422389)
(0.350241 0 0.0620294)
(0.222185 0 0.0594254)
(0.348302 0 0.0681152)
(0.219893 0 0.0679621)
(0.347608 0 0.067691)
(0.219038 0 0.0693153)
(0.348414 0 0.0620918)
(0.219248 0 0.0649983)
(0.350553 0 0.0528568)
(0.219727 0 0.0566388)
(0.35353 0 0.0416885)
(0.219345 0 0.0459556)
(0.356574 0 0.0303871)
(0.216879 0 0.0347779)
(0.358539 0 0.0206271)
(0.211552 0 0.0250118)
(0.358133 0 0.0135017)
(0.203175 0 0.0180511)
(0.354419 0 0.00921635)
(0.192146 0 0.0141951)
(0.34713 0 0.00716906)
(0.178927 0 0.0127105)
(0.336883 0 0.00641214)
(0.164494 0 0.012289)
(0.324553 0 0.00620117)
(0.149395 0 0.0120842)
(0.310984 0 0.00620652)
(0.134042 0 0.0118146)
(0.296644 0 0.00639935)
(0.118849 0 0.0116341)
(0.281794 0 0.006885)
(0.103823 0 0.0116906)
(0.267032 0 0.00746607)
(0.0887406 0 0.0118364)
(0.0729323 0 0.0109368)
(0.0531253 0 -0.72122)
(0.01184 0 -0.780612)
(0.079184 0 -0.603214)
(0.0417306 0 -0.672973)
(0.0908236 0 -0.47097)
(0.0241851 0 -0.524649)
(0.0975377 0 -0.361198)
(0.020503 0 -0.403255)
(0.101307 0 -0.271554)
(0.00768964 0 -0.305186)
(0.103283 0 -0.197605)
(-0.0031255 0 -0.225021)
(0.103997 0 -0.135949)
(-0.0135532 0 -0.15865)
(0.103795 0 -0.0840359)
(-0.0229419 0 -0.103039)
(0.102827 0 -0.040358)
(-0.0310914 0 -0.0560008)
(0.0999469 0 -0.00304407)
(-0.0386367 0 -0.0159762)
(0.0951605 0 0.0289239)
(-0.050785 0 0.0187298)
(0.0908581 0 0.0523497)
(-0.0548845 0 0.0454786)
(0.0884258 0 0.0652701)
(-0.05962 0 0.0612137)
(0.0879913 0 0.0695891)
(-0.0626037 0 0.068274)
(0.0887771 0 0.0673469)
(-0.0651641 0 0.0687645)
(0.0894286 0 0.0604479)
(-0.0686853 0 0.0645524)
(0.0882608 0 0.0507503)
(-0.0744799 0 0.0574191)
(0.0833834 0 0.0401665)
(-0.0836213 0 0.0491376)
(0.0733085 0 0.0306206)
(-0.096768 0 0.0411955)
(0.0580305 0 0.0236286)
(-0.11375 0 0.0345138)
(0.0388205 0 0.0197619)
(-0.133489 0 0.0297165)
(0.0176189 0 0.0184519)
(-0.154402 0 0.0267657)
(-0.0034223 0 0.0182825)
(-0.175265 0 0.0248914)
(-0.0232193 0 0.0180577)
(-0.194699 0 0.023479)
(-0.0413568 0 0.017507)
(-0.212356 0 0.022094)
(-0.0580209 0 0.0169174)
(-0.228236 0 0.0207941)
(-0.0736198 0 0.0166699)
(-0.242414 0 0.0198411)
(-0.0886224 0 0.0165889)
(-0.255373 0 0.0193974)
(-0.10266 0 0.0153185)
(-0.267857 0 0.0188771)
(-0.278987 0 0.0166424)
(0.00723202 0 -0.737969)
(-0.0149439 0 -0.787695)
(-0.0113569 0 -0.599362)
(-0.0284276 0 -0.655196)
(-0.0391872 0 -0.459234)
(-0.0914918 0 -0.498663)
(-0.0669033 0 -0.348169)
(-0.134419 0 -0.377987)
(-0.0937955 0 -0.258649)
(-0.181336 0 -0.281248)
(-0.118308 0 -0.185855)
(-0.222252 0 -0.203717)
(-0.139935 0 -0.125869)
(-0.258479 0 -0.140298)
(-0.158493 0 -0.0754382)
(-0.289714 0 -0.0876628)
(-0.174959 0 -0.0315052)
(-0.316133 0 -0.0426802)
(-0.192098 0 0.00668957)
(-0.339585 0 -0.00243874)
(-0.204532 0 0.0361333)
(-0.357935 0 0.0283195)
(-0.210432 0 0.0552258)
(-0.365986 0 0.0499213)
(-0.214423 0 0.0655936)
(-0.373489 0 0.0641474)
(-0.218623 0 0.0690778)
(-0.380016 0 0.0712892)
(-0.224645 0 0.0676157)
(-0.387527 0 0.072985)
(-0.233715 0 0.0629459)
(-0.397281 0 0.0707598)
(-0.246492 0 0.0566282)
(-0.409933 0 0.0659559)
(-0.262859 0 0.0500041)
(-0.425459 0 0.0598156)
(-0.282088 0 0.0440289)
(-0.443359 0 0.0534443)
(-0.303212 0 0.0391652)
(-0.462895 0 0.0476516)
(-0.325016 0 0.0354671)
(-0.483123 0 0.0429571)
(-0.346297 0 0.0326897)
(-0.503118 0 0.0393835)
(-0.3662 0 0.0303931)
(-0.522147 0 0.0364134)
(-0.383997 0 0.0282095)
(-0.539424 0 0.0335386)
(-0.39943 0 0.0261023)
(-0.554503 0 0.030611)
(-0.412599 0 0.0243067)
(-0.567158 0 0.0278905)
(-0.423902 0 0.0229922)
(-0.57763 0 0.0257878)
(-0.433638 0 0.0218186)
(-0.586581 0 0.0243986)
(-0.441893 0 0.0201336)
(-0.594616 0 0.0230172)
(-0.600375 0 0.021075)
(-0.0412127 0 -0.706081)
(-0.0476988 0 -0.74733)
(-0.108955 0 -0.552748)
(-0.107676 0 -0.590415)
(-0.178368 0 -0.41296)
(-0.217101 0 -0.43385)
(-0.245499 0 -0.30529)
(-0.303399 0 -0.316787)
(-0.306645 0 -0.22068)
(-0.386177 0 -0.22682)
(-0.360759 0 -0.153039)
(-0.458146 0 -0.156685)
(-0.40781 0 -0.0976007)
(-0.519737 0 -0.100371)
(-0.448243 0 -0.0509909)
(-0.571583 0 -0.0541624)
(-0.482672 0 -0.0113723)
(-0.615023 0 -0.0148282)
(-0.506864 0 0.0203938)
(-0.647826 0 0.01667)
(-0.522343 0 0.0437783)
(-0.667369 0 0.0402568)
(-0.533312 0 0.0601601)
(-0.681804 0 0.0581815)
(-0.542131 0 0.0703078)
(-0.692995 0 0.0706312)
(-0.551071 0 0.0749729)
(-0.702798 0 0.0777065)
(-0.561524 0 0.0754341)
(-0.712921 0 0.0803115)
(-0.574117 0 0.0728169)
(-0.724387 0 0.0793777)
(-0.588845 0 0.0681454)
(-0.737538 0 0.0757969)
(-0.605295 0 0.062441)
(-0.752192 0 0.0705474)
(-0.622935 0 0.0566571)
(-0.767972 0 0.0646811)
(-0.641332 0 0.0515021)
(-0.784551 0 0.0590933)
(-0.659974 0 0.0472309)
(-0.801595 0 0.0542772)
(-0.678132 0 0.043584)
(-0.818631 0 0.05015)
(-0.695015 0 0.0400761)
(-0.834988 0 0.0461872)
(-0.709871 0 0.0364335)
(-0.849819 0 0.0419357)
(-0.722245 0 0.0328189)
(-0.86239 0 0.03744)
(-0.732178 0 0.0296812)
(-0.872391 0 0.0332429)
(-0.7401 0 0.0273092)
(-0.880142 0 0.0299554)
(-0.7465 0 0.0254573)
(-0.886463 0 0.0276866)
(-0.752196 0 0.0237548)
(-0.891904 0 0.0258741)
(-0.895237 0 0.0244096)
(-0.096479 0 -0.625119)
(-0.0885924 0 -0.652835)
(-0.214999 0 -0.462179)
(-0.198412 0 -0.477073)
(-0.331819 0 -0.327558)
(-0.359487 0 -0.324773)
(-0.439844 0 -0.228945)
(-0.489702 0 -0.218304)
(-0.534901 0 -0.155118)