/*--------------------------------*- C++ -*----------------------------------*\
  =========                 |
  \\      /  F ield         | OpenFOAM: The Open Source CFD Toolbox
   \\    /   O peration     | Website:  https://openfoam.org
    \\  /    A nd           | Version:  dev
     \\/     M anipulation  |
\*---------------------------------------------------------------------------*/
FoamFile
{
    version     2.0;
    format      ascii;
    class       surfaceScalarField;
    location    "1.4";
    object      phi;
}
// * * * * * * * * * * * * * * * * * * * * * * * * * * * * * * * * * * * * * //

dimensions      [0 3 -1 0 0 0 0];

internalField   nonuniform List<scalar> 
5457
(
0.198418
0.00158234
0.19648
0.00193749
0.194192
0.00228858
0.191507
0.00268466
0.188424
0.00308305
0.184944
0.00347957
0.181062
0.00388249
0.176763
0.00429918
0.172028
0.00473472
0.166835
0.00519312
0.161157
0.00567782
0.154965
0.00619173
0.148228
0.00673698
0.140914
0.00731453
0.13299
0.00792367
0.124429
0.00856133
0.115208
0.00922111
0.105315
0.00989229
0.0947569
0.0105585
0.0835603
0.0111965
0.0717849
0.0117755
0.0595287
0.0122561
0.0469361
0.0125927
0.0341963
0.0127398
0.0215052
0.0126911
0.00885449
0.0126507
-0.00295693
0.0118114
-0.00840152
0.00544459
-0.00796411
-0.00043741
-0.00796411
0.199928
0.00165414
0.199176
0.00269007
0.197964
0.00350006
0.19633
0.004319
0.194268
0.00514508
0.191775
0.00597264
0.188844
0.00681365
0.185461
0.00768154
0.181609
0.00858657
0.177265
0.00953696
0.172403
0.0105399
0.166994
0.0116016
0.161004
0.0127267
0.154401
0.0139177
0.14715
0.0151742
0.139221
0.0164907
0.130586
0.0178559
0.121229
0.0192494
0.111148
0.0206397
0.100363
0.0219816
0.0889252
0.023213
0.0769276
0.0242537
0.064516
0.0250043
0.0519084
0.0253474
0.0394567
0.0251428
0.027937
0.0241704
0.0183781
0.0213704
0.00852424
0.0152984
0.00103693
0.0070499
-0.00692718
0.199781
0.00187354
0.199087
0.00338405
0.197945
0.00464149
0.196408
0.00585668
0.19448
0.00707301
0.192158
0.00829439
0.189437
0.00953483
0.186306
0.0108119
0.182752
0.0121406
0.178756
0.0135332
0.174295
0.0150007
0.169344
0.0165526
0.163874
0.0181965
0.157855
0.0199373
0.151253
0.0217758
0.144037
0.0237068
0.136177
0.0257163
0.127648
0.0277785
0.118436
0.0298517
0.108543
0.0318738
0.0979989
0.0337576
0.0868664
0.0353861
0.0752634
0.0366073
0.0633856
0.0372252
0.0515505
0.036978
0.040229
0.0354918
0.029562
0.0320374
0.0190403
0.0258201
0.0094791
0.0166111
0.00255192
0.199703
0.00217044
0.199008
0.00407951
0.197887
0.00576255
0.196375
0.00736869
0.194485
0.00896296
0.192216
0.0105631
0.189565
0.0121862
0.186524
0.0138527
0.183083
0.0155809
0.17923
0.0173867
0.174947
0.0192838
0.170215
0.0212843
0.165013
0.0233982
0.159318
0.0256323
0.153105
0.027989
0.146348
0.0304639
0.139021
0.0330429
0.131102
0.035698
0.122571
0.0383828
0.113418
0.041026
0.103651
0.0435245
0.093301
0.0457366
0.082435
0.0474732
0.0711722
0.0484881
0.0596861
0.0484641
0.0481749
0.047003
0.0366843
0.043528
0.0250963
0.0374081
0.0132899
0.0284175
0.0158419
0.199667
0.00250302
0.198964
0.00478296
0.197862
0.00686445
0.196379
0.00885154
0.194529
0.0108137
0.192311
0.0127806
0.189723
0.0147739
0.18676
0.0168162
0.183412
0.0189287
0.179669
0.0211296
0.175518
0.0234349
0.170944
0.0258585
0.165931
0.0284117
0.16046
0.0311028
0.154514
0.0339351
0.148073
0.036905
0.141117
0.039999
0.133625
0.0431895
0.125579
0.0464289
0.116962
0.0496435
0.107762
0.0527247
0.0979779
0.0555203
0.0876261
0.057825
0.0767421
0.0593721
0.0653791
0.0598271
0.0535917
0.0587904
0.0413555
0.0557643
0.028516
0.0502475
0.0148151
0.0421184
0.030657
0.199653
0.00285023
0.198949
0.00548725
0.19787
0.00794305
0.196424
0.010297
0.194622
0.0126157
0.192466
0.0149371
0.189952
0.0172876
0.187076
0.0196922
0.183831
0.0221743
0.180206
0.0247543
0.176191
0.0274499
0.171773
0.0302765
0.166938
0.0332466
0.161672
0.0363692
0.155958
0.0396486
0.149781
0.043082
0.143123
0.046657
0.135965
0.0503476
0.128285
0.0541086
0.12006
0.057869
0.111261
0.061523
0.101861
0.0649208
0.0918278
0.0678581
0.0811316
0.0700684
0.0697405
0.0712181
0.0576169
0.070914
0.0446782
0.068703
0.0307902
0.0641355
0.015843
0.0570656
0.0465
0.19965
0.00320021
0.198954
0.00618351
0.197903
0.00899341
0.196502
0.0116981
0.194758
0.0143602
0.192673
0.0170223
0.190245
0.0197155
0.18747
0.0224674
0.184341
0.0253031
0.18085
0.0282452
0.176987
0.031313
0.17274
0.0345231
0.168097
0.0378895
0.163045
0.041422
0.157567
0.0451261
0.151649
0.0490004
0.145271
0.0530347
0.138413
0.057206
0.131047
0.0614741
0.123141
0.0657748
0.114652
0.0700123
0.105524
0.0740483
0.0956899
0.0776926
0.0850662
0.0806921
0.0735589
0.0827254
0.061067
0.0834059
0.0474791
0.0822908
0.0327053
0.0789094
0.0167557
0.0730152
0.0632556
0.199655
0.00354562
0.198974
0.00686396
0.197958
0.01001
0.196607
0.0130483
0.194929
0.0160386
0.192925
0.0190263
0.190594
0.0220462
0.187933
0.0251285
0.184936
0.0283003
0.181595
0.0315859
0.177902
0.0350061
0.173846
0.0385794
0.169414
0.0423207
0.164595
0.0462418
0.159371
0.0503495
0.153727
0.054645
0.14764
0.0591213
0.141085
0.0637607
0.134029
0.0685304
0.126427
0.0733772
0.118219
0.07822
0.109327
0.0829404
0.0996485
0.0873709
0.0890577
0.0912829
0.0774081
0.094375
0.064547
0.0962669
0.0503376
0.0965002
0.0347126
0.0945344
0.0177613
0.0899664
0.081017
0.199664
0.00388154
0.199006
0.00752218
0.198029
0.0109872
0.196736
0.0143414
0.195131
0.0176432
0.193217
0.0209398
0.190995
0.0242691
0.18846
0.0276635
0.185608
0.0311521
0.182433
0.0347608
0.178927
0.0385122
0.17508
0.0424262
0.170881
0.0465196
0.166317
0.0508059
0.161372
0.0552946
0.156026
0.0599904
0.150257
0.064891
0.144032
0.0699857
0.13731
0.075252
0.130036
0.0806512
0.122134
0.0861219
0.113503
0.0915718
0.104009
0.0968652
0.093483
0.101808
0.0817276
0.10613
0.0685314
0.109463
0.0537078
0.111324
0.0371707
0.111071
0.0190494
0.108088
0.100066
0.199677
0.00420444
0.199046
0.00815289
0.198114
0.0119196
0.196884
0.0155715
0.19536
0.019167
0.193546
0.0227545
0.19144
0.0263743
0.189043
0.0300611
0.186349
0.0338458
0.183354
0.0377557
0.180051
0.0418151
0.176432
0.0460455
0.172486
0.0504656
0.1682
0.0550914
0.16356
0.0599356
0.158543
0.0650069
0.153124
0.0703095
0.147269
0.0758415
0.140928
0.0815929
0.134036
0.0875424
0.126505
0.0936533
0.118211
0.0998655
0.108992
0.106085
0.0986356
0.112165
0.086883
0.117883
0.0734414
0.122905
0.0580282
0.126737
0.0404666
0.128633
0.020857
0.127697
0.120923
0.199693
0.00451168
0.199094
0.00875183
0.198211
0.0128023
0.197049
0.0167332
0.195613
0.0206034
0.193905
0.0244626
0.191926
0.0283531
0.189676
0.0323114
0.187152
0.0363699
0.18435
0.0405575
0.181265
0.0448999
0.17789
0.0494204
0.174216
0.0541396
0.170231
0.0590761
0.165921
0.064246
0.161264
0.0696633
0.156235
0.0753389
0.150795
0.0812811
0.144894
0.0874939
0.13846
0.0939764
0.131394
0.10072
0.123558
0.107702
0.114762
0.11488
0.104754
0.122173
0.0932036
0.129434
0.079705
0.136403
0.0638077
0.142634
0.0451185
0.147322
0.02355
0.149266
0.144473
0.19971
0.00480119
0.199147
0.00931547
0.198318
0.0136312
0.197229
0.0178217
0.195886
0.0219469
0.194291
0.0260577
0.192446
0.0301978
0.190352
0.0344055
0.188008
0.0387145
0.18541
0.0431549
0.182556
0.0477538
0.179441
0.0525359
0.176056
0.057524
0.172393
0.0627391
0.168438
0.068201
0.164173
0.0739286
0.159572
0.0799402
0.154599
0.0862542
0.149203
0.0928897
0.143313
0.0998665
0.136827
0.107206
0.129601
0.114928
0.121431
0.12305
0.112029
0.131574
0.100997
0.140466
0.0877912
0.14961
0.0717054
0.15872
0.051923
0.167105
0.0277962
0.173393
0.17227
0.19973
0.00507136
0.199204
0.00984096
0.198433
0.0144026
0.197422
0.0188327
0.196176
0.0231925
0.1947
0.0275339
0.192996
0.0319019
0.191066
0.036336
0.188909
0.040871
0.186526
0.045538
0.183914
0.0503654
0.181071
0.0553791
0.177992
0.0606036
0.174669
0.0660621
0.171092
0.0717778
0.167246
0.0777741
0.16311
0.0840761
0.158653
0.0907118
0.153829
0.0977139
0.148573
0.105122
0.142792
0.112987
0.136349
0.121371
0.129046
0.130353
0.120587
0.140033
0.110531
0.150522
0.0982077
0.161933
0.0826027
0.174325
0.0622013
0.187506
0.0349897
0.200604
0.207259
0.19975
0.00532093
0.199265
0.010326
0.198554
0.0151136
0.197624
0.0197628
0.196481
0.0243362
0.195128
0.0288865
0.19357
0.0334599
0.191809
0.0380966
0.189848
0.0428323
0.187687
0.047699
0.185327
0.0527256
0.182767
0.0579393
0.180005
0.0633656
0.177037
0.0690297
0.173858
0.0749572
0.170457
0.0811752
0.166818
0.0877143
0.16292
0.0946101
0.158728
0.101906
0.154191
0.109659
0.149236
0.117942
0.143753
0.126854
0.137576
0.13653
0.130448
0.14716
0.121959
0.159011
0.111419
0.172473
0.097606
0.188138
0.0781933
0.206919
0.0484476
0.23035
0.255707
0.199772
0.00554894
0.199329
0.0107688
0.198681
0.0157617
0.197835
0.0206091
0.196796
0.0253746
0.195571
0.0301119
0.194163
0.0348675
0.192577
0.0396825
0.190817
0.0445931
0.188884
0.0496316
0.186782
0.0548276
0.184513
0.0602084
0.182078
0.0658006
0.179477
0.0716302
0.17671
0.0777245
0.173772
0.0841131
0.170657
0.0908296
0.167353
0.0979145
0.16384
0.105419
0.160092
0.113408
0.156064
0.12197
0.151692
0.131226
0.146877
0.141345
0.141463
0.152574
0.13519
0.165284
0.127595
0.180069
0.117745
0.197988
0.103407
0.221256
0.0773119
0.256445
0.333019
0.0107228
-0.0107228
0.0192596
-0.00853674
0.026297
-0.00703741
0.0322989
-0.00600191
0.0374943
-0.00519545
0.041999
-0.00450467
0.0458938
-0.00389484
0.0492447
-0.00335082
0.0521022
-0.00285752
0.0544991
-0.00239694
0.0564376
-0.00193851
0.0577918
-0.00135412
0.0583367
-0.00054498
0.0579084
0.000428352
0.0566372
0.00127122
0.0546789
0.00195825
0.052208
0.00247095
0.0494044
0.00280359
0.0464735
0.0029309
0.0436102
0.00286325
0.0409929
0.00261734
0.0387883
0.00220462
0.0371613
0.00162698
0.0362481
0.000913144
0.0360579
0.000190266
0.0368283
-0.000770375
0.0391042
-0.00227598
0.0434805
-0.00437626
0.0503094
-0.00682894
-0.00862953
0.00706202
-0.0177849
0.0135736
-0.0150483
0.0190841
-0.0125479
0.0237197
-0.0106375
0.0276401
-0.00911584
0.0309057
-0.00777026
0.0335276
-0.00651673
0.0354765
-0.00529972
0.0366586
-0.00403964
0.0368593
-0.00259766
0.0358285
-0.000907678
0.0337168
0.000757518
0.0310444
0.00212745
0.0281011
0.00337169
0.0248817
0.00449056
0.0214572
0.00538276
0.0179375
0.00599073
0.0144883
0.00625269
0.0112282
0.00619109
0.00831282
0.00577859
0.00588104
0.00504912
0.00404109
0.00404456
0.00288065
0.00278742
0.00250768
0.00128611
0.00303547
-0.00033753
0.00474868
-0.00248358
0.00778261
-0.00530991
0.0119849
-0.00857852
0.0178654
-0.0127095
-0.0148889
0.00386288
-0.0216477
0.00755077
-0.0187362
0.0106347
-0.0156319
0.0130621
-0.0130649
0.0148355
-0.0108893
0.0159175
-0.00885232
0.0162365
-0.0068357
0.0156953
-0.00475855
0.0141857
-0.00253001
0.01187
-0.00028199
0.00926583
0.00169653
0.00657606
0.00344729
0.00362243
0.00508108
0.000461699
0.00653242
-0.00277783
0.00773009
-0.00601374
0.00861868
-0.00915993
0.00913691
-0.0121355
0.00922831
-0.0148233
0.00887881
-0.0171331
0.00808846
-0.0189709
0.00688684
-0.0202463
0.00532001
-0.0208896
0.00343076
-0.0208429
0.00123933
-0.0199041
-0.00127627
-0.0181172
-0.00427049
-0.0156369
-0.00779024
-0.0124686
-0.0117468
-0.00930304
-0.0158751
-0.0185501
0.000961862
-0.0226096
0.00182329
-0.0195976
0.00226211
-0.0160707
0.00229932
-0.0131021
0.00172913
-0.0103191
0.00052821
-0.00765141
-0.00128467
-0.00502281
-0.00363232
-0.00241091
-0.00621197
4.96382e-05
-0.00875116
0.00225721
-0.0113686
0.004314
-0.0141708
0.00624942
-0.0170916
0.00800195
-0.020066
0.00950681
-0.0230296
0.0106936
-0.0259091
0.0114982
-0.0286315
0.0118593
-0.0311306
0.0117275
-0.0333341
0.0110823
-0.0351723
0.00992667
-0.0365753
0.00828975
-0.0374758
0.00622055
-0.0378186
0.00377355
-0.0375589
0.00097964
-0.0366473
-0.00218788
-0.0351563
-0.00576143
-0.0332553
-0.00969127
-0.0311416
-0.0138605
-0.0290977
-0.0179189
-0.0210619
-0.00158325
-0.0210263
-0.00336977
-0.0178111
-0.00527639
-0.0141641
-0.00745671
-0.0109218
-0.00990206
-0.00787371
-0.0125856
-0.00496791
-0.0154494
-0.00215898
-0.0182848
0.000424483
-0.0210226
0.00278741
-0.023772
0.00500669
-0.0265837
0.00712564
-0.0294236
0.00908931
-0.0322554
0.0108337
-0.0350382
0.0122896
-0.0377295
0.0133849
-0.0402822
0.0140509
-0.0426485
0.0142256
-0.0447825
0.0138615
-0.0466354
0.0129352
-0.0481574
0.0114486
-0.0492978
0.00943017
-0.0500086
0.00693127
-0.0502505
0.00401549
-0.0499999
0.000729076
-0.0492766
-0.00291122
-0.0481706
-0.00686737
-0.0468323
-0.0110296
-0.045448
-0.0152448
-0.0441139
-0.0192531
-0.022509
-0.00380609
-0.0172203
-0.00769367
-0.0139235
-0.0114601
-0.0103976
-0.0151754
-0.0072065
-0.0188199
-0.00422921
-0.0223775
-0.00141031
-0.0256728
0.00113631
-0.0287525
0.00350422
-0.0317365
0.00577144
-0.0346801
0.0079502
-0.0375634
0.010009
-0.0403698
0.0118957
-0.0430818
0.0135458
-0.0456795
0.0148873
-0.0481406
0.015846
-0.0504395
0.0163499
-0.0525489
0.016335
-0.0544399
0.0157525
-0.0560799
0.0145752
-0.0574333
0.012802
-0.0584622
0.0104591
-0.0591301
0.00759916
-0.059408
0.00429346
-0.0592907
0.000611716
-0.0588212
-0.00338072
-0.058095
-0.00759358
-0.0572416
-0.011883
-0.056403
-0.0160834
-0.0556388
-0.0200173
-0.0231925
-0.00556178
-0.0116585
-0.0109953
-0.00849002
-0.0160869
-0.00530594
-0.0208309
-0.00246252
-0.0251664
0.000106253
-0.0290545
0.00247784
-0.032616
0.00469777
-0.0359713
0.00685953
-0.0391612
0.00896135
-0.0421954
0.0109844
-0.0450784
0.0128919
-0.0478127
0.01463
-0.0503991
0.0161321
-0.0528358
0.0173241
-0.0551181
0.0181282
-0.0572374
0.0184692
-0.0591818
0.0182794
-0.0609347
0.0175054
-0.0624744
0.0161149
-0.0637737
0.0141013
-0.0648022
0.0114876
-0.0655295
0.00832649
-0.0659333
0.00469729
-0.0660176
0.000696014
-0.0658335
-0.00356487
-0.0654731
-0.00795395
-0.0650451
-0.012311
-0.0646587
-0.0164698
-0.0643792
-0.0202968
-0.0233145
-0.00682169
-0.0048368
-0.0133776
-0.00193412
-0.0192113
0.000527827
-0.0243963
0.00272248
-0.0290213
0.00473124
-0.033194
0.00665055
-0.0370306
0.00853429
-0.0405682
0.0103971
-0.0438412
0.0122344
-0.0468785
0.0140217
-0.0497038
0.0157172
-0.0523374
0.0172636
-0.0547964
0.0185912
-0.0570946
0.0196222
-0.0592415
0.0202752
-0.0612421
0.0204698
-0.0630953
0.0201326
-0.0647936
0.0192037
-0.0663216
0.0176429
-0.0676566
0.0154363
-0.068771
0.0126019
-0.0696363
0.00919179
-0.0702319
0.00529288
-0.0705631
0.0010273
-0.0706803
-0.0034477
-0.0706716
-0.00796271
-0.0706297
-0.0123528
-0.0706436
-0.0164559
-0.0707867
-0.0201537
-0.0229875
-0.00751521
0.00267841
-0.0145047
0.00505536
-0.0206791
0.00670222
-0.0261572
0.00820064
-0.031054
0.00962802
-0.0354458
0.0110423
-0.0393961
0.0124845
-0.0429642
0.0139653
-0.0462026
0.0154728
-0.0491571
0.0169762
-0.0518674
0.0184276
-0.0543687
0.0197649
-0.0566917
0.0209142
-0.0588628
0.0217933
-0.0609029
0.0223153
-0.0628269
0.0223938
-0.064642
0.0219477
-0.0663465
0.0209081
-0.0679286
0.019225
-0.0693675
0.0168753
-0.0706359
0.0138702
-0.0717047
0.0102606
-0.0725515
0.00613966
-0.0731749
0.00165078
-0.0736145
-0.00300816
-0.0739527
-0.00762453
-0.074276
-0.0120295
-0.0746609
-0.0160709
-0.0751829
-0.0196317
-0.0222844
-0.00767195
0.0103504
-0.0148044
0.0121878
-0.0211877
0.0130856
-0.0268308
0.0138438
-0.0317969
0.0145941
-0.0361745
0.01542
-0.0400468
0.0163568
-0.0434903
0.0174088
-0.046573
0.0185555
-0.0493542
0.0197574
-0.051886
0.0209593
-0.0542146
0.0220935
-0.0563815
0.0230811
-0.0584228
0.0238346
-0.0603687
0.0242611
-0.0622415
0.0242666
-0.0640545
0.0237608
-0.0658101
0.0226638
-0.0674986
0.0209135
-0.0690986
0.0184753
-0.0705805
0.0153521
-0.071912
0.0115921
-0.0730659
0.00729356
-0.0740304
0.00261526
-0.0748233
-0.0022152
-0.0755163
-0.00693161
-0.0761987
-0.0113471
-0.076941
-0.0153286
-0.0778159
-0.0187568
-0.0212439
-0.00768675
0.0180371
-0.0148942
0.0193953
-0.0212536
0.019445
-0.0267663
0.0193564
-0.0315265
0.0193542
-0.035651
0.0195445
-0.0392458
0.0199517
-0.0424034
0.0205664
-0.0452033
0.0213554
-0.0477136
0.0222677
-0.0499941
0.0232398
-0.0520988
0.0241982
-0.0540767
0.025059
-0.0559717
0.0257296
-0.057821
0.0261104
-0.0596536
0.0260992
-0.0614879
0.025595
-0.0633293
0.0245052
-0.065169
0.0227532
-0.0669833
0.0202896
-0.0687371
0.0171059
-0.0703904
0.0132454
-0.0719073
0.00881044
-0.073264
0.00397193
-0.0744522
-0.00102702
-0.0755222
-0.00586155
-0.0765707
-0.0102986
-0.0776706
-0.0142288
-0.0788896
-0.0175377
-0.0198771
-0.00783205
0.0258692
-0.015029
0.0265922
-0.0211269
0.0255428
-0.0262045
0.0244341
-0.0304656
0.0236153
-0.0340869
0.0231658
-0.0371977
0.0230624
-0.039902
0.0232707
-0.0422859
0.0237393
-0.0444204
0.0244021
-0.0463677
0.0251872
-0.0481856
0.0260161
-0.0499284
0.0268018
-0.0516457
0.0274469
-0.053381
0.0278458
-0.0551691
0.0278873
-0.0570332
0.0274591
-0.0589817
0.0264537
-0.0610056
0.0247771
-0.0630771
0.0223612
-0.0651539
0.0191827
-0.0671867
0.0152782
-0.0691283
0.0107521
-0.0709393
0.00578295
-0.0725964
0.000630062
-0.0740996
-0.00435837
-0.0755382
-0.00885991
-0.0770113
-0.0127557
-0.0785827
-0.0159663
-0.0181749
-0.00830384
0.034173
-0.0155208
0.0338093
-0.0210887
0.0311106
-0.0253586
0.028704
-0.028788
0.0270447
-0.0316437
0.0260216
-0.0340595
0.0254782
-0.0361403
0.0253515
-0.0379721
0.0255711
-0.0396207
0.0260507
-0.0411443
0.0267108
-0.0426009
0.0274728
-0.0440479
0.0282488
-0.04554
0.0289389
-0.0471265
0.0294323
-0.0488485
0.0296092
-0.0507346
0.0293452
-0.0527972
0.0285164
-0.0550279
0.0270078
-0.0573946
0.0247279
-0.0598459
0.021634
-0.0623212
0.0177535
-0.0647592
0.01319
-0.0671061
0.00812988
-0.0693193
0.00284331
-0.0713477
-0.00232998
-0.0732321
-0.00697556
-0.0751101
-0.0108777
-0.07706
-0.0140164
-0.0161114
-0.0094707
0.0436437
-0.0169111
0.0412497
-0.0215173
0.0357167
-0.0244137
0.0316004
-0.0266058
0.0292368
-0.0284365
0.0278522
-0.0299524
0.0269941
-0.0312422
0.0266413
-0.0323892
0.0267181
-0.033441
0.0271026
-0.0344436
0.0277133
-0.0354527
0.0284819
-0.0365281
0.0293241
-0.037729
0.0301398
-0.0391114
0.0308148
-0.0407241
0.0312219
-0.0426042
0.0312252
-0.0447711
0.0306833
-0.0472211
0.0294578
-0.0499201
0.0274269
-0.0528073
0.0245212
-0.0558088
0.020755
-0.0588427
0.0162239
-0.0618237
0.0111109
-0.0646814
0.00570104
-0.0673459
0.000334539
-0.0697766
-0.00454482
-0.0721059
-0.00854841
-0.0744831
-0.0116392
-0.0136459
-0.0122104
0.0558541
-0.0202117
0.049251
-0.0229614
0.0384664
-0.0234518
0.0320909
-0.023913
0.029698
-0.0245359
0.028475
-0.0249739
0.0274322
-0.0253133
0.0269807
-0.0256567
0.0270615
-0.0260074
0.0274533
-0.026387
0.0280929
-0.0268514
0.0289463
-0.0274628
0.0299356
-0.0282853
0.0309623
-0.0293829
0.0319124
-0.030814
0.032653
-0.0326286
0.0330398
-0.034859
0.0329136
-0.0375125
0.0321113
-0.0405562
0.0304706
-0.0439177
0.0278827
-0.0475072
0.0243445
-0.0512223
0.0199389
-0.0549407
0.0148293
-0.0585754
0.0093358
-0.0620562
0.00381528
-0.0652385
-0.00136255
-0.068141
-0.00564588
-0.07102
-0.00876024
-0.0107255
0.207447
0.00576207
0.207033
0.0111823
0.206429
0.0163661
0.205641
0.0213966
0.204677
0.0263383
0.203544
0.0312455
0.202246
0.0361653
0.20079
0.0411388
0.19918
0.0462026
0.197423
0.0513891
0.195523
0.0567277
0.193485
0.062246
0.191315
0.0679704
0.189018
0.0739273
0.186598
0.0801442
0.18406
0.0866513
0.181407
0.0934832
0.178639
0.100682
0.175759
0.108299
0.172763
0.116403
0.169649
0.125084
0.166413
0.134462
0.16305
0.144708
0.159564
0.15606
0.15598
0.168868
0.152396
0.183653
0.149184
0.2012
0.148032
0.222407
0.159742
0.244735
0.257436
0.235325
0.21249
0.0059549
0.212116
0.0115563
0.211571
0.0169117
0.210861
0.0221057
0.209996
0.0272036
0.208982
0.0322597
0.207826
0.0373212
0.206535
0.0424294
0.205118
0.0476205
0.20358
0.0529266
0.201931
0.0583767
0.200179
0.0639978
0.198334
0.0698154
0.196406
0.0758553
0.194406
0.082144
0.192348
0.0887102
0.190244
0.0955868
0.188113
0.102813
0.185975
0.110437
0.18386
0.118519
0.181806
0.127137
0.179876
0.136392
0.178168
0.146416
0.176853
0.157375
0.176254
0.169467
0.177024
0.182883
0.180579
0.197646
0.189518
0.213468
0.204851
0.229402
0.244486
0.217801
0.217657
0.0061253
0.217327
0.0118864
0.216846
0.0173925
0.216223
0.0227289
0.215466
0.027961
0.214582
0.0331434
0.21358
0.0383228
0.212469
0.0435402
0.211259
0.0488311
0.209959
0.0542269
0.20858
0.0597555
0.207135
0.0654427
0.205638
0.0713127
0.204104
0.0773891
0.202552
0.083696
0.201003
0.0902591
0.199483
0.0971069
0.198024
0.104272
0.196667
0.111794
0.195468
0.119718
0.194504
0.128101
0.193887
0.137009
0.193787
0.146516
0.194465
0.156697
0.196329
0.167603
0.199985
0.179228
0.206193
0.191437
0.2156
0.204061
0.227893
0.217109
0.227999
0.24438
0.222951
0.00627125
0.222668
0.012169
0.222258
0.017803
0.221728
0.0232589
0.221087
0.028602
0.220344
0.0338864
0.219508
0.0391584
0.21859
0.044458
0.217601
0.0498199
0.216554
0.0552741
0.215463
0.0608471
0.214343
0.0665627
0.213213
0.0724428
0.212094
0.0785082
0.21101
0.0847794
0.209992
0.0912773
0.209075
0.0980237
0.208305
0.105043
0.207738
0.11236
0.207451
0.120005
0.207544
0.128007
0.208157
0.136396
0.20948
0.145193
0.211774
0.154403
0.21538
0.163997
0.22071
0.173897
0.228203
0.183945
0.238411
0.193853
0.252229
0.203291
0.210004
0.270224
0.228374
0.00639091
0.228142
0.0124003
0.227807
0.018138
0.227377
0.023689
0.226861
0.0291184
0.226268
0.0344794
0.225609
0.0398173
0.224896
0.0451712
0.224141
0.0505742
0.223361
0.0560546
0.222571
0.0616371
0.221791
0.0673428
0.221043
0.073191
0.220352
0.0791986
0.21975
0.0853814
0.219273
0.0917545
0.218965
0.0983321
0.21888
0.105128
0.219086
0.112154
0.219671
0.11942
0.220746
0.126933
0.222452
0.13469
0.224972
0.142673
0.228534
0.150842
0.23341
0.159121
0.239923
0.167384
0.248441
0.175426
0.259399
0.182895
0.273254
0.189436
0.193965
0.289292
0.233929
0.00648258
0.233752
0.0125772
0.233497
0.0183927
0.233173
0.0240133
0.232788
0.029503
0.232354
0.034914
0.23188
0.0402904
0.231382
0.0456697
0.230873
0.0510832
0.23037
0.0565575
0.229893
0.0621144
0.229463
0.0677727
0.229106
0.0735477
0.228852
0.0794525
0.228736
0.0854977
0.228799
0.0916917
0.22909
0.0980405
0.22967
0.104547
0.230612
0.111212
0.232005
0.118027
0.233959
0.124979
0.236608
0.132041
0.240111
0.139169
0.244658
0.146295
0.250463
0.153316
0.257762
0.160084
0.266791
0.166397
0.277719
0.171967
0.290629
0.176526
0.179562
0.305032
0.239619
0.00654477
0.2395
0.0126968
0.239329
0.0185631
0.239116
0.0242266
0.238869
0.0297497
0.2386
0.0351834
0.23832
0.0405701
0.238045
0.0459454
0.237789
0.0513389
0.237572
0.0567746
0.237414
0.0622718
0.237341
0.0678461
0.23738
0.0735091
0.237563
0.0792694
0.237928
0.0851323
0.23852
0.0910998
0.239391
0.09717
0.240601
0.103337
0.242225
0.109588
0.244347
0.115905
0.247069
0.122257
0.250507
0.128603
0.254793
0.134883
0.260074
0.141014
0.266502
0.146888
0.274221
0.152365
0.283346
0.157273
0.293915
0.161398
0.305912
0.16453
0.166403
0.319071
0.245448
0.00657619
0.245388
0.0127565
0.245305
0.0186457
0.245208
0.0243243
0.245104
0.0298533
0.245006
0.0352817
0.244925
0.0406503
0.244878
0.0459925
0.244882
0.0513357
0.244955
0.0567013
0.245121
0.0621059
0.245405
0.0675617
0.245838
0.0730767
0.246452
0.0786551
0.247287
0.0842971
0.248388
0.0899987
0.249807
0.0957513
0.251603
0.101541
0.253845
0.107347
0.256609
0.11314
0.259984
0.118882
0.264066
0.124522
0.268955
0.129993
0.274756
0.135213
0.281564
0.14008
0.289457
0.144472
0.298479
0.148252
0.308613
0.151263
0.31979
0.153352
0.154388
0.331805
0.251418
0.00657583
0.251419
0.0127546
0.251428
0.0186376
0.251449
0.0243032
0.251492
0.02981
0.251569
0.0352051
0.251692
0.0405272
0.251877
0.0458074
0.252142
0.0510708
0.252507
0.0563361
0.252996
0.0616171
0.253635
0.0669228
0.254454
0.0722577
0.255487
0.0776217
0.256773
0.0830108
0.258356
0.0884157
0.260285
0.0938226
0.262614
0.0992114
0.265405
0.104556
0.268725
0.109821
0.272644
0.114963
0.277235
0.11993
0.282574
0.124655
0.288725
0.129062
0.295742
0.133062
0.303658
0.136556
0.312472
0.139438
0.322135
0.1416
0.332548
0.142939
0.143397
0.343538
0.257532
0.00654292
0.257597
0.0126894
0.257698
0.018537
0.25784
0.0241608
0.258033
0.0296172
0.258287
0.0349512
0.258615
0.0401987
0.259034
0.0453889
0.25956
0.0505442
0.260215
0.0556809
0.261023
0.0608099
0.262008
0.0659371
0.263202
0.0710639
0.264637
0.0761868
0.26635
0.0812978
0.268382
0.086384
0.270777
0.0914274
0.273584
0.0964043
0.276855
0.101285
0.280644
0.106032
0.285005
0.110602
0.289992
0.114943
0.295653
0.118995
0.302025
0.12269
0.309131
0.125956
0.316971
0.128716
0.325517
0.130893
0.334703
0.132414
0.344426
0.133217
0.133281
0.354542
0.263794
0.00647699
0.263923
0.0125601
0.264117
0.0183425
0.264382
0.0238959
0.264725
0.029274
0.265158
0.0345191
0.265691
0.039665
0.266342
0.0447383
0.267127
0.0497589
0.268067
0.0547407
0.269185
0.059692
0.270506
0.0646162
0.272058
0.0695116
0.273873
0.0743721
0.275984
0.0791868
0.278428
0.0839402
0.281243
0.0886118
0.284472
0.093176
0.288155
0.0976019
0.292333
0.101853
0.297048
0.105887
0.302333
0.109658
0.308215
0.113112
0.314711
0.116194
0.321821
0.118847
0.329524
0.121013
0.337777
0.12264
0.34651
0.123681
0.355625
0.124102
0.123902
0.365004
0.270206
0.00637783
0.2704
0.0123663
0.270689
0.0180539
0.271076
0.0235083
0.27157
0.0287804
0.272179
0.0339099
0.272916
0.038928
0.273795
0.043859
0.274834
0.0487203
0.276051
0.0535236
0.277468
0.0582748
0.279109
0.062975
0.281001
0.0676204
0.28317
0.0722029
0.285647
0.0767095
0.288464
0.0811233
0.291653
0.0854228
0.295247
0.0895821
0.299278
0.093571
0.303775
0.0973555
0.308765
0.100897
0.314268
0.104156
0.320293
0.107087
0.326841
0.109646
0.333897
0.111791
0.341429
0.113481
0.349388
0.114681
0.357704
0.115365
0.36629
0.115516
0.115146
0.375047
0.276773
0.00624553
0.277031
0.0121084
0.277413
0.0176716
0.277923
0.0229989
0.278565
0.0281381
0.279349
0.0331261
0.280285
0.0379917
0.281387
0.0427566
0.282672
0.0474362
0.284155
0.05204
0.285858
0.0565719
0.287802
0.0610313
0.290009
0.0654128
0.292506
0.0697066
0.295316
0.0738992
0.298466
0.077973
0.301982
0.0819065
0.30589
0.085675
0.31021
0.0892505
0.314963
0.0926022
0.320163
0.0956972
0.325818
0.098501
0.331926
0.100979
0.338475
0.103097
0.345441
0.104825
0.352788
0.106134
0.360463
0.107005
0.368403
0.107425
0.376531
0.107388
0.106914
0.384763
0.283498
0.00608046
0.283819
0.0117869
0.284294
0.0171968
0.284923
0.0223697
0.285711
0.02735
0.286666
0.0321719
0.287796
0.0368616
0.289113
0.0414387
0.290633
0.0459166
0.29237
0.0503027
0.294343
0.0545995
0.296569
0.058805
0.299069
0.0629126
0.301864
0.0669122
0.304973
0.0707898
0.308418
0.0745281
0.312218
0.0781069
0.316389
0.0815035
0.320947
0.0846926
0.325902
0.0876478
0.331257
0.0903415
0.337012
0.0927459
0.343157
0.0948345
0.349672
0.0965825
0.356528
0.0979686
0.363686
0.0989763
0.371096
0.0995949
0.3787
0.0998206
0.386431
0.099657
0.099124
0.394221
0.290384
0.00588325
0.290767
0.0114033
0.291332
0.0166316
0.292079
0.0216235
0.293009
0.02642
0.294128
0.0310525
0.295445
0.0355449
0.296969
0.0399146
0.298713
0.0441729
0.300689
0.048326
0.302914
0.052375
0.305402
0.056317
0.308169
0.060145
0.311233
0.0638486
0.314608
0.0674143
0.31831
0.070826
0.322352
0.0740651
0.326744
0.0771114
0.331494
0.0799432
0.336603
0.0825384
0.34207
0.0848746
0.347886
0.0869305
0.354034
0.0886863
0.360491
0.0901252
0.367226
0.0912335
0.3742
0.0920026
0.381366
0.0924287
0.388673
0.0925142
0.396062
0.0922672
0.0917083
0.403478
0.297434
0.00565474
0.297879
0.010959
0.298532
0.0159785
0.299391
0.020764
0.300458
0.0253531
0.301736
0.0297746
0.303231
0.03405
0.304951
0.0381945
0.306906
0.0422181
0.309106
0.0461255
0.311564
0.049917
0.314292
0.0535892
0.317302
0.057135
0.320606
0.0605443
0.324216
0.0638047
0.32814
0.0669015
0.332387
0.0698183
0.336961
0.0725377
0.341863
0.0750416
0.347089
0.0773122
0.352631
0.079332
0.358477
0.0810852
0.364605
0.0825582
0.37099
0.0837398
0.377601
0.0846228
0.3844
0.0852039
0.391344
0.0854843
0.398388
0.0854702
0.405483
0.085172
0.0846098
0.412582
0.304654
0.00539597
0.305157
0.0104563
0.305894
0.0152408
0.306863
0.0197957
0.30806
0.0241553
0.309489
0.0283457
0.311153
0.032386
0.313058
0.0362899
0.31521
0.0400658
0.317618
0.0437173
0.320291
0.0472444
0.323237
0.0506432
0.326465
0.0539071
0.329983
0.0570266
0.333797
0.0599907
0.337912
0.0627864
0.34233
0.0653996
0.347052
0.067816
0.352073
0.0700209
0.357384
0.0720003
0.362975
0.0737414
0.368828
0.0752329
0.37492
0.0764658
0.381226
0.0774341
0.387714
0.0781348
0.394349
0.0785686
0.401093
0.0787398
0.407907
0.0786567
0.414748
0.0783309
0.0777813
0.421576
0.312046
0.00510817
0.312605
0.00989755
0.313424
0.014422
0.314496
0.0187234
0.315818
0.0228328
0.31739
0.0267737
0.319213
0.030563
0.321291
0.0342128
0.323626
0.0377301
0.326226
0.041118
0.329094
0.0443759
0.332237
0.0475002
0.335659
0.0504847
0.339365
0.053321
0.343356
0.0559994
0.347634
0.058509
0.352195
0.060838
0.357036
0.0629749
0.362149
0.0649082
0.367522
0.0666275
0.37314
0.0681236
0.378983
0.0693892
0.38503
0.0704191
0.391253
0.0712108
0.397624
0.0717644
0.404109
0.0720833
0.410675
0.0721738
0.417287
0.072045
0.423909
0.071709
0.0711829
0.430507
0.319615
0.00479262
0.320227
0.00928523
0.321123
0.013526
0.322294
0.0175525
0.323735
0.0213926
0.325441
0.0250671
0.327413
0.0285912
0.329651
0.0319751
0.332156
0.0352251
0.33493
0.0383435
0.337976
0.0413296
0.341296
0.0441801
0.344892
0.0468895
0.348762
0.0494506
0.352906
0.0518551
0.357321
0.054094
0.362001
0.056158
0.366938
0.0580379
0.372121
0.0597253
0.377536
0.0612126
0.383166
0.0624939
0.388991
0.0635647
0.394987
0.0644229
0.401129
0.0650684
0.40739
0.0655037
0.41374
0.0657337
0.420148
0.0657656
0.426584
0.0656091
0.433017
0.0652756
0.0647806
0.439419
0.327365
0.0044507
0.328028
0.00862205
0.328998
0.0125568
0.330262
0.0162884
0.331813
0.0198416
0.333645
0.0232347
0.335756
0.0264808
0.338142
0.029589
0.340802
0.0325645
0.343737
0.0354092
0.346944
0.0381225
0.350423
0.0407013
0.354171
0.0431411
0.358186
0.0454358
0.362462
0.0475785
0.366994
0.0495622
0.371773
0.0513795
0.376787
0.0530237
0.382023
0.0544886
0.387467
0.0557692
0.393099
0.0568619
0.398899
0.0577649
0.404844
0.0584778
0.410909
0.0590026
0.41707
0.059343
0.423299
0.0595048
0.429569
0.0594957
0.435853
0.0593249
0.442125
0.0590034
0.0585448
0.448361
0.335301
0.00408374
0.336012
0.00791066
0.337051
0.0115185
0.338402
0.0149366
0.340057
0.0181867
0.342007
0.0212846
0.344246
0.0242418
0.34677
0.0270658
0.349573
0.0297611
0.352653
0.0323294
0.356005
0.03477
0.359626
0.0370804
0.363511
0.0392567
0.367652
0.0412942