/*--------------------------------*- C++ -*----------------------------------*\
  =========                 |
  \\      /  F ield         | OpenFOAM: The Open Source CFD Toolbox
   \\    /   O peration     | Website:  https://openfoam.org
    \\  /    A nd           | Version:  dev
     \\/     M anipulation  |
\*---------------------------------------------------------------------------*/
FoamFile
{
    version     2.0;
    format      ascii;
    class       volVectorField;
    location    "3.6";
    object      U;
}
// * * * * * * * * * * * * * * * * * * * * * * * * * * * * * * * * * * * * * //

dimensions      [0 1 -1 0 0 0 0];

internalField   nonuniform List<vector> 
2790
(
(9.94399 0 0.0205231)
(9.87572 0 0.0295876)
(9.77521 0 0.0359893)
(9.64944 0 0.0425559)
(9.50409 0 0.0493851)
(9.34007 0 0.0564279)
(9.15655 0 0.0638153)
(8.95263 0 0.0717109)
(8.72748 0 0.0802543)
(8.4801 0 0.0895724)
(8.2093 0 0.0997923)
(7.91368 0 0.111044)
(7.59172 0 0.123459)
(7.24183 0 0.137163)
(6.86238 0 0.152271)
(6.45186 0 0.168869)
(6.00895 0 0.186996)
(5.53276 0 0.206618)
(5.02306 0 0.22759)
(4.48055 0 0.249611)
(3.90726 0 0.272177)
(3.30694 0 0.294527)
(2.6854 0 0.315622)
(2.05074 0 0.334292)
(1.41191 0 0.350611)
(0.79814 0 0.372888)
(0.110852 0 0.32511)
(-0.469541 0 -0.114833)
(-0.453756 0 -0.297164)
(-0.231157 0 -0.423857)
(9.9985 0 0.0407029)
(9.98145 0 0.0623825)
(9.93575 0 0.0791397)
(9.86417 0 0.096624)
(9.77098 0 0.115123)
(9.65716 0 0.134487)
(9.52206 0 0.154973)
(9.36486 0 0.176941)
(9.18473 0 0.200705)
(8.98069 0 0.226546)
(8.75155 0 0.25474)
(8.49592 0 0.285556)
(8.21224 0 0.319244)
(7.89887 0 0.356017)
(7.5541 0 0.396014)
(7.17626 0 0.439257)
(6.76386 0 0.485587)
(6.31575 0 0.534582)
(5.83135 0 0.585458)
(5.31099 0 0.636951)
(4.75627 0 0.687203)
(4.17054 0 0.733648)
(3.55943 0 0.772958)
(2.93169 0 0.801102)
(2.30008 0 0.813763)
(1.69307 0 0.807273)
(1.10727 0 0.747288)
(0.658969 0 0.547975)
(0.186556 0 0.224679)
(-0.00819678 0 -0.453697)
(9.99559 0 0.0432068)
(9.97556 0 0.0752712)
(9.9318 0 0.103345)
(9.8649 0 0.13237)
(9.77778 0 0.163058)
(9.67155 0 0.195396)
(9.54588 0 0.229739)
(9.40014 0 0.266599)
(9.23367 0 0.306465)
(9.04565 0 0.3498)
(8.83511 0 0.397064)
(8.60084 0 0.448713)
(8.34148 0 0.505182)
(8.05554 0 0.566851)
(7.74143 0 0.633998)
(7.39751 0 0.706717)
(7.02218 0 0.784822)
(6.61404 0 0.867708)
(6.17204 0 0.95418)
(5.69575 0 1.04224)
(5.18575 0 1.12887)
(4.64409 0 1.20978)
(4.07493 0 1.27916)
(3.48551 0 1.32934)
(2.88698 0 1.35011)
(2.29959 0 1.32646)
(1.73195 0 1.22083)
(1.21634 0 0.973074)
(0.701202 0 0.570227)
(0.358073 0 -0.156452)
(9.99403 0 0.049499)
(9.97181 0 0.0932057)
(9.92788 0 0.133571)
(9.86225 0 0.174207)
(9.77694 0 0.216431)
(9.67299 0 0.260658)
(9.55032 0 0.307425)
(9.4085 0 0.357409)
(9.24703 0 0.411283)
(9.06535 0 0.469696)
(8.8627 0 0.533291)
(8.63822 0 0.60271)
(8.39088 0 0.678576)
(8.11956 0 0.761456)
(7.82305 0 0.851799)
(7.50007 0 0.949851)
(7.14932 0 1.05552)
(6.76953 0 1.16821)
(6.35959 0 1.28658)
(5.91871 0 1.40824)
(5.44665 0 1.52945)
(4.94413 0 1.64467)
(4.4133 0 1.74614)
(3.85841 0 1.82323)
(3.28595 0 1.86139)
(2.70653 0 1.84037)
(2.12576 0 1.72608)
(1.55434 0 1.47796)
(0.958003 0 1.08381)
(0.509444 0 0.502442)
(9.99331 0 0.0572133)
(9.96994 0 0.110958)
(9.92593 0 0.162103)
(9.86146 0 0.213346)
(9.77799 0 0.266354)
(9.67635 0 0.32191)
(9.55654 0 0.380696)
(9.41822 0 0.443481)
(9.26098 0 0.511047)
(9.08434 0 0.584158)
(8.88772 0 0.663573)
(8.67041 0 0.750045)
(8.43162 0 0.844313)
(8.17049 0 0.947058)
(7.88612 0 1.05885)
(7.57753 0 1.18004)
(7.24373 0 1.31065)
(6.88369 0 1.45014)
(6.49637 0 1.59718)
(6.08084 0 1.74929)
(5.63627 0 1.90238)
(5.16225 0 2.05029)
(4.65891 0 2.18417)
(4.12736 0 2.29175)
(3.56954 0 2.35659)
(2.98902 0 2.35738)
(2.38695 0 2.26505)
(1.76648 0 2.04776)
(1.09005 0 1.69155)
(0.536677 0 1.1543)
(9.99302 0 0.0655383)
(9.96923 0 0.128701)
(9.92556 0 0.190112)
(9.86253 0 0.251841)
(9.78129 0 0.315575)
(9.68244 0 0.382314)
(9.56601 0 0.452869)
(9.43172 0 0.528093)
(9.27921 0 0.608869)
(9.10807 0 0.69607)
(8.91779 0 0.790561)
(8.70776 0 0.893202)
(8.47731 0 1.00483)
(8.22571 0 1.12622)
(7.95219 0 1.25805)
(7.65594 0 1.40077)
(7.33609 0 1.5545)
(6.99171 0 1.71881)
(6.62177 0 1.8925)
(6.22511 0 2.07317)
(5.8004 0 2.25681)
(5.34617 0 2.43717)
(4.86085 0 2.60518)
(4.34285 0 2.74823)
(3.79055 0 2.84958)
(3.20272 0 2.88827)
(2.5767 0 2.83834)
(1.91357 0 2.67176)
(1.17281 0 2.37418)
(0.549997 0 1.8946)
(9.99297 0 0.0740745)
(9.96926 0 0.146313)
(9.92637 0 0.217482)
(9.86508 0 0.28929)
(9.78642 0 0.363352)
(9.69085 0 0.440822)
(9.57835 0 0.522654)
(9.44872 0 0.609802)
(9.30165 0 0.703243)
(9.13678 0 0.803949)
(8.95365 0 0.912879)
(8.75171 0 1.03098)
(8.53035 0 1.15919)
(8.2889 0 1.29836)
(8.02662 0 1.44925)
(7.74273 0 1.61243)
(7.43635 0 1.78813)
(7.10647 0 1.9761)
(6.75189 0 2.17534)
(6.37111 0 2.38376)
(5.96222 0 2.59768)
(5.52278 0 2.81134)
(5.04968 0 3.01613)
(4.53917 0 3.19997)
(3.98683 0 3.34672)
(3.38808 0 3.43605)
(2.7374 0 3.44344)
(2.03636 0 3.34167)
(1.24183 0 3.1138)
(0.56355 0 2.69339)
(9.99306 0 0.0825878)
(9.96981 0 0.163606)
(9.92807 0 0.244049)
(9.86885 0 0.325478)
(9.79313 0 0.409443)
(9.70126 0 0.497201)
(9.59323 0 0.589832)
(9.46888 0 0.688386)
(9.32796 0 0.793926)
(9.17014 0 0.907512)
(8.99503 0 1.03019)
(8.80211 0 1.16301)
(8.59083 0 1.30697)
(8.36052 0 1.46305)
(8.11047 0 1.6321)
(7.83984 0 1.81481)
(7.54766 0 2.0116)
(7.23274 0 2.22244)
(6.89359 0 2.44666)
(6.52827 0 2.68261)
(6.13422 0 2.92728)
(5.708 0 3.17571)
(5.24514 0 3.42032)
(4.73997 0 3.65019)
(4.18568 0 3.85027)
(3.57495 0 4.00098)
(2.8997 0 4.07805)
(2.16226 0 4.05259)
(1.31622 0 3.90196)
(0.583263 0 3.54045)
(9.99326 0 0.0909281)
(9.97072 0 0.180408)
(9.93046 0 0.269667)
(9.87362 0 0.36024)
(9.80118 0 0.453644)
(9.71343 0 0.551205)
(9.61038 0 0.654104)
(9.49188 0 0.763485)
(9.35775 0 0.88049)
(9.20773 0 1.00626)
(9.04145 0 1.14193)
(8.85848 0 1.28863)
(8.65828 0 1.44748)
(8.44023 0 1.61954)
(8.20359 0 1.80581)
(7.94749 0 2.00714)
(7.67083 0 2.22417)
(7.37222 0 2.45719)
(7.04987 0 2.70596)
(6.70137 0 2.96947)
(6.32348 0 3.24557)
(5.91181 0 3.53045)
(5.46055 0 3.81801)
(4.96222 0 4.09896)
(4.40764 0 4.35989)
(3.78664 0 4.58219)
(3.08779 0 4.74124)
(2.31289 0 4.80471)
(1.41077 0 4.74141)
(0.614365 0 4.4423)
(9.99352 0 0.0989921)
(9.97191 0 0.196579)
(9.9334 0 0.294194)
(9.87924 0 0.393415)
(9.8104 0 0.495753)
(9.72716 0 0.602584)
(9.62953 0 0.715175)
(9.51741 0 0.834751)
(9.39068 0 0.962529)
(9.24912 0 1.09973)
(9.09245 0 1.24756)
(8.92027 0 1.40726)
(8.73213 0 1.58002)
(8.52742 0 1.76705)
(8.30544 0 1.96949)
(8.06528 0 2.1884)
(7.80576 0 2.4247)
(7.52535 0 2.67907)
(7.22198 0 2.95181)
(6.89286 0 3.2427)
(6.53416 0 3.55067)
(6.14064 0 3.87339)
(5.70525 0 4.20662)
(5.21872 0 4.54333)
(4.66926 0 4.87244)
(4.04315 0 5.17705)
(3.32397 0 5.43249)
(2.51001 0 5.60226)
(1.54204 0 5.6439)
(0.664135 0 5.41851)
(9.99384 0 0.106704)
(9.9733 0 0.212)
(9.93679 0 0.317502)
(9.88558 0 0.424854)
(9.82063 0 0.535586)
(9.74225 0 0.651116)
(9.65044 0 0.77278)
(9.54517 0 0.901875)
(9.42637 0 1.03968)
(9.29389 0 1.1875)
(9.14751 0 1.34661)
(8.98693 0 1.51832)
(8.81174 0 1.70394)
(8.62142 0 1.90481)
(8.41532 0 2.12224)
(8.19253 0 2.35751)
(7.9519 0 2.61186)
(7.69182 0 2.88643)
(7.41011 0 3.18215)
(7.10373 0 3.49972)
(6.76847 0 3.83933)
(6.3985 0 4.2004)
(5.98577 0 4.58106)
(5.51935 0 4.97724)
(4.98469 0 5.38129)
(4.36361 0 5.77962)
(3.63226 0 6.14933)
(2.78045 0 6.45101)
(1.73369 0 6.62902)
(0.744948 0 6.50372)
(9.9942 0 0.114006)
(9.97487 0 0.226575)
(9.94055 0 0.339473)
(9.89251 0 0.454423)
(9.83173 0 0.572981)
(9.7585 0 0.696606)
(9.67288 0 0.826688)
(9.57487 0 0.964583)
(9.46447 0 1.11164)
(9.34161 0 1.2692)
(9.20614 0 1.43862)
(9.05785 0 1.6213)
(8.89642 0 1.81864)
(8.72145 0 2.0321)
(8.53236 0 2.26316)
(8.32836 0 2.51335)
(8.10835 0 2.78424)
(7.87083 0 3.07743)
(7.61365 0 3.39458)
(7.3338 0 3.73732)
(7.02703 0 4.10728)
(6.6873 0 4.50585)
(6.3061 0 4.93394)
(5.87136 0 5.39131)
(5.36613 0 5.87528)
(4.76731 0 6.37827)
(4.04117 0 6.8834)
(3.16191 0 7.35389)
(2.0251 0 7.72385)
(0.880916 0 7.75794)
(9.99459 0 0.120854)
(9.97657 0 0.240225)
(9.94461 0 0.360008)
(9.89995 0 0.482001)
(9.84355 0 0.607795)
(9.77575 0 0.73888)
(9.69661 0 0.876692)
(9.60621 0 1.02264)
(9.50462 0 1.1781)
(9.39183 0 1.3445)
(9.26779 0 1.52322)
(9.13239 0 1.71575)
(8.98545 0 1.92356)
(8.82666 0 2.14823)
(8.6556 0 2.3914)
(8.47165 0 2.65483)
(8.27391 0 2.94041)
(8.06108 0 3.2502)
(7.83128 0 3.58652)
(7.58184 0 3.95198)
(7.30887 0 4.34963)
(7.00678 0 4.78293)
(6.66741 0 5.25588)
(6.27875 0 5.77274)
(5.82284 0 6.33754)
(5.27297 0 6.95236)
(4.58512 0 7.61377)
(3.7106 0 8.30134)
(2.48875 0 8.95904)
(1.12479 0 9.29447)
(9.99501 0 0.127212)
(9.97838 0 0.252886)
(9.94891 0 0.379023)
(9.90779 0 0.507488)
(9.85597 0 0.639909)
(9.7938 0 0.777801)
(9.72141 0 0.922635)
(9.63892 0 1.07585)
(9.54645 0 1.23888)
(9.4441 0 1.41315)
(9.33192 0 1.60013)
(9.20991 0 1.80132)
(9.07801 0 2.01829)
(8.9361 0 2.25269)
(8.78393 0 2.5063)
(8.62112 0 2.78107)
(8.44705 0 3.07916)
(8.26078 0 3.40303)
(8.06093 0 3.75558)
(7.84546 0 4.14029)
(7.61135 0 4.56143)
(7.35417 0 5.02443)
(7.06731 0 5.53624)
(6.74067 0 6.10585)
(6.35831 0 6.74499)
(5.89463 0 7.46875)
(5.30153 0 8.29633)
(4.50981 0 9.24834)
(3.2698 0 10.3429)
(1.60565 0 11.3611)
(9.99545 0 0.133052)
(9.98026 0 0.264506)
(9.95339 0 0.396445)
(9.91595 0 0.530792)
(9.86887 0 0.669202)
(9.81251 0 0.813214)
(9.74706 0 0.964321)
(9.67269 0 1.12399)
(9.5896 0 1.29367)
(9.49798 0 1.47482)
(9.39798 0 1.66893)
(9.28973 0 1.87754)
(9.17332 0 2.10224)
(9.0488 0 2.34478)
(8.91617 0 2.60701)
(8.77532 0 2.89101)
(8.626 0 3.19914)
(8.46777 0 3.53414)
(8.2999 0 3.89934)
(8.12125 0 4.29882)
(7.93014 0 4.73781)
(7.724 0 5.22314)
(7.499 0 5.76404)
(7.24927 0 6.37335)
(6.96532 0 7.06951)
(6.63165 0 7.88038)
(6.21549 0 8.85145)
(5.66741 0 10.0658)
(4.69221 0 11.732)
(2.689 0 14.5961)
(0.138136 0 -0.142096)
(0.318362 0 -0.126954)
(0.504816 0 -0.101596)
(0.664796 0 -0.0789852)
(0.793859 0 -0.0609591)
(0.897534 0 -0.0469666)
(0.982123 0 -0.0362462)
(1.05246 0 -0.0281556)
(1.11212 0 -0.0221328)
(1.16381 0 -0.0176748)
(1.20961 0 -0.0143388)
(1.25092 0 -0.011739)
(1.28855 0 -0.00955334)
(1.32273 0 -0.00754833)
(1.35337 0 -0.00560849)
(1.38022 0 -0.00371862)
(1.40313 0 -0.00185586)
(1.42186 0 0.000158348)
(1.43562 0 0.00265487)
(1.44289 0 0.0057368)
(1.44246 0 0.00869311)
(1.43439 0 0.0106027)
(1.42134 0 0.0108921)
(1.4076 0 0.00967936)
(1.39616 0 0.00756548)
(1.38797 0 0.0050965)
(1.38317 0 0.00233088)
(1.38345 0 -0.00061389)
(1.39013 0 -0.00319372)
(1.40644 0 -0.00481395)
(0.111165 0 -0.315573)
(0.283956 0 -0.293519)
(0.453871 0 -0.241732)
(0.602137 0 -0.193854)
(0.725546 0 -0.155408)
(0.82882 0 -0.125511)
(0.917 0 -0.1026)
(0.993881 0 -0.0853093)
(1.06225 0 -0.0724289)
(1.12425 0 -0.0628758)
(1.18151 0 -0.0556936)
(1.2352 0 -0.0500403)
(1.28602 0 -0.0451989)
(1.33425 0 -0.0406411)
(1.37986 0 -0.036114)
(1.42267 0 -0.0316363)
(1.46269 0 -0.0272747)
(1.50014 0 -0.0227731)
(1.53518 0 -0.017448)
(1.5672 0 -0.0108843)
(1.59432 0 -0.00397263)
(1.61524 0 0.00141361)
(1.63126 0 0.00405516)
(1.64581 0 0.00445187)
(1.66155 0 0.00372383)
(1.679 0 0.0025304)
(1.69766 0 0.000709226)
(1.71616 0 -0.00215223)
(1.73381 0 -0.00568723)
(1.75462 0 -0.00798603)
(0.083501 0 -0.489705)
(0.227778 0 -0.458452)
(0.358444 0 -0.380838)
(0.4725 0 -0.30909)
(0.566987 0 -0.251506)
(0.646399 0 -0.206543)
(0.71445 0 -0.171863)
(0.773861 0 -0.145426)
(0.826681 0 -0.12546)
(0.874513 0 -0.110419)
(0.918603 0 -0.0989397)
(0.959867 0 -0.0898097)
(0.998892 0 -0.0819664)
(1.03591 0 -0.0745936)
(1.07081 0 -0.067287)
(1.10329 0 -0.0601331)
(1.13319 0 -0.0534359)
(1.16087 0 -0.0470468)
(1.18715 0 -0.0397689)
(1.21236 0 -0.0300135)
(1.23535 0 -0.0183088)
(1.25357 0 -0.00933529)
(1.2664 0 -0.00673391)
(1.27705 0 -0.00895805)
(1.28787 0 -0.0128431)
(1.2989 0 -0.0164849)
(1.30894 0 -0.019172)
(1.31624 0 -0.0211525)
(1.32017 0 -0.0226226)
(1.32155 0 -0.0216653)
(0.0578765 0 -0.619787)
(0.165691 0 -0.573663)
(0.248596 0 -0.473208)
(0.322182 0 -0.383521)
(0.380665 0 -0.312478)
(0.429318 0 -0.25715)
(0.470204 0 -0.214494)
(0.504929 0 -0.181904)
(0.534801 0 -0.157201)
(0.560865 0 -0.138527)
(0.583959 0 -0.124259)
(0.604752 0 -0.112939)
(0.623783 0 -0.103251)
(0.641384 0 -0.0941191)
(0.657542 0 -0.0849364)
(0.671794 0 -0.0757703)
(0.683225 0 -0.0672245)
(0.691782 0 -0.0597297)
(0.698764 0 -0.0527228)
(0.706932 0 -0.0446198)
(0.717176 0 -0.0337337)
(0.720642 0 -0.0204587)
(0.701018 0 -0.0100282)
(0.670743 0 -0.00612371)
(0.640324 0 -0.00533961)
(0.612619 0 -0.00466336)
(0.590074 0 -0.00389898)
(0.570701 0 -0.00446255)
(0.55596 0 -0.00640034)
(0.545771 0 -0.0102187)
(0.0318484 0 -0.708451)
(0.0963773 0 -0.642474)
(0.125368 0 -0.522582)
(0.155191 0 -0.421237)
(0.172608 0 -0.341739)
(0.185314 0 -0.279876)
(0.193241 0 -0.232136)
(0.197224 0 -0.195557)
(0.197991 0 -0.167721)
(0.196136 0 -0.146617)
(0.192127 0 -0.130522)
(0.186436 0 -0.117883)
(0.179674 0 -0.107245)
(0.172418 0 -0.0973021)
(0.165021 0 -0.0871394)
(0.15722 0 -0.076508)
(0.146809 0 -0.0658493)
(0.132711 0 -0.0555993)
(0.111657 0 -0.0448931)
(0.0873642 0 -0.0312561)
(0.0579428 0 -0.0125259)
(0.0333774 0 0.00703039)
(0.0195181 0 0.0186089)
(0.00590159 0 0.0195055)
(-0.00791807 0 0.013834)
(-0.0214851 0 0.00622615)
(-0.0260152 0 -0.00025184)
(-0.0276715 0 -0.00571722)
(-0.0289348 0 -0.0115125)
(-0.0331934 0 -0.020617)
(0.00407611 0 -0.748643)
(0.0193965 0 -0.659069)
(-0.00812799 0 -0.523103)
(-0.0251201 0 -0.415548)
(-0.0521997 0 -0.331442)
(-0.0796668 0 -0.266552)
(-0.109192 0 -0.216782)
(-0.139961 0 -0.178908)
(-0.171484 0 -0.150218)
(-0.203365 0 -0.128498)
(-0.235318 0 -0.111945)
(-0.266994 0 -0.0990053)
(-0.297914 0 -0.0882718)
(-0.327518 0 -0.0785095)
(-0.355267 0 -0.068804)
(-0.380778 0 -0.0587243)
(-0.4039 0 -0.0483397)
(-0.424729 0 -0.0379696)
(-0.443472 0 -0.0276982)
(-0.459257 0 -0.017184)
(-0.470758 0 -0.00630882)
(-0.476506 0 0.0037873)
(-0.479185 0 0.0120516)
(-0.482523 0 0.0154525)
(-0.487509 0 0.0131202)
(-0.49403 0 0.00801201)
(-0.499896 0 0.00279933)
(-0.503713 0 -0.00194734)
(-0.510531 0 -0.00756833)
(-0.517117 0 -0.0141833)
(-0.0281597 0 -0.732722)
(-0.0671011 0 -0.616267)
(-0.148146 0 -0.476203)
(-0.215788 0 -0.368544)
(-0.286641 0 -0.285171)
(-0.354546 0 -0.222064)
(-0.419159 0 -0.174606)
(-0.479634 0 -0.139386)
(-0.535399 0 -0.113606)
(-0.586178 0 -0.094937)
(-0.632051 0 -0.0814736)
(-0.673311 0 -0.0716206)
(-0.710297 0 -0.0639718)
(-0.743296 0 -0.0572979)
(-0.77251 0 -0.0506701)
(-0.798076 0 -0.0435845)
(-0.820127 0 -0.0359236)
(-0.838848 0 -0.0277713)
(-0.854375 0 -0.0191155)
(-0.866574 0 -0.00973651)
(-0.875389 0 0.000142716)
(-0.879177 0 0.00919623)
(-0.880726 0 0.0153251)
(-0.882001 0 0.017293)
(-0.884661 0 0.0149603)
(-0.889223 0 0.0101468)
(-0.894914 0 0.00497694)
(-0.900841 0 -0.000211347)
(-0.907948 0 -0.00680116)
(-0.913492 0 -0.0138368)
(-0.0665199 0 -0.657901)
(-0.158691 0 -0.522818)
(-0.29155 0 -0.384032)
(-0.407052 0 -0.280748)
(-0.516998 0 -0.204697)
(-0.616216 0 -0.150035)
(-0.704134 0 -0.111264)
(-0.78098 0 -0.0842741)
(-0.847691 0 -0.066021)
(-0.905458 0 -0.0540827)
(-0.955549 0 -0.0464643)
(-0.999149 0 -0.0415949)
(-1.03723 0 -0.0381887)
(-1.07056 0 -0.0351711)
(-1.09969 0 -0.0317906)
(-1.12504 0 -0.0277244)
(-1.14684 0 -0.0229504)
(-1.16523 0 -0.0175454)
(-1.18027 0 -0.0114462)
(-1.19191 0 -0.00449785)
(-1.20026 0 0.00305318)
(-1.20477 0 0.0104896)
(-1.20747 0 0.0161507)
(-1.20957 0 0.0184768)
(-1.21255 0 0.0171686)
(-1.21709 0 0.0133971)
(-1.2231 0 0.00869027)
(-1.23025 0 0.00340535)
(-1.23722 0 -0.00326042)
(-1.24217 0 -0.00965396)
(-0.111179 0 -0.523095)
(-0.25804 0 -0.378105)
(-0.442025 0 -0.250741)
(-0.598448 0 -0.162873)
(-0.738843 0 -0.101986)
(-0.859895 0 -0.0617317)
(-0.962389 0 -0.0365925)
(-1.0473 0 -0.0222687)
(-1.11688 0 -0.0150088)
(-1.17468 0 -0.0118875)
(-1.22349 0 -0.0111426)
(-1.26547 0 -0.0116391)
(-1.30216 0 -0.0125337)
(-1.33465 0 -0.0131224)
(-1.36316 0 -0.0129128)
(-1.38817 0 -0.0116503)
(-1.40997 0 -0.00942865)
(-1.42864 0 -0.0064254)
(-1.44419 0 -0.00264763)
(-1.45627 0 0.00201219)
(-1.4646 0 0.00744938)
(-1.47056 0 0.0130687)
(-1.47492 0 0.0177228)
(-1.47873 0 0.0199323)
(-1.48305 0 0.0191699)
(-1.48845 0 0.0161084)
(-1.49521 0 0.0118433)
(-1.5034 0 0.00677158)
(-1.51158 0 0.000724923)
(-1.5161 0 -0.00464391)
(-0.167302 0 -0.331487)
(-0.381181 0 -0.190197)
(-0.627781 0 -0.0714596)
(-0.820088 0 -0.00438917)
(-0.974773 0 0.0279986)
(-1.09827 0 0.0414301)
(-1.19693 0 0.0441578)
(-1.27713 0 0.0412905)
(-1.34368 0 0.0358881)
(-1.39937 0 0.0295846)
(-1.44655 0 0.0232707)
(-1.48697 0 0.0173408)
(-1.52179 0 0.012073)
(-1.5519 0 0.00784638)
(-1.57855 0 0.00507186)
(-1.60239 0 0.00381077)
(-1.62364 0 0.00373389)
(-1.64212 0 0.00448117)
(-1.65746 0 0.00600439)
(-1.66974 0 0.0085596)
(-1.67931 0 0.0123085)
(-1.68682 0 0.0167445)
(-1.69309 0 0.0206859)
(-1.69902 0 0.0227694)
(-1.70528 0 0.022328)
(-1.71227 0 0.0197178)
(-1.72042 0 0.0157882)
(-1.73 0 0.0109892)
(-1.73932 0 0.00546892)
(-1.7438 0 0.000895783)
(-0.24142 0 -0.0381714)
(-0.502732 0 0.107996)
(-0.762515 0 0.149187)
(-0.960452 0 0.157421)
(-1.12051 0 0.150827)
(-1.2491 0 0.136652)
(-1.35265 0 0.119551)
(-1.43652 0 0.101911)
(-1.50495 0 0.0850043)
(-1.56156 0 0.0697847)
(-1.60938 0 0.0566715)
(-1.65049 0 0.0454502)
(-1.68614 0 0.0358904)
(-1.71717 0 0.028206)
(-1.7445 0 0.022721)
(-1.76903 0 0.0192847)
(-1.79124 0 0.017229)
(-1.81092 0 0.0158975)
(-1.82757 0 0.0152304)
(-1.84102 0 0.0157494)
(-1.85173 0 0.0178913)
(-1.86067 0 0.0213027)
(-1.86887 0 0.0247639)
(-1.87706 0 0.0268039)
(-1.88558 0 0.026559)
(-1.89456 0 0.0241781)
(-1.90443 0 0.0204418)
(-1.91559 0 0.0159442)
(-1.92623 0 0.0110179)
(-1.93153 0 0.0071252)
(-0.282753 0 0.339531)
(-0.573279 0 0.39092)
(-0.866955 0 0.370281)
(-1.08613 0 0.329883)
(-1.25622 0 0.284318)
(-1.3879 0 0.239862)
(-1.49116 0 0.199872)
(-1.57342 0 0.16512)
(-1.6398 0 0.135299)
(-1.69437 0 0.110543)
(-1.74064 0 0.0906491)
(-1.78097 0 0.0743784)
(-1.8163 0 0.0605623)
(-1.84709 0 0.049204)
(-1.87433 0 0.0408792)
(-1.89928 0 0.0354191)
(-1.92258 0 0.0316428)
(-1.94375 0 0.0283387)
(-1.96177 0 0.0253516)
(-1.97622 0 0.0236348)
(-1.98779 0 0.0241632)
(-1.99793 0 0.0267769)
(-2.00798 0 0.0300649)
(-2.01856 0 0.0322236)
(-2.02956 0 0.0320945)
(-2.04068 0 0.0296902)
(-2.05219 0 0.0258984)
(-2.06453 0 0.0215908)
(-2.07586 0 0.0172356)
(-2.08131 0 0.0139455)
(-0.33439 0 0.747246)
(-0.680411 0 0.73354)
(-1.01011 0 0.621595)
(-1.23556 0 0.511141)
(-1.40095 0 0.417989)
(-1.52439 0 0.339428)
(-1.61887 0 0.275546)
(-1.69358 0 0.224306)
(-1.7537 0 0.182252)
(-1.80289 0 0.148517)
(-1.84519 0 0.122802)
(-1.88338 0 0.102515)
(-1.91765 0 0.0848959)
(-1.94749 0 0.0698518)
(-1.97382 0 0.0588003)
(-1.99862 0 0.0518032)
(-2.02292 0 0.0468667)
(-2.04576 0 0.0418044)
(-2.06522 0 0.0362796)
(-2.08036 0 0.0319965)
(-2.09225 0 0.03087)
(-2.1031 0 0.0330099)
(-2.11475 0 0.0365576)
(-2.12767 0 0.0390801)
(-2.14119 0 0.0389918)
(-2.15442 0 0.0362293)
(-2.16734 0 0.0319912)
(-2.1805 0 0.0276474)
(-2.19226 0 0.023852)
(-2.19777 0 0.0212293)
(-0.435526 0 1.24704)
(-0.864795 0 1.13337)
(-1.2208 0 0.885237)
(-1.42346 0 0.680456)
(-1.56168 0 0.538073)
(-1.66286 0 0.425283)
(-1.73836 0 0.339796)
(-1.79905 0 0.276405)
(-1.84909 0 0.224516)
(-1.88974 0 0.18211)
(-1.92563 0 0.151574)
(-1.96072 0 0.128918)
(-1.99383 0 0.1082)
(-2.0222 0 0.0893202)
(-2.04654 0 0.0756881)
(-2.07034 0 0.0681141)
(-2.09558 0 0.0631261)
(-2.1205 0 0.0567068)
(-2.14154 0 0.0481887)
(-2.15684 0 0.0406212)
(-2.16804 0 0.0376204)
(-2.17872 0 0.0396996)
(-2.19152 0 0.0441059)
(-2.20673 0 0.0473415)
(-2.22288 0 0.0472361)
(-2.23826 0 0.0437238)
(-2.25239 0 0.0385554)
(-2.26602 0 0.03389)
(-2.27791 0 0.0306444)
(-2.2834 0 0.0287488)
(-0.641525 0 2.16904)
(-1.16781 0 1.76276)
(-1.53968 0 1.17518)
(-1.66525 0 0.781276)
(-1.73853 0 0.619407)
(-1.80244 0 0.491423)
(-1.84689 0 0.391804)
(-1.88772 0 0.321223)
(-1.92698 0 0.259001)
(-1.95712 0 0.204907)
(-1.98326 0 0.172281)
(-2.01424 0 0.153184)
(-2.04687 0 0.132271)
(-2.07343 0 0.10923)
(-2.09409 0 0.0921387)
(-2.11555 0 0.0846876)
(-2.14185 0 0.0807976)
(-2.16989 0 0.0731415)
(-2.19306 0 0.0605365)
(-2.20781 0 0.0483465)
(-2.21684 0 0.0431283)
(-2.22616 0 0.045961)
(-2.23972 0 0.0523165)
(-2.25744 0 0.0569246)
(-2.27665 0 0.0568579)
(-2.29439 0 0.0521654)
(-2.30954 0 0.045448)
(-2.3231 0 0.0400898)
(-2.33469 0 0.037447)
(-2.34005 0 0.036399)
(9.9959 0 0.138447)
(9.98225 0 0.275241)
(9.9581 0 0.412529)
(9.92453 0 0.552277)
(9.88241 0 0.696165)
(9.83214 0 0.845743)
(9.77396 0 1.00252)
(9.70812 0 1.16797)
(9.63488 0 1.34355)
(9.55453 0 1.53073)
(9.46734 0 1.73101)
(9.37357 0 1.94592)
(9.27348 0 2.1771)
(9.16734 0 2.42629)
(9.0554 0 2.6954)
(8.93787 0 2.98657)
(8.81494 0 3.30224)
(8.68676 0 3.64532)
(8.55341 0 4.0193)
(8.41487 0 4.42857)
(8.27109 0 4.87877)
(8.12196 0 5.37736)
(7.96743 0 5.93451)
(7.80778 0 6.56458)
(7.64426 0 7.28864)
(7.48188 0 8.1393)
(7.33399 0 9.17056)
(7.29092 0 10.476)
(7.75168 0 12.2007)
(7.93868 0 14.9206)
(9.99638 0 0.143408)
(9.98434 0 0.285097)
(9.96305 0 0.427258)
(9.93351 0 0.571889)
(9.89655 0 0.720682)
(9.8526 0 0.875195)
(9.80194 0 1.03693)
(9.74489 0 1.20738)
(9.68179 0 1.38798)
(9.61304 0 1.58019)
(9.539 0 1.7855)
(9.46011 0 2.00543)
(9.37679 0 2.2416)
(9.28953 0 2.49572)
(9.19885 0 2.76969)
(9.10532 0 3.06561)
(9.00961 0 3.38592)
(8.91246 0 3.73346)
(8.81479 0 4.11168)
(8.71778 0 4.52484)
(8.62304 0 4.97835)
(8.53295 0 5.47924)
(8.45122 0 6.03684)
(8.38414 0 6.66371)
(8.34291 0 7.37707)
(8.34965 0 8.20031)
(8.44329 0 9.16354)
(8.67984 0 10.2999)
(9.32831 0 11.5538)
(9.82077 0 12.6392)
(9.99688 0 0.147845)
(9.9865 0 0.29391)
(9.96818 0 0.440411)
(9.94282 0 0.589362)
(9.91119 0 0.742459)
(9.87375 0 0.901253)
(9.83082 0 1.06724)
(9.78279 0 1.24188)
(9.73008 0 1.4266)
(9.67316 0 1.62284)
(9.61255 0 1.83202)
(9.54878 0 2.05565)
(9.4825 0 2.29526)
(9.41439 0 2.55253)
(9.34525 0 2.82924)
(9.276 0 3.1274)
(9.20775 0 3.44928)
(9.14182 0 3.7975)
(9.07992 0 4.1752)
(9.02425 0 4.58613)
(8.97784 0 5.03487)
(8.94497 0 5.52711)
(8.93194 0 6.06981)
(8.94828 0 6.67136)
(9.00849 0 7.34117)
(9.13472 0 8.08784)
(9.358 0 8.91316)
(9.68776 0 9.80587)
(10.2536 0 10.7143)
(10.9412 0 11.4279)
(9.9974 0 0.151707)
(9.98873 0 0.301573)
(9.97346 0 0.451819)
(9.95237 0 0.604464)
(9.92621 0 0.761193)
(9.89542 0 0.923542)
(9.86038 0 1.09298)
(9.82152 0 1.27094)
(9.77936 0 1.45881)
(9.73444 0 1.65797)
(9.68738 0 1.8698)
(9.63887 0 2.09571)
(9.58969 0 2.33715)
(9.54075 0 2.59568)
(9.4931 0 2.87293)
(9.44796 0 3.17072)
(9.40682 0 3.49104)
(9.37152 0 3.83615)
(9.34434 0 4.20864)
(9.32827 0 4.61146)
(9.32723 0 5.04803)
(9.34652 0 5.52216)
(9.3934 0 6.03799)
(9.47777 0 6.59945)
(9.61283 0 7.2093)
(9.8154 0 7.86715)
(10.1082 0 8.56588)
(10.4999 0 9.29072)
(11.0571 0 10.0315)
(11.8498 0 10.6751)
(9.99792 0 0.154948)
(9.991 0 0.307994)
(9.97883 0 0.461349)
(9.9621 0 0.617018)
(9.94148 0 0.776667)
(9.91742 0 0.941802)
(9.89035 0 1.11386)
(9.86076 0 1.29422)
(9.8292 0 1.48421)
(9.79631 0 1.68516)
(9.76281 0 1.89835)
(9.72949 0 2.12508)
(9.6973 0 2.3667)
(9.66729 0 2.62458)
(9.64072 0 2.90016)
(9.61909 0 3.19499)
(9.60416 0 3.5107)
(9.59811 0 3.84909)
(9.60365 0 4.21206)
(9.62414 0 4.60165)
(9.66392 0 5.01996)
(9.72851 0 5.46901)
(9.82499 0 5.95039)
(9.96229 0 6.46478)
(10.1515 0 7.0111)
(10.4056 0 7.58544)
(10.7419 0 8.17965)
(11.172 0 8.77904)
(11.7189 0 9.37202)
(12.4713 0 9.88374)
(9.99845 0 0.157522)
(9.9933 0 0.313086)
(9.98426 0 0.468873)
(9.97192 0 0.626859)
(9.95687 0 0.788677)
(9.93958 0 0.955793)
(9.92049 0 1.12959)
(9.90015 0 1.3114)
(9.87916 0 1.50247)
(9.85822 0 1.70403)
(9.83812 0 1.91728)
(9.81976 0 2.14339)
(9.80419 0 2.38353)
(9.7926 0 2.63889)
(9.7864 0 2.91067)
(9.78725 0 3.20009)
(9.7971 0 3.50839)
(9.81834 0 3.83683)
(9.85381 0 4.1866)
(9.90701 0 4.55885)
(9.98222 0 4.95445)
(10.0847 0 5.37389)
(10.2207 0 5.81688)
(10.3978 0 6.28198)
(10.6248 0 6.7659)
(10.9113 0 7.26287)
(11.2687 0 7.76366)
(11.7047 0 8.25271)
(12.2203 0 8.71333)
(12.8952 0 9.10403)
(9.99898 0 0.159393)
(9.9956 0 0.316774)
(9.9897 0 0.474279)
(9.98175 0 0.633839)
(9.97226 0 0.797043)
(9.96169 0 0.965305)
(9.95054 0 1.13995)
(9.93935 0 1.32222)
(9.92877 0 1.51331)
(9.91956 0 1.71432)
(9.91256 0 1.92633)
(9.90874 0 2.15037)
(9.90923 0 2.38744)
(9.91529 0 2.6385)
(9.92843 0 2.90449)
(9.95038 0 3.18628)
(9.98319 0 3.48469)
(10.0292 0 3.80046)
(10.0914 0 4.13413)
(10.173 0 4.48599)
(10.2779 0 4.85596)
(10.4109 0 5.24331)
(10.5771 0 5.64648)
(10.7825 0 6.06264)
(11.0335 0 6.48731)
(11.3366 0 6.9138)
(11.6977 0 7.33275)
(12.121 0 7.73076)
(12.6004 0 8.09328)
(13.205 0 8.39981)
(9.99951 0 0.160525)
(9.99788 0 0.31899)
(9.99509 0 0.477468)
(9.99149 0 0.637832)
(9.9875 0 0.801614)
(9.98357 0 0.970165)
(9.98021 0 1.14474)
(9.97799 0 1.3265)
(9.97758 0 1.51652)
(9.97975 0 1.71582)
(9.98541 0 1.92534)
(9.99554 0 2.14593)
(10.0113 0 2.37841)
(10.034 0 2.62352)
(10.0652 0 2.88191)
(10.1066 0 3.15412)
(10.1602 0 3.44059)
(10.2283 0 3.74154)
(10.3137 0 4.05695)
(10.4192 0 4.38644)
(10.5483 0 4.72915)
(10.7049 0 5.08356)
(10.893 0 5.44727)
(11.117 0 5.81677)
(11.3812 0 6.18716)
(11.6894 0 6.55186)
(12.0443 0 6.90263)
(12.4475 0 7.22914)
(12.8912 0 7.52028)
(13.4336 0 7.76475)
(10 0 0.160891)
(10.0001 0 0.31968)
(10.0004 0 0.478362)
(10.0011 0 0.638738)
(10.0025 0 0.802272)
(10.005 0 0.970244)
(10.0092 0 1.14382)
(10.0157 0 1.32409)
(10.0251 0 1.512)
(10.0382 0 1.70847)
(10.0559 0 1.91426)
(10.0793 0 2.13011)
(10.1094 0 2.35661)
(10.1476 0 2.59427)
(10.1953 0 2.8435)
(10.2543 0 3.10452)
(10.3263 0 3.3774)
(10.4136 0 3.66195)
(10.5185 0 3.95768)
(10.6436 0 4.26371)
(10.7917 0 4.57866)
(10.9657 0 4.90051)
(11.1688 0 5.22646)
(11.4038 0 5.55281)
(11.6733 0 5.8748)
(11.9791 0 6.1866)
(12.3222 0 6.48133)
(12.7022 0 6.75118)
(13.1115 0 6.98782)
(13.5987 0 7.18441)
(10.0005 0 0.160469)
(10.0023 0 0.318802)
(10.0056 0 0.4769)
(10.0104 0 0.636482)
(10.017 0 0.798934)
(10.0259 0 0.965457)
(10.0374 0 1.13713)
(10.0522 0 1.31493)
(10.071 0 1.49972)
(10.0944 0 1.69227)
(10.1235 0 1.89321)
(10.1592 0 2.1031)
(10.2025 0 2.32237)
(10.2548 0 2.5513)
(10.3175 0 2.79006)
(10.392 0 3.03859)
(10.4801 0 3.29667)
(10.5837 0 3.56377)
(10.7047 0 3.83906)
(10.8452 0 4.12132)
(11.0076 0 4.40885)
(11.1938 0 4.69939)
(11.4061 0 4.99008)
(11.6462 0 5.27733)
(11.9153 0 5.55685)
(12.2141 0 5.82368)
(12.5422 0 6.07228)
(12.8982 0 6.29677)
(13.2751 0 6.49112)
(13.7145 0 6.65118)
(10.001 0 0.159245)
(10.0044 0 0.316326)
(10.0106 0 0.473043)
(10.0194 0 0.631018)
(10.031 0 0.791555)
(10.0459 0 0.955765)
(10.0644 0 1.12464)
(10.0871 0 1.29904)
(10.1147 0 1.47973)
(10.1479 0 1.66734)
(10.1875 0 1.86239)
(10.2345 0 2.06525)
(10.2899 0 2.27619)
(10.3549 0 2.49531)
(10.4307 0 2.72254)
(10.5188 0 2.95763)
(10.6205 0 3.2001)
(10.7375 0 3.44918)
(10.8713 0 3.70381)
(11.0237 0 3.96257)
(11.1962 0 4.22363)
(11.3903 0 4.4847)
(11.6072 0 4.74302)
(11.848 0 4.99532)
(12.1129 0 5.2379)
(12.4018 0 5.46667)
(12.7134 0 5.67729)
(13.0459 0 5.86543)
(13.3931 0 6.02685)
(13.7916 0 6.15904)
(10.0015 0 0.15721)
(10.0065 0 0.312239)
(10.0154 0 0.466772)
(10.028 0 0.62233)
(10.0444 0 0.780124)
(10.065 0 0.941177)
(10.09 0 1.10638)
(10.1202 0 1.2765)
(10.156 0 1.45217)
(10.1981 0 1.63392)
(10.2474 0 1.82211)
(10.3047 0 2.01701)
(10.3709 0 2.21869)
(10.4471 0 2.42712)
(10.5344 0 2.64205)
(10.6339 0 2.86304)
(10.7469 0 3.08944)
(10.8747 0 3.32034)
(11.0184 0 3.55453)
(11.1793 0 3.79053)
(11.3585 0 4.02648)
(11.5568 0 4.2602)
(11.775 0 4.48916)
(12.0133 0 4.71051)
(12.2714 0 4.92114)
(12.5486 0 5.11778)
(12.8434 0 5.29711)
(13.1537 0 5.45598)
(13.4743 0 5.59148)
(13.8375 0 5.7021)
(10.0019 0 0.154364)
(10.0084 0 0.306539)
(10.0199 0 0.45809)
(10.0361 0 0.610429)
(10.0571 0 0.764673)
(10.0829 0 0.921748)
(10.1141 0 1.08245)
(10.1512 0 1.24744)
(10.1945 0 1.41725)
(10.2449 0 1.59229)
(10.3029 0 1.7728)
(10.3694 0 1.95892)
(10.4451 0 2.15061)
(10.531 0 2.34767)
(10.628 0 2.54975)
(10.737 0 2.75627)
(10.8591 0 2.96646)
(10.9952 0 3.17934)
(11.1461 0 3.39365)
(11.3128 0 3.6079)
(11.4958 0 3.82034)
(11.6956 0 4.02896)
(11.9124 0 4.23153)
(12.1459 0 4.42563)
(12.3956 0 4.60872)
(12.6604 0 4.77823)
(12.9387 0 4.93167)
(13.2284 0 5.06678)
(13.5252 0 5.18158)
(13.8581 0 5.27521)
(10.0024 0 0.150712)
(10.0102 0 0.29924)
(10.0241 0 0.447022)
(10.0438 0 0.595357)
(10.0689 0 0.745264)
(10.0997 0 0.897576)
(10.1366 0 1.05299)
(10.1799 0 1.21207)
(10.2301 0 1.37525)
(10.2878 0 1.54282)
(10.3536 0 1.71494)
(10.4281 0 1.89162)
(10.5121 0 2.07272)
(10.6062 0 2.25795)
(10.7113 0 2.44684)
(10.828 0 2.63875)
(10.9571 0 2.83286)
(11.0993 0 3.02813)
(11.2553 0 3.22334)
(11.4253 0 3.41707)
(11.6098 0 3.60771)
(11.8089 0 3.79348)
(12.0223 0 3.97246)
(12.2497 0 4.14264)
(12.49 0 4.30199)
(12.7422 0 4.44853)
(13.0047 0 4.58041)
(13.2756 0 4.69604)
(13.5512 0 4.79409)
(13.8577 0 4.87412)
(10.0027 0 0.146267)
(10.0119 0 0.290367)
(10.0281 0 0.43361)
(10.0508 0 0.57718)
(10.0798 0 0.721995)
(10.1152 0 0.868797)
(10.1572 0 1.01819)
(10.2062 0 1.17064)
(10.2626 0 1.3265)
(10.3268 0 1.48596)
(10.3994 0 1.64908)
(10.4809 0 1.8158)
(10.5718 0 1.98588)
(10.6728 0 2.15897)
(10.7843 0 2.33454)
(10.907 0 2.51191)
(11.0414 0 2.69022)
(11.1879 0 2.86849)
(11.3468 0 3.04555)
(11.5184 0 3.22008)
(11.7026 0 3.39065)
(11.8992 0 3.55571)
(12.108 0 3.71367)
(12.3281 0 3.86287)
(12.5587 0 4.00173)
(12.7986 0 4.12874)
(13.0462 0 4.24254)
(13.2999 0 4.34203)
(13.5565 0 4.42634)
(13.8401 0 4.4953)
(10.0031 0 0.141047)
(10.0134 0 0.279959)
(10.0317 0 0.417916)
(10.0573 0 0.555987)
(10.0898 0 0.694993)
(10.1293 0 0.835584)
(10.1759 0 0.978275)
(10.23 0 1.12345)
(10.2918 0 1.27138)
(10.3618 0 1.42216)
(10.4402 0 1.5758)
(10.5276 0 1.73216)
(10.6243 0 1.89094)
(10.7308 0 2.05174)
(10.8474 0 2.21401)
(10.9746 0 2.37705)
(11.1127 0 2.54004)
(11.2618 0 2.70203)
(11.4221 0 2.86195)
(11.5936 0 3.01863)
(11.776 0 3.17081)
(11.9691 0 3.31718)
(12.1722 0 3.45642)
(12.3847 0 3.58722)
(12.6055 0 3.70833)
(12.8334 0 3.81864)
(13.0672 0 3.91716)
(13.3052 0 4.00314)
(13.5449 0 4.07602)
(13.8085 0 4.13581)
(10.0034 0 0.135075)
(10.0148 0 0.268064)
(10.035 0 0.400016)
(10.0631 0 0.531888)