/*--------------------------------*- C++ -*----------------------------------*\
  =========                 |
  \\      /  F ield         | OpenFOAM: The Open Source CFD Toolbox
   \\    /   O peration     | Website:  https://openfoam.org
    \\  /    A nd           | Version:  dev
     \\/     M anipulation  |
\*---------------------------------------------------------------------------*/
FoamFile
{
    version     2.0;
    format      ascii;
    class       volScalarField;
    location    "2.9";
    object      p;
}
// * * * * * * * * * * * * * * * * * * * * * * * * * * * * * * * * * * * * * //

dimensions      [0 2 -2 0 0 0 0];

internalField   nonuniform List<scalar> 
2790
(
147.475
147.382
147.649
148.221
149.001
149.958
151.091
152.397
153.874
155.515
157.315
159.266
161.359
163.584
165.925
168.36
170.865
173.403
175.935
178.409
180.767
182.945
184.875
186.496
187.755
188.629
189.066
189.121
189.172
189.384
147.272
147.29
147.582
148.15
148.927
149.881
151.009
152.31
153.779
155.412
157.202
159.142
161.225
163.439
165.769
168.194
170.69
173.223
175.753
178.231
180.599
182.794
184.749
186.397
187.682
188.556
188.953
189.008
189.14
189.425
147.073
147.161
147.472
148.03
148.794
149.735
150.848
152.131
153.578
155.187
156.949
158.858
160.906
163.082
165.37
167.752
170.204
172.695
175.186
177.634
179.983
182.176
184.148
185.838
187.189
188.164
188.757
189.113
189.428
189.727
146.848
146.967
147.291
147.84
148.589
149.514
150.607
151.866
153.285
154.859
156.583
158.448
160.447
162.568
164.796
167.114
169.498
171.921
174.348
176.739
179.046
181.217
183.199
184.938
186.393
187.545
188.413
189.084
189.636
190.156
146.588
146.72
147.052
147.594
148.326
149.23
150.298
151.525
152.907
154.439
156.113
157.922
159.858
161.909
164.06
166.296
168.594
170.929
173.27
175.583
177.828
179.963
181.946
183.736
185.306
186.649
187.779
188.741
189.552
190.299
146.287
146.425
146.76
147.291
148.004
148.882
149.918
151.107
152.444
153.924
155.539
157.282
159.143
161.111
163.172
165.31
167.505
169.734
171.971
174.186
176.349
178.426
180.388
182.208
183.871
185.373
186.719
187.925
188.945
189.863
145.944
146.083
146.415
146.934
147.623
148.471
149.47
150.616
151.902
153.322
154.869
156.535
158.31
160.182
162.14
164.165
166.241
168.347
170.46
172.556
174.611
176.602
178.509
180.319
182.025
183.625
185.119
186.498
187.663
188.709
145.559
145.697
146.021
146.523
147.187
148.001
148.958
150.054
151.282
152.635
154.105
155.685
157.364
159.13
160.97
162.869
164.81
166.774
168.742
170.694
172.611
174.478
176.285
178.027
179.705
181.324
182.879
184.351
185.601
186.751
145.133
145.266
145.58
146.063
146.698
147.474
148.385
149.426
150.59
151.869
153.255
154.739
156.312
157.96
159.671
161.429
163.219
165.022
166.822
168.6
170.344
172.041
173.689
175.289
176.851
178.385
179.894
181.364
182.635
183.873
144.667
144.795
145.095
145.556
146.158
146.893
147.754
148.735
149.829
151.028
152.323
153.704
155.162
156.682
158.252
159.855
161.477
163.099
164.705
166.279
167.807
169.281
170.699
172.066
173.399
174.717
176.037
177.375
178.575
179.879
144.161
144.283
144.568
145.004
145.572
146.263
147.07
147.987
149.006
150.119
151.316
152.587
153.921
155.304
156.721
158.158
159.595
161.016
162.403
163.738
165.005
166.195
167.302
168.329
169.293
170.221
171.151
172.149
173.111
174.429
143.619
143.733
144.002
144.41
144.941
145.585
146.335
147.184
148.125
149.147
150.241
151.396
152.599
153.836
155.092
156.349
157.587
158.788
159.93
160.992
161.954
162.796
163.504
164.069
164.495
164.804
165.046
165.353
165.734
166.907
143.042
143.149
143.399
143.778
144.27
144.865
145.555
146.333
147.191
148.119
149.105
150.139
151.206
152.29
153.376
154.442
155.47
156.434
157.309
158.068
158.681
159.116
159.337
159.312
159.008
158.409
157.533
156.539
155.589
156.093
142.433
142.531
142.761
143.111
143.562
144.105
144.733
145.438
146.211
147.041
147.916
148.825
149.751
150.677
151.586
152.456
153.261
153.975
154.567
154.999
155.229
155.206
154.868
154.135
152.912
151.081
148.517
145.212
141.259
139.219
141.793
141.883
142.093
142.411
142.82
143.31
143.874
144.504
145.19
145.92
146.682
147.462
148.244
149.01
149.738
150.405
150.983
151.439
151.736
151.827
151.654
151.144
150.199
148.684
146.405
143.072
138.227
131.206
120.733
108.493
2.19939
2.16839
2.06482
1.91959
1.76241
1.60711
1.45832
1.31737
1.18447
1.0593
0.941364
0.830338
0.726146
0.628775
0.538288
0.455502
0.383069
0.325254
0.284817
0.260578
0.248007
0.24305
0.244269
0.247841
0.246583
0.2367
0.213164
0.174644
0.12068
0.0538731
2.12114
2.08547
1.98874
1.85522
1.70976
1.56444
1.42384
1.28955
1.16193
1.04082
0.925922
0.8172
0.714813
0.618791
0.528942
0.445797
0.372357
0.314191
0.275679
0.255216
0.245796
0.242227
0.24489
0.250769
0.252636
0.242613
0.218631
0.1789
0.122467
0.0505069
2.04135
1.99919
1.90662
1.78334
1.64958
1.51476
1.38305
1.25616
1.13452
1.01805
0.906663
0.800612
0.700417
0.606244
0.517538
0.434311
0.360021
0.302314
0.265772
0.245363
0.233669
0.234834
0.242521
0.252516
0.256436
0.247827
0.225413
0.186201
0.129033
0.0507726
1.97217
1.92358
1.83336
1.71779
1.59381
1.46809
1.34434
1.22422
1.10816
0.996089
0.888035
0.784503
0.686445
0.594375
0.507438
0.424167
0.346577
0.286255
0.2556
0.245667
0.239412
0.236079
0.243612
0.255402
0.259923
0.249125
0.223285
0.183392
0.125893
0.0483709
1.9363
1.88134
1.79335
1.68246
1.5645
1.44424
1.32528
1.20922
1.09651
0.987125
0.881098
0.778996
0.681934
0.590879
0.505896
0.426945
0.354742
0.296569
0.256486
0.238181
0.234852
0.236629
0.245623
0.257053
0.260885
0.250157
0.224357
0.181478
0.122113
0.044726
1.95129
1.8878
1.80066
1.68927
1.5712
1.45064
1.33143
1.21526
1.10268
0.9937
0.888312
0.786901
0.690199
0.598916
0.513573
0.435028
0.365751
0.310472
0.271691
0.250183
0.241048
0.240444
0.246715
0.254508
0.255111
0.241958
0.212929
0.171163
0.112533
0.0388878
2.0242
1.95112
1.85608
1.73739
1.6113
1.48383
1.35883
1.23799
1.12184
1.01036
0.903536
0.801606
0.70497
0.614046
0.529238
0.451125
0.381584
0.324869
0.284907
0.260306
0.247382
0.24313
0.244982
0.247847
0.244563
0.229346
0.199947
0.156731
0.0995339
0.0330889
2.15044
2.05998
1.94604
1.81058
1.66915
1.52878
1.39348
1.26492
1.1433
1.02823
0.919298
0.816386
0.719453
0.628521
0.543925
0.466447
0.397936
0.34123
0.298816
0.27019
0.252777
0.243835
0.240384
0.237791
0.23018
0.212472
0.181874
0.138611
0.0840675
0.0272074
2.30022
2.18223
2.0394
1.88067
1.72137
1.56759
1.42188
1.28546
1.15855
1.04029
0.929746
0.826217
0.729543
0.6396
0.556214
0.479899
0.412156
0.35512
0.310465
0.278043
0.256076
0.242119
0.233173
0.225188
0.213383
0.193284
0.161697
0.118403
0.0674931
0.0212573
2.42704
2.27595
2.1099
1.92886
1.75113
1.58471
1.43183
1.2917
1.16291
1.04402
0.93365
0.830881
0.73536
0.646883
0.565125
0.490181
0.423034
0.365354
0.31855
0.282732
0.256567
0.237807
0.223611
0.210584
0.194929
0.172679
0.140104
0.0971977
0.0506163
0.0153337
2.51652
2.33256
2.13916
1.94086
1.75176
1.57792
1.42088
1.27951
1.15166
1.0349
0.927038
0.826828
0.733979
0.648311
0.569209
0.496181
0.429698
0.371257
0.322432
0.283689
0.253932
0.230932
0.212011
0.194438
0.17537
0.151307
0.118208
0.0758251
0.0338429
0.00951465
2.53298
2.31722
2.09801
1.88655
1.69592
1.52685
1.3766
1.24215
1.12123
1.01118
0.909036
0.813405
0.724693
0.643256
0.568073
0.49769
0.431978
0.372609
0.321826
0.280667
0.248106
0.221661
0.198667
0.177052
0.154987
0.129527
0.0963218
0.0548121
0.0174451
0.00386962
2.39118
2.13642
1.92592
1.73733
1.57142
1.42623
1.29661
1.17834
1.07105
0.973038
0.88021
0.790951
0.707481
0.631707
0.56203
0.495223
0.430275
0.369523
0.316618
0.273555
0.239178
0.210272
0.183887
0.158627
0.133874
0.107477
0.0747706
0.0345897
0.00170874
-0.00152811
1.98294
1.70205
1.57693
1.47829
1.37382
1.27693
1.18493
1.09169
1.00348
0.922969
0.843161
0.76108
0.682839
0.614023
0.552033
0.49007
0.425567
0.362364
0.306738
0.262281
0.227372
0.197212
0.16807
0.139324
0.111956
0.0849955
0.0535715
0.0155904
-0.0129455
-0.00657528
1.1423
0.848781
0.987679
1.12082
1.11564
1.09136
1.05587
0.991099
0.921442
0.864266
0.802453
0.726746
0.651409
0.590424
0.539538
0.484324
0.419293
0.351471
0.291804
0.246504
0.212877
0.183022
0.151627
0.119166
0.0889174
0.0616964
0.0326535
-0.00182364
-0.0257656
-0.0110293
141.114
141.195
141.383
141.668
142.033
142.468
142.966
143.518
144.114
144.741
145.386
146.034
146.669
147.269
147.812
148.271
148.615
148.807
148.802
148.542
147.956
146.948
145.385
143.072
139.71
134.803
127.431
115.674
93.4921
33.5979
140.387
140.458
140.624
140.874
141.193
141.571
142.001
142.472
142.974
143.494
144.019
144.531
145.014
145.444
145.797
146.045
146.152
146.076
145.766
145.157
144.165
142.676
140.531
137.5
133.224
127.12
118.153
104.592
85.0738
56.6542
139.617
139.678
139.821
140.035
140.307
140.626
140.985
141.373
141.78
142.191
142.593
142.968
143.297
143.556
143.719
143.755
143.626
143.288
142.683
141.741
140.372
138.454
135.824
132.25
127.409
120.846
111.973
100.154
85.951
69.4011
138.806
138.858
138.976
139.154
139.377
139.636
139.923
140.227
140.537
140.839
141.117
141.354
141.529
141.619
141.595
141.424
141.067
140.477
139.597
138.352
136.653
134.382
131.387
127.472
122.391
115.852
107.56
97.1871
84.6738
69.5862
137.956
137.997
138.092
138.231
138.405
138.604
138.818
139.037
139.25
139.443
139.599
139.699
139.724
139.647
139.442
139.073
138.501
137.679
136.548
135.04
133.068
130.525
127.284
123.188
118.057
111.693
103.897
94.4277
83.1192
70.1796
137.069
137.1
137.17
137.272
137.396
137.533
137.675
137.81
137.927
138.011
138.046
138.013
137.892
137.656
137.277
136.723
135.953
134.921
133.574
131.845
129.658
126.923
123.534
119.373
114.309
108.209
100.952
92.4381
82.6599
72.0307
136.148
136.168
136.213
136.277
136.352
136.429
136.499
136.551
136.573
136.551
136.469
136.308
136.046
135.659
135.12
134.394
133.446
132.232
130.701
128.797
126.452
123.594
120.14
116.003
111.096
105.342
98.6863
91.1181
82.6818
73.7127
135.196
135.205
135.226
135.253
135.279
135.296
135.295
135.266
135.196
135.072
134.877
134.593
134.199
133.672
132.985
132.106
131.002
129.633
127.954
125.916
123.466
120.544
117.09
113.045
108.356
102.983
96.9128
90.1659
82.7922
75.0631
134.216
134.215
134.212
134.202
134.18
134.139
134.07
133.962
133.803
133.581
133.279
132.88
132.364
131.709
130.888
129.875
128.637
127.14
125.347
123.216
120.704
117.767
114.364
110.455
106.013
101.023
95.4906
89.4505
82.9561
76.2345
133.213
133.202
133.175
133.129
133.061
132.964
132.828
132.645
132.402
132.088
131.686
131.18
130.552
129.781
128.843
127.714
126.366
124.768
122.891
120.7
118.164
115.251
111.934
108.189
104.005
99.382
94.3388
88.9142
83.1612
77.2643
132.19
132.17
132.12
132.041
131.928
131.776
131.578
131.323
131.001
130.6
130.106
129.503
128.774
127.901
126.862
125.635
124.198
122.525
120.591
118.371
115.841
112.98
109.771
106.204
102.277
97.9999
93.3966
88.5061
83.3761
78.1547
131.154
131.124
131.053
130.941
130.785
130.582
130.325
130.003
129.608
129.127
128.549
127.858
127.04
126.078
124.953
123.648
122.142
120.415
118.448
116.222
113.722
110.933
107.847
104.463
100.784
96.8265
92.6149
88.1857
83.5804
78.9181
130.109
130.071
129.979
129.835
129.64
129.389
129.076
128.693
128.229
127.676
127.022
126.254
125.358
124.321
123.126
121.758
120.201
118.44
116.46
114.248
111.795
109.091
106.136
102.932
99.4879
95.8214
91.9567
87.9259
83.7649
79.5696
129.061
129.015
128.904
128.731
128.499
128.203
127.839
127.399
126.874
126.256
125.535
124.699
123.737
122.637
121.385
119.97
118.379
116.6
114.623
112.44
110.045
107.435
104.612
101.582
98.3566
94.9532
91.3943
87.7082
83.9251
80.1228
128.017
127.963
127.834
127.634
127.367
127.031
126.62
126.129
125.549
124.873
124.093
123.2
122.182
121.031
119.736
118.287
116.676
114.893
112.932
110.788
108.459
105.946
103.253
100.388
97.3641
94.1968
90.9072
87.5196
84.0593
80.5896
126.982
126.921
126.776
126.551
126.253
125.88
125.427
124.889
124.261
123.535
122.705
121.763
120.7
119.509
118.181
116.711
115.09
113.314
111.378
109.281
107.024
104.608
102.04
99.33
96.489
93.5328
90.4799
87.351
84.1674
80.9808
125.964
125.896
125.736
125.489
125.163
124.756
124.266
123.688
123.017
122.248
121.376
120.393
119.294
118.073
116.723
115.241
113.62
111.859
109.956
107.911
105.726
103.406
100.957
98.3892
95.7141
92.946
90.1008
87.1965
84.2509
81.3064
124.968
124.895
124.722
124.455
124.103
123.667
123.144
122.531
121.824
121.019
120.111
119.096
117.969
116.726
115.363
113.876
112.264
110.525
108.659
106.668
104.555
102.326
99.9885
97.5513
95.0257
92.4244
89.7615
87.0523
84.3117
81.5749
124.004
123.925
123.74
123.456
123.081
122.62
122.068
121.425
120.687
119.852
118.915
117.875
116.728
115.471
114.101
112.617
111.018
109.305
107.479
105.542
103.5
101.358
99.1229
96.8045
94.4127
91.9591
89.4558
86.916
84.3525
81.7941
123.077
122.993
122.798
122.498
122.105
121.621
121.045
120.376
119.613
118.753
117.794
116.735
115.574
114.308
112.937
111.461
109.88
108.196
106.41
104.528
102.552
100.491
98.3502
96.139
93.8665
91.543
89.1794
86.7867
84.3759
81.9712
122.195
122.108
121.903
121.59
121.18
120.677
120.081
119.391
118.607
117.727
116.752
115.679
114.508
113.239
111.872
110.408
108.847
107.193
105.448
103.617
101.705
99.7176
97.6624
95.5471
93.3804
91.1712
88.9292
86.664
84.385
82.1124
121.367
121.276
121.064
120.739
120.315
119.796
119.183
118.476
117.675
116.78
115.792
114.71
113.534
112.266
110.906
109.455
107.917
106.293
104.587
102.805
100.951
99.0315
97.0531
95.0231
92.9494
90.8401
88.7037
86.5485
84.383
82.2237
120.6
120.506
120.287
119.952
119.516
118.984
118.357
117.636
116.822
115.916
114.919
113.831
112.654
111.389
110.038
108.603
107.086
105.492
103.824
102.087
100.286
98.4273
96.5171
94.5621
92.5696
90.547
88.5016
86.441
84.3724
82.3099
119.903
119.806
119.581
119.238
118.791
118.248
117.61
116.878
116.054
115.14
114.137
113.047
111.871
110.611
109.27
107.851
106.356
104.79
103.156
101.46
99.7068
97.9019
96.0514
94.1617
92.2394
90.2911
88.3237
86.3437
84.3575
82.377
119.283
119.184
118.953
118.602
118.147
117.595
116.948
116.207
115.376
114.456
113.45
112.359
111.185
109.932
108.602
107.198
105.724
104.183
102.581
100.921
99.2094
97.4512
95.6522
93.8184
91.9558
90.0706
88.1688
86.2564
84.3392
82.4271
118.751
118.649
118.413
118.055
117.592
117.033
116.379
115.632
114.796
113.872
112.864
111.774
110.604
109.358
108.038
106.648
105.193
103.675
102.1
100.471
98.7953
97.0768
95.3212
93.5342
91.7215
89.8886
88.0412
86.1848
84.3247
82.4693
118.316
118.211
117.967
117.601
117.132
116.566
115.906
115.155
114.315
113.389
112.38
111.291
110.126
108.886
107.576
106.199
104.76
103.261
101.708
100.106
98.4596
96.7735
95.0531
93.3039
91.5311
89.74
87.9359
86.1239
84.3086
82.4972
117.99
117.879
117.626
117.253
116.779
116.209
115.545
114.79
113.947
113.02
112.012
110.925
109.763
108.529
107.227
105.861
104.434
102.951
101.417
99.8353
98.2118
96.5511
94.8583
93.1385
91.3967
89.6382
87.8677
86.0901
84.3101
82.5338
117.788
117.653
117.383
117.004
116.528
115.955
115.289
114.532
113.688
112.761
111.753
110.668
109.51
108.281
106.985
105.626
104.209
102.737
101.215
99.648
98.0401
96.3965
94.7221
93.0219
91.3007
89.5634
87.8147
86.0593
84.3015
82.5464
117.769
117.57
117.272
116.887
116.408
115.832
115.163
114.404
113.56
112.632
111.625
110.542
109.386
108.161
106.869
105.516
104.106
102.641
101.128
99.5704
97.9729
96.3405
94.6779
92.99
91.2816
89.5576
87.8224
86.0805
84.3364
82.5943
-50.584
-30.4254
-10.936
36.3964
29.1702
17.5757
52.0344
40.0684
29.0172
53.3829
43.0142
35.0342
57.6791
49.4333
42.7193
62.0388
55.1621
49.2998
65.2806
59.4214
54.391
67.8467
62.837
58.5403
70.009
65.6872
61.9864
71.8334
68.0616
64.8396
73.3665
70.0407
67.2067
74.6576
71.6977
69.1807
75.7468
73.0901
70.8343
76.666
74.263
72.2247
77.4416
75.2526
73.397
78.0953
76.0881
74.3872
78.645
76.7934
75.2243
79.106
77.388
75.9315
79.4909
77.8881
76.5283
79.8109
78.3074
77.0307
80.0752
78.6576
77.4522
80.2925
78.9488
77.8046
80.4694
79.189
78.0971
80.6139
79.3874
78.3396
80.7285
79.5472
78.5366
80.8249
79.681
78.7004
80.8944
79.7803
78.8245
80.9656
79.8742
78.9356
80.9985
79.9235
78.9989
81.0673
80.0064
79.0883
-1.76585
-1.59212
-0.197393
0.80234
0.872044
0.886795
0.918988
0.880683
0.822937
0.802806
0.769039
0.693914
0.612441
0.558666
0.525696
0.481119
0.413489
0.336963
0.270712
0.225238
0.195766
0.168447
0.135013
0.0978887
0.0639154
0.0365948
0.0115071
-0.0173049
-0.0361027
-0.0146617
3.93151
0.756318
1.67914
1.3914
0.406621
0.37061
0.781001
0.850431
0.747337
0.75164
0.747822
0.656734
0.552226
0.510277
0.514836
0.489282
0.412813
0.318772
0.240681
0.195879
0.175853
0.154822
0.119001
0.0750062
0.0355687
0.00808944
-0.0108429
-0.0304928
-0.0430226
-0.0170735
14.8357
6.36869
3.43644
1.37263
0.801446
1.31986
1.54548
0.861279
0.349845
0.478716
0.744481
0.678992
0.514958
0.4738
0.524202
0.515973
0.414155
0.289127
0.193934
0.15441
0.154949
0.146453
0.106122
0.0507285
0.0028717
-0.0250662
-0.0350606
-0.0402693
-0.0441266
-0.0175674
24.3584
14.5263
8.70715
4.9934
3.03459
2.1358
1.31762
0.711239
0.582605
1.15436
1.32321
0.710671
0.267391
0.200745
0.408428
0.568363
0.447014
0.271836
0.148453
0.112585
0.140326
0.147568
0.0962125
0.0219532
-0.0377936
-0.0657768
-0.063108
-0.0462654
-0.0356315
-0.0152709
33.4303
23.7088
16.4064
11.0918
7.39424
4.87753
3.10919
2.01065
1.44897
1.31614
0.994664
0.615886
0.326126
0.382117
0.890794
0.935988
0.459205
0.161471
-0.00271677
-0.024904
0.0759971
0.159757
0.101948
-0.00267134
-0.0798588
-0.108219
-0.0905583
-0.0448494
-0.00858258
-0.00900579
41.3337
32.4315
24.553
18.1187
13.1782
9.50052
6.7973
4.85101
3.48121
2.54477
1.81336
1.25128
0.833786
0.688982
0.795346
0.711654
0.471486
0.211716
0.0402721
0.0411175
0.24576
0.311656
0.101801
-0.0705527
-0.169381
-0.190638
-0.149996
-0.0676064
0.0266379
-0.00524286
47.7771
39.987
32.2219
25.335
19.6975
15.2066
11.6526
8.86488
6.71609
5.0921
3.84538
2.8611
2.10588
1.61387
1.33406
1.0754
0.765222
0.435571
0.202416
0.129024
0.187231
0.180245
0.0638351
-0.0789575
-0.170833
-0.180199
-0.119988
-0.0264481
0.168395
0.0485496
53.0264
46.3043
39.054
32.225
26.3322
21.3667
17.2044
13.7535
10.9398
8.67709
6.85385
5.37434
4.19658
3.30586
2.64843
2.10369
1.58473
1.11004
0.752058
0.542842
0.443569
0.34507
0.193536
0.0201884
-0.101125
-0.137561
-0.0988064
-0.0139115
0.131312
-0.0485223
57.3098
51.4972
44.9159
38.4411
32.6152
27.4889
22.9998
19.1118
15.7939
12.9958
10.6479
8.68476
7.06149
5.74369
4.6796
3.78691
3.0018
2.32197
1.77668
1.37629
1.08824
0.842021
0.589522
0.347872
0.167036
0.0710745
0.0497283
0.0715522
0.0850629
-0.310845
60.8054
55.7386
49.8358
43.8479
38.2863
33.2284
28.6458
24.5345
20.8962
17.7141
14.953
12.5723
10.5351
8.80701
7.34532
6.09492
5.00957
4.07259
3.28732
2.65106
2.13744
1.69932
1.30147
0.947569
0.662927
0.459897
0.324316
0.214315
0.0411541
-0.535524
63.6761
59.2153
53.9329
48.4601
43.2557
38.4025
33.8879
29.7238
25.9313
22.5164
19.4682
16.7661
14.3865
12.3038
10.4874
8.9001
7.50782
6.29005
5.23823
4.34275
3.58189
2.92307
2.33962
1.8255
1.38851
1.03016
0.731251
0.444063
0.078907
-0.620981
66.0535
62.0872
57.3454
52.3607
47.5376
42.9542
38.6036
34.503
30.6823
27.1603
23.9413
21.0198
18.3847
16.0213
13.91
12.0267
10.3475
8.85391
7.53378
6.37492
5.35921
4.4629
3.66464
2.95345
2.32633
1.77641
1.28126
0.795182
0.245086
-0.55432
68.0364
64.4775
60.1977
55.6522
51.1972
46.9028
42.7628
38.7942
35.029
31.4917
28.1954
25.1443
22.3371
19.768
17.4267
15.2992
13.3701
11.6252
10.0529
8.64148
7.37597
6.23838
5.21124
4.28183
3.44118
2.67733
1.96744
1.2726
0.539506
-0.360692
69.6992
66.4795
62.5926
58.4331
54.3165
50.3046
46.3899
42.587
38.9262
35.434
32.1275
29.0166
26.1063
23.3976
20.8872
18.5687
16.4331
14.4713
12.6738
11.0311
9.5311
8.16009
6.90372
5.74928
4.68523
3.69759
2.76525
1.85735
0.937525
-0.0790271
71.0995
68.1646
64.6122
60.7886
56.9754
53.2272
49.5345
45.9086
42.377
38.9655
35.6926
32.5712
29.6101
26.8146
24.1865
21.7246
19.4252
17.283
15.2918
13.4444
11.7318
10.1433
8.66733
7.29213
6.00582
4.79442
3.63955
2.5176
1.40439
0.248795
72.2818
69.5876
66.3211
62.7887
59.2444
55.7361
52.253
48.8027
45.4095
42.0974
38.8846
35.7853
32.8102
29.9674
27.2619
24.6962
22.2701
19.9819
17.8281
15.804
13.903
12.1173
10.4373
8.85299
7.35311
5.92481
4.55246
3.21795
1.90467
0.586048
73.2817
70.7919
67.7702
64.4904
61.1827
57.89
54.5999
51.317
48.0622
44.8571
41.719
38.6621
35.698
32.836
30.0834
27.4449
24.923
22.5185
20.2303
18.0557
15.9906
14.029
12.1636
10.3857
8.68534
7.05109
5.46962
3.92636
2.40852
0.90619
74.1275
71.8117
69.0004
65.9396
62.8395
59.7388
56.6238
53.4968
50.375
47.2779
44.2213
41.2187
38.2816
35.4202
32.6426
29.9551
27.3621
24.866
22.4677
20.1663
17.9594
15.8429
13.811
11.8566
9.97092
8.14387
6.36369
4.61782
2.89458
1.19415
74.8425
72.6752
70.0448
67.1738
64.2554
61.3246
58.367
55.3826
52.3857
49.3934
46.4199
43.4776
40.5776
37.7301
34.9436
32.2252
29.5804
27.013
24.5252
22.1175
19.789
17.537
15.357
13.2432
11.1881
9.18231
7.21528
5.27517
3.34985
1.44461
75.4458
73.4054
70.9306
68.224
65.464
62.6828
59.8656
57.0101
54.1285
51.2352
48.3431
45.4632
42.6059
39.7809
36.9969
34.2612
31.5799
28.9576
26.3976
23.9014
21.4691
19.0993
16.7885
14.5319
12.3229
10.153
8.01192
5.88804
3.76803
1.65886
75.9535
74.0211
71.6801
69.1157
66.4935
63.8433
61.1501
58.4101
55.6331
52.8317
50.017
47.1989
44.3867
41.5896
38.8158
36.0728
33.3668
30.7031
28.0852
25.5157
22.9955
20.5238
18.0982
15.7146
13.3671
11.0476
8.74616
6.45082
4.14694
1.84121
76.3792
74.5389
72.3124
69.8704
67.3675
64.8314
62.247
59.6093
56.9262
54.2085
51.4658
48.7067
45.9397
43.1731
40.4146
37.6715
34.9499
32.2553
29.5917
26.962
24.3676
21.8085
19.2829
16.7873
14.3161
11.8617
9.41425
6.96125
4.48701
1.99684
76.7339
74.9716
72.8429
70.5057
68.1053
65.6677
63.1779
60.6299
58.0299
55.3872
52.71
50.006
47.2825
44.5469
41.8066
39.0682
36.3378
33.6208
30.9213
28.2426
25.5863
22.9528
20.3409
17.7473
15.1669
12.5923
10.0136
7.41783
4.78862
2.1294
77.0287
75.3318
73.2858
71.0378
68.7246
66.3712
63.9627
61.4922
58.9647
56.388
53.7694
51.1153
48.4322
45.7267
43.0056
40.275
37.5407
34.8079
32.0806
29.3623
26.6548
23.9588
21.2732
18.5951
15.9196
13.2394
10.5444
7.82166
5.05409
2.24281
77.2695
75.627
73.6501
71.4767
69.2368
66.9543
64.6145
62.21
59.7445
57.2248
54.6572
52.0472
49.4004
46.7229
44.0206
41.2993
38.5643
35.8206
33.0721
30.3223
27.573
24.825
22.0775
19.3276
16.5706
13.7992
11.0034
8.16991
5.28146
2.33679
77.4682
75.8699
73.9498
71.8377
69.6581
67.4341
65.1512
62.8015
60.3878
57.916
55.3916
52.8193
50.2042
47.5515
44.8666
42.1548
39.4211
36.6702
33.9058
31.1313
28.3485
25.5583
22.7597
19.9502
17.1251
14.2769
11.3957
8.46804
5.47647
2.41657
77.6215
76.0581
74.1828
72.1194
69.9878
67.8103
65.5728
63.267
60.8949
58.4618
55.9725
53.4311
50.8421
48.2101
45.5402
42.8371
40.1056
37.3499
34.5739
31.7805
28.9716
26.1479
23.3088
20.4515
17.5712
14.6608
11.7099
8.70516
5.62916
2.47513
77.7517
76.214
74.3728
72.3464
70.2509
68.1087
65.9056
63.6331
61.2928
58.8892
56.4268
53.9092
51.3405
48.7248
46.0667
43.3708
40.6415
37.8828
35.0983
32.2909
29.4625
26.6136
23.7436
20.8497
17.9271
14.9685
11.9636
8.89863
5.75607
2.52522
77.8316
76.3101
74.4913
72.49
70.419
68.3002
66.1202
63.87
61.551
59.1673
56.723
54.2215
51.6664
49.0618
46.4119
43.7211
40.9934
38.2329
35.443
32.6264
29.785
26.9193
24.0285
21.1099
18.1586
15.1672
12.1251
9.01831
5.82918
2.54532
77.9203
76.3999
74.5934
72.6071
70.5498
68.4437
66.2758
64.0375
61.7295
59.356
56.9208
54.4272
51.8787
49.2791
46.6326
43.9435
41.2157
38.4531
35.6592
32.8366
29.9871
27.1114
24.2085
21.2758
18.3083
15.2984
12.2353
9.10405
5.88444
2.55229
)
;

boundaryField
{
    inlet
    {
        type            zeroGradient;
    }
    outlet
    {
        type            fixedValue;
        value           uniform 0;
    }
    flap
    {
        type            zeroGradient;
    }
    upperWall
    {
        type            zeroGradient;
    }
    lowerWall
    {
        type            zeroGradient;
    }
    frontAndBack
    {
        type            empty;
    }
}


// ************************************************************************* //
