/*--------------------------------*- C++ -*----------------------------------*\
  =========                 |
  \\      /  F ield         | OpenFOAM: The Open Source CFD Toolbox
   \\    /   O peration     | Website:  https://openfoam.org
    \\  /    A nd           | Version:  dev
     \\/     M anipulation  |
\*---------------------------------------------------------------------------*/
FoamFile
{
    version     2.0;
    format      ascii;
    class       surfaceScalarField;
    location    "2.9";
    object      phi;
}
// * * * * * * * * * * * * * * * * * * * * * * * * * * * * * * * * * * * * * //

dimensions      [0 3 -1 0 0 0 0];

internalField   nonuniform List<scalar> 
5457
(
0.198418
0.00158242
0.19648
0.00193744
0.194192
0.00228818
0.191508
0.00268369
0.188427
0.00308132
0.18495
0.00347689
0.181071
0.0038787
0.176777
0.00429413
0.172049
0.00472832
0.166864
0.00518529
0.161195
0.00566854
0.155014
0.00618102
0.148289
0.00672491
0.140988
0.00730123
0.133079
0.00790934
0.124532
0.00854623
0.115327
0.00920563
0.10545
0.00987688
0.0949061
0.0105437
0.0837229
0.0111832
0.0719586
0.0117643
0.0597106
0.012248
0.0471222
0.0125885
0.0343822
0.01274
0.0216872
0.0126949
0.00903714
0.0126501
-0.00291611
0.0119533
-0.00847176
0.00555565
-0.00804266
-0.000429099
-0.00804266
0.199928
0.0016543
0.199176
0.00268995
0.197965
0.00349921
0.196331
0.00431699
0.194271
0.0051415
0.191781
0.0059671
0.188854
0.00680581
0.185477
0.00767112
0.181632
0.00857334
0.177296
0.00952078
0.172444
0.0105207
0.167046
0.0115794
0.161069
0.0127016
0.15448
0.0138901
0.147245
0.0151443
0.139332
0.0164591
0.130715
0.0178233
0.121375
0.0192167
0.11131
0.0206082
0.100541
0.0219527
0.0891166
0.0231884
0.0771293
0.0242353
0.0647236
0.0249942
0.0521163
0.0253473
0.039656
0.0251552
0.0281059
0.0242002
0.0185952
0.021464
0.00879709
0.0153537
0.00118342
0.00718457
-0.00685925
0.199781
0.00187378
0.199087
0.00338387
0.197946
0.00464024
0.196409
0.00585373
0.194483
0.00706777
0.192163
0.00828629
0.189446
0.00952339
0.18632
0.0107967
0.182772
0.0121214
0.178783
0.0135097
0.174331
0.0149729
0.16939
0.0165204
0.163931
0.0181602
0.157924
0.0198972
0.151336
0.0217324
0.144135
0.0236607
0.136289
0.0256685
0.127776
0.0277303
0.118579
0.0298048
0.108702
0.0318303
0.0981701
0.03372
0.0870481
0.0353573
0.0754516
0.0365907
0.0635747
0.0372243
0.0517329
0.036997
0.0403976
0.0355354
0.0297392
0.0321224
0.0191662
0.0259267
0.0095976
0.0167532
0.00273836
0.199703
0.00217075
0.199008
0.00407925
0.197887
0.00576088
0.196376
0.00736477
0.194488
0.00895603
0.192222
0.0105524
0.189574
0.0121712
0.186538
0.0138329
0.183103
0.0155559
0.179256
0.0173563
0.174981
0.019248
0.170259
0.0212431
0.165067
0.0233519
0.159383
0.0255813
0.153181
0.027934
0.146436
0.0304057
0.139122
0.0329827
0.131215
0.0356374
0.122696
0.0383237
0.113556
0.0409708
0.103799
0.0434765
0.0934569
0.0456996
0.082596
0.0474516
0.0713334
0.0484869
0.0598415
0.0484888
0.0483175
0.0470595
0.0368114
0.0436285
0.0251882
0.0375499
0.0133358
0.0286057
0.0160741
0.199667
0.00250338
0.198964
0.0047826
0.197863
0.0068623
0.196381
0.00884658
0.194532
0.010805
0.192317
0.0127672
0.189733
0.0147552
0.186774
0.0167916
0.183433
0.0188978
0.179697
0.0210922
0.175554
0.023391
0.170988
0.0258082
0.165985
0.0283556
0.160525
0.0310415
0.154589
0.0338694
0.148159
0.0368361
0.141213
0.0399283
0.133732
0.0431186
0.125695
0.0463602
0.117086
0.0495798
0.107893
0.0526696
0.0981147
0.0554782
0.0877651
0.0578012
0.0768793
0.0593727
0.0655095
0.0598586
0.0537088
0.0588602
0.0414547
0.0558826
0.0285882
0.0504164
0.0148526
0.0423413
0.0309267
0.199653
0.00285063
0.198949
0.00548674
0.197871
0.00794037
0.196426
0.0102909
0.194626
0.0126051
0.192472
0.0149209
0.189963
0.017265
0.187092
0.0196626
0.183852
0.0221372
0.180235
0.0247096
0.176228
0.0273976
0.171819
0.030217
0.166995
0.0331805
0.161739
0.0362974
0.156036
0.0395722
0.149869
0.0430025
0.143221
0.0465762
0.136072
0.0502677
0.1284
0.0540321
0.120181
0.057799
0.111387
0.0614635
0.101989
0.0648766
0.0919551
0.067835
0.0812546
0.0700731
0.069855
0.0712582
0.0577178
0.0709974
0.0447615
0.0688388
0.0308498
0.0643281
0.0158735
0.0573176
0.0468002
0.19965
0.00320062
0.198954
0.00618282
0.197904
0.00899012
0.196504
0.0116908
0.194762
0.0143475
0.19268
0.0170031
0.190256
0.0196888
0.187486
0.0224324
0.184364
0.0252595
0.180881
0.0281927
0.177027
0.0312517
0.17279
0.0344537
0.168158
0.0378126
0.163116
0.041339
0.15765
0.0450384
0.151743
0.0489099
0.145375
0.0529436
0.138526
0.0571169
0.131168
0.06139
0.123268
0.0656994
0.114782
0.0699498
0.105654
0.0740039
0.095817
0.0776724
0.0851869
0.0807032
0.0736693
0.0827758
0.0611627
0.083504
0.0475564
0.0824451
0.0327596
0.0791249
0.0167834
0.0732937
0.0635836
0.199655
0.00354602
0.198974
0.00686303
0.197958
0.010006
0.19661
0.0130397
0.194933
0.0160238
0.192933
0.0190039
0.190606
0.0220151
0.187951
0.0250879
0.184961
0.0282497
0.181628
0.031525
0.177945
0.0349353
0.173899
0.0384992
0.16948
0.0422323
0.164672
0.0461465
0.159461
0.0502492
0.153829
0.0545421
0.147754
0.0590186
0.14121
0.0636613
0.134162
0.0684379
0.126566
0.0732957
0.118361
0.0781543
0.109469
0.0828961
0.0997867
0.0873544
0.0891881
0.0913018
0.0775264
0.0944375
0.064649
0.0963814
0.0504191
0.096675
0.0347696
0.0947745
0.0177906
0.0902727
0.0813743
0.199664
0.00388191
0.199006
0.00752094
0.19803
0.0109824
0.196738
0.0143313
0.195136
0.017626
0.193226
0.0209139
0.191008
0.0242332
0.188479
0.0276167
0.185635
0.0310939
0.182469
0.0346909
0.178973
0.0384309
0.175138
0.0423343
0.170952
0.0464183
0.166402
0.0506969
0.161471
0.0551803
0.156139
0.0598734
0.150383
0.0647747
0.14417
0.0698739
0.137459
0.075149
0.130193
0.0805617
0.122296
0.0860514
0.113666
0.0915264
0.104168
0.0968521
0.0936349
0.101835
0.0818664
0.106206
0.0686517
0.109596
0.0538045
0.111522
0.0372387
0.11134
0.0190847
0.108427
0.100459
0.199677
0.00420474
0.199047
0.00815129
0.198115
0.0119139
0.196887
0.0155597
0.195366
0.0191471
0.193555
0.0227248
0.191455
0.0263333
0.189064
0.0300078
0.186378
0.0337794
0.183393
0.037676
0.180102
0.0417224
0.176495
0.0459407
0.172563
0.0503501
0.168293
0.0549672
0.163668
0.0598052
0.158668
0.0648736
0.153266
0.0701772
0.147425
0.0757145
0.141098
0.0814762
0.134218
0.0874417
0.126694
0.0935749
0.118404
0.0998164
0.109184
0.106073
0.0988207
0.112198
0.0870549
0.117972
0.0735931
0.123058
0.0581522
0.126963
0.0405553
0.128937
0.0209034
0.128079
0.121362
0.199693
0.00451188
0.199094
0.00874978
0.198213
0.0127956
0.197053
0.0167196
0.195619
0.0205807
0.193915
0.0244289
0.191942
0.0283066
0.189699
0.032251
0.187183
0.0362947
0.184392
0.0404672
0.181319
0.0447949
0.177959
0.0493015
0.1743
0.0540083
0.170333
0.0589347
0.166041
0.0640974
0.161403
0.069511
0.156393
0.0751874
0.150972
0.0811353
0.145089
0.0873597
0.13867
0.0938603
0.131616
0.100629
0.123788
0.107645
0.114996
0.114865
0.104984
0.12221
0.0934221
0.129534
0.0799027
0.136577
0.0639735
0.142892
0.0452402
0.14767
0.0236151
0.149704
0.144978
0.199711
0.00480125
0.199147
0.00931292
0.19832
0.0136234
0.197233
0.0178061
0.195893
0.0219211
0.194302
0.0260195
0.192463
0.0301455
0.190377
0.0343375
0.188042
0.0386298
0.185456
0.0430532
0.182615
0.0476353
0.179515
0.0524015
0.176148
0.0573753
0.172505
0.0625785
0.16857
0.0680316
0.164327
0.0737543
0.159748
0.0797659
0.154798
0.0860856
0.149425
0.0927332
0.143556
0.0997295
0.137088
0.107097
0.129876
0.114856
0.121715
0.123026
0.112316
0.131609
0.101277
0.140573
0.0880518
0.149803
0.0719315
0.159013
0.052095
0.167507
0.0278917
0.173907
0.172869
0.19973
0.00507125
0.199205
0.00983782
0.198435
0.0143936
0.197426
0.018815
0.196184
0.0231635
0.194712
0.0274911
0.193014
0.0318432
0.191092
0.0362598
0.188946
0.0407761
0.186575
0.045424
0.183978
0.0502323
0.181152
0.0552278
0.178091
0.0604357
0.17479
0.0658801
0.171236
0.071585
0.167416
0.0775747
0.163307
0.0838753
0.158877
0.0905157
0.15408
0.0975297
0.148852
0.104958
0.143096
0.112852
0.136676
0.121276
0.129391
0.130311
0.120943
0.140057
0.110888
0.150628
0.098552
0.162139
0.0829139
0.174651
0.0624502
0.187971
0.0351363
0.201221
0.208006
0.199751
0.00532061
0.199266
0.0103222
0.198557
0.0151032
0.197629
0.0197428
0.196489
0.0243036
0.195141
0.0288387
0.19359
0.0333945
0.191838
0.0380117
0.189887
0.0427266
0.18774
0.0475717
0.185395
0.0525768
0.182853
0.0577697
0.180112
0.0631768
0.177168
0.0688241
0.174015
0.0747381
0.170643
0.0809472
0.167035
0.0874827
0.163169
0.0943814
0.159011
0.101688
0.154509
0.10946
0.149588
0.117773
0.144137
0.126726
0.13799
0.136459
0.130886
0.14716
0.122412
0.159103
0.111872
0.172678
0.0980359
0.188487
0.0785617
0.207445
0.0486875
0.231095
0.256693
0.199772
0.00554839
0.19933
0.0107643
0.198684
0.0157499
0.19784
0.0205866
0.196805
0.0253383
0.195585
0.0300588
0.194184
0.034795
0.192608
0.0395884
0.190858
0.0444759
0.18894
0.0494903
0.186855
0.054662
0.184605
0.0600191
0.182193
0.065589
0.179618
0.0713987
0.17688
0.0774765
0.173975
0.0838528
0.170895
0.0905627
0.167628
0.0976477
0.164156
0.10516
0.16045
0.113167
0.156466
0.121757
0.152138
0.131054
0.147367
0.14123
0.141993
0.152534
0.135756
0.16534
0.128184
0.180251
0.118337
0.198333
0.103965
0.221817
0.0777451
0.257315
0.334438
0.00489526
-0.00489526
0.00946078
-0.00456552
0.0133377
-0.00387688
0.0165793
-0.00324161
0.0192995
-0.00272028
0.021601
-0.0023015
0.0235695
-0.00196848
0.0252753
-0.0017058
0.0267726
-0.0014973
0.0280997
-0.00132712
0.0292821
-0.00118233
0.030337
-0.00105495
0.0312781
-0.000941044
0.0321119
-0.00083382
0.0328259
-0.00071396
0.0333783
-0.000552457
0.0337178
-0.000339502
0.0338338
-0.000115956
0.0337663
6.74589e-05
0.033578
0.000188281
0.0333022
0.000275858
0.0329614
0.000340761
0.0326351
0.000326271
0.0324343
0.000200884
0.0324426
-8.37565e-06
0.0327207
-0.000278099
0.0332539
-0.000533127
0.0340075
-0.000753612
0.0349012
-0.000893772
-0.000855418
0.00422141
-0.00911666
0.00830645
-0.00865056
0.0118465
-0.00741693
0.0148629
-0.00625803
0.0174537
-0.00531109
0.0197066
-0.00455437
0.0216927
-0.00395454
0.0234688
-0.00348189
0.0250781
-0.0031066
0.0265507
-0.0027998
0.0279059
-0.00253748
0.0291562
-0.0023053
0.030315
-0.00209986
0.0313981
-0.00191686
0.0324121
-0.001728
0.0333349
-0.00147519
0.0341171
-0.00112172
0.0347226
-0.000721471
0.0351841
-0.000394076
0.0355601
-0.000187696
0.0358637
-2.77008e-05
0.0360637
0.00014071
0.036232
0.000157995
0.0364207
1.2217e-05
0.0366494
-0.000237148
0.0369129
-0.000541584
0.0372281
-0.000848268
0.0376035
-0.00112906
0.0380653
-0.00135557
-0.00134082
0.00334384
-0.0124605
0.0065086
-0.0118153
0.00921539
-0.0101237
0.0115145
-0.00855713
0.013486
-0.00728261
0.0151955
-0.00626385
0.0166973
-0.00545635
0.0180342
-0.00481882
0.0192385
-0.00431086
0.020332
-0.00389326
0.0213263
-0.00353178
0.022226
-0.00320507
0.0230388
-0.00291268
0.0237852
-0.00266319
0.0244887
-0.00243158
0.0251408
-0.0021272
0.0256862
-0.00166718
0.0260735
-0.00110873
0.0263567
-0.00067731
0.02658
-0.000410958
0.0265968
-4.45608e-05
0.0263952
0.00034234
0.0259135
0.000639689
0.025278
0.000647693
0.0246001
0.000440771
0.023905
0.000153487
0.0232187
-0.000161886
0.0225799
-0.000490336
0.022132
-0.000907612
-0.00141568
0.00241181
-0.0148723
0.00450392
-0.0139074
0.00620167
-0.0118215
0.00761472
-0.00997019
0.00879812
-0.008466
0.00979215
-0.00725789
0.0106326
-0.00629675
0.0113474
-0.0055337
0.0119588
-0.00492223
0.0124824
-0.00441688
0.0129251
-0.00397447
0.0132827
-0.0035627
0.0135454
-0.00317531
0.0137229
-0.00284067
0.0138628
-0.00257157
0.0139991
-0.0022634
0.0140932
-0.0017613
0.0139135
-0.00092904
0.0131653
7.08913e-05
0.0119527
0.00080161
0.0107329
0.00117527
0.00965884
0.00141638
0.00866048
0.00163805
0.00769835
0.00160982
0.00687318
0.00126594
0.00634843
0.000678236
0.00610569
8.08598e-05
0.00620391
-0.000588555
0.00659762
-0.00130133
-0.00195882
0.00135737
-0.0162297
0.0022575
-0.0148076
0.00284658
-0.0124106
0.00325891
-0.0103825
0.00352084
-0.00872793
0.00365387
-0.00739092
0.00367674
-0.00631963
0.00360539
-0.00546235
0.00345406
-0.00477091
0.00323583
-0.00419865
0.00296082
-0.00369947
0.00262928
-0.00323115
0.00221552
-0.00276155
0.00165614
-0.00228128
0.000871464
-0.0017869
-0.00012632
-0.00126562
-0.0012248
-0.00066282
-0.00221081
5.69724e-05
-0.00286835
0.00072843
-0.00332334
0.0012566
-0.00378964
0.00164157
-0.004254
0.00188074
-0.00461313
0.00199718
-0.00486934
0.00186603
-0.00503539
0.00143199
-0.00512497
0.000767815
-0.00503557
-8.53646e-06
-0.00490234
-0.000721791
-0.0047205
-0.00148316
-0.00212618
0.000112328
-0.016342
-0.000217655
-0.0144776
-0.00079487
-0.0118333
-0.00146194
-0.00971544
-0.00222651
-0.00796336
-0.00306453
-0.00655289
-0.00396399
-0.00542017
-0.00491541
-0.00451092
-0.00591165
-0.00377467
-0.00694272
-0.00316757
-0.00799135
-0.00265084
-0.00903278
-0.00218972
-0.010037
-0.00175729
-0.0109809
-0.00133745
-0.0118509
-0.000916917
-0.0126418
-0.000474674
-0.0133125
7.9292e-06
-0.0137778
0.000522233
-0.0140859
0.00103652
-0.014316
0.00148672
-0.0144848
0.00181031
-0.0145975
0.00199349
-0.0146232
0.00202289
-0.0145866
0.00182936
-0.014537
0.00138248
-0.0145054
0.000736208
-0.0145001
-1.38957e-05
-0.0144668
-0.000755014
-0.014438
-0.00151201
-0.00216785
-0.00115469
-0.0151873
-0.00282093
-0.0128113
-0.00458255
-0.0100717
-0.00638897
-0.00790902
-0.00817485
-0.00617748
-0.0099151
-0.00481265
-0.0115861
-0.0037492
-0.0131671
-0.00292985
-0.0146424
-0.00229938
-0.0160015
-0.00180846
-0.0172378
-0.00141454
-0.018347
-0.00108055
-0.0193283
-0.000775991
-0.0201868
-0.000478915
-0.0209314
-0.00017235
-0.0215495
0.000143435
-0.0220212
0.000479616
-0.0223544
0.000855462
-0.0225693
0.00125136
-0.0226816
0.00159901
-0.0227166
0.00184537
-0.022689
0.00196589
-0.0226023
0.00193619
-0.0224861
0.00171312
-0.0223844
0.00128082
-0.0223285
0.000680245
-0.0223248
-1.75139e-05
-0.0223521
-0.000727723
-0.0224008
-0.00146339
-0.00209022
-0.00253019
-0.0126571
-0.00545347
-0.00988804
-0.00838476
-0.00714043
-0.0111823
-0.00511145
-0.0137649
-0.00359491
-0.0161058
-0.00247172
-0.0181989
-0.0016561
-0.0200509
-0.00107787
-0.0216775
-0.00067275
-0.0230993
-0.000386736
-0.0243371
-0.000176681
-0.0254069
-1.07932e-05
-0.0263169
0.000134057
-0.0270755
0.000279655
-0.0276928
0.000444911
-0.028192
0.000642695
-0.0285943
0.000881913
-0.028894
0.00115518
-0.0290785
0.00143577
-0.0291575
0.00167809
-0.029154
0.00184179
-0.0290879
0.00189983
-0.0289771
0.00182539
-0.0288519
0.00158792
-0.0287503
0.00117918
-0.0287017
0.000631659
-0.0287188
-3.48754e-07
-0.028786
-0.000660562
-0.028901
-0.00134843
-0.00190473
-0.00398628
-0.00867086
-0.00813628
-0.00573805
-0.0121216
-0.00315511
-0.0157268
-0.00150621
-0.0188896
-0.000432134
-0.0215895
0.00022811
-0.0238466
0.0006011
-0.0257213
0.00079682
-0.0272854
0.000891337
-0.0286003
0.00092813
-0.0297133
0.000936295
-0.0306595
0.000935468
-0.0314668
0.000941322
-0.032155
0.000967814
-0.0327371
0.00102705
-0.0332228
0.0011284
-0.0336131
0.00127223
-0.0339028
0.00144483
-0.0340865
0.00161955
-0.0341714
0.00176298
-0.0341754
0.00184581
-0.0341201
0.00184448
-0.0340289
0.00173417
-0.0339317
0.00149077
-0.0338615
0.00110901
-0.0338453
0.000615395
-0.0338967
5.10753e-05
-0.0340101
-0.000547177
-0.0341857
-0.00117278
-0.00166224
-0.00567914
-0.00299172
-0.0113446
-7.2638e-05
-0.0160402
0.00154057
-0.0199134
0.002367
-0.0230611
0.00271554
-0.0256288
0.00279581
-0.0277629
0.00273519
-0.0295624
0.00259632
-0.0310862
0.00241508
-0.0323818
0.00222379
-0.0334893
0.00204374
-0.0344382
0.00188436
-0.035248
0.00175113
-0.0359337
0.00165352
-0.0365105
0.00160393
-0.0369914
0.00160926
-0.0373817
0.00166255
-0.0376797
0.00174276
-0.0378821
0.00182199
-0.0379937
0.00187453
-0.0380292
0.00188134
-0.0380104
0.00182573
-0.0379631
0.00168679
-0.0379156
0.00144326
-0.0378961
0.00108953
-0.0379278
0.000647159
-0.0380249
0.000148149
-0.0381878
-0.000384291
-0.0384185
-0.000942088
-0.00137457
-0.00723537
0.00424365
-0.0134486
0.00614063
-0.0183791
0.00647107
-0.0223894
0.0063773
-0.0256677
0.00599379
-0.0283523
0.00548048
-0.030559
0.00494185
-0.0323847
0.00442205
-0.0339069
0.00393728
-0.035187
0.00350385
-0.0362751
0.00313186
-0.0372065
0.00281573
-0.038001
0.00254567
-0.0386728
0.00232528
-0.0392385
0.0021697
-0.0397157
0.00208638
-0.040114
0.00206092
-0.0404331
0.00206184
-0.0406679
0.0020568
-0.0408193
0.00202592
-0.0408998
0.0019618
-0.0409317
0.00185766
-0.0409418
0.00169694
-0.0409566
0.00145806
-0.0409992
0.00113206
-0.0410873
0.000735296
-0.0412352
0.000295993
-0.0414485
-0.000170925
-0.0417317
-0.000658855
-0.00104032
-0.00802787
0.0122715
-0.0148818
0.0129946
-0.020372
0.0119612
-0.024646
0.0106513
-0.027997
0.00934482
-0.0306541
0.00813752
-0.0327932
0.00708102
-0.0345442
0.00617301
-0.0359916
0.00538468
-0.0372006
0.00471287
-0.0382302
0.00416146
-0.0391204
0.00370585
-0.0398861
0.00331145
-0.0405348
0.00297389
-0.0410835
0.00271843
-0.0415567
0.00255957
-0.0419696
0.00247388
-0.0423207
0.00241286
-0.0425987
0.00233479
-0.0427982
0.00222544
-0.0429297
0.00209337
-0.0430181
0.001946
-0.0430922
0.00177104
-0.0431766
0.00154251
-0.0432886
0.00124399
-0.0434393
0.000886067
-0.0436412
0.000497873
-0.0439068
9.462e-05
-0.0442433
-0.000322273
-0.000654435
-0.00936434
0.0216359
-0.0171904
0.0208207
-0.0229197
0.0176905
-0.0270911
0.0148227
-0.0302422
0.012496
-0.0326653
0.0105606
-0.0345797
0.00899547
-0.0361492
0.00774247
-0.0374493
0.00668479
-0.0385316
0.00579517
-0.0394644
0.00509425
-0.0402952
0.00453667
-0.041026
0.00404226
-0.041646
0.00359383
-0.042171
0.00324347
-0.0426386
0.00302713
-0.0430728
0.00290814
-0.0434679
0.00280791
-0.0438004
0.00266736
-0.0440547
0.00247974
-0.0442397
0.00227832
-0.0443857
0.00209202
-0.0445267
0.00191204
-0.0446857
0.00170145
-0.0448726
0.00143094
-0.0450916
0.00110502
-0.0453509
0.000757173
-0.0456682
0.000412004
-0.0460573
6.68317e-05
-0.000209554
-0.0118211
0.033457
-0.0209298
0.0299293
-0.0264314
0.0231921
-0.0299008
0.0182921
-0.0325025
0.0150977
-0.0344555
0.0125136
-0.0359635
0.0105034
-0.0372492
0.00902816
-0.0383479
0.00778355
-0.039253
0.00670021
-0.0400507
0.00589195
-0.0408131
0.00529909
-0.0415156
0.00474475
-0.0421067
0.00418496
-0.0425981
0.00373488
-0.043055
0.00348398
-0.0435189
0.00337207
-0.0439746
0.00326354
-0.0443765
0.00306935
-0.044692
0.00279517
-0.0449289
0.0025152
-0.0451297
0.00229282
-0.0453382
0.00212058
-0.045576
0.0019392
-0.0458434
0.00169836
-0.0461338
0.00139544
-0.0464503
0.0010737
-0.0468173
0.000778931
-0.0472639
0.000513436
0.000303675
-0.0162645
0.0497216
-0.027023
0.0406878
-0.0315086
0.0276777
-0.0330831
0.0198666
-0.0347549
0.0167694
-0.0360158
0.0137746
-0.0368987
0.0113863
-0.0378241
0.00995362
-0.0387303
0.00868968
-0.0394156
0.0073855
-0.0400262
0.00650257
-0.0407216
0.00599453
-0.0414257
0.00544882
-0.0419981
0.00475737
-0.0424372
0.00417398
-0.0428705
0.00391727
-0.0433763
0.00387784
-0.0439178
0.00380512
-0.0444104
0.00356196
-0.0447933
0.003178
-0.0450748
0.00279674
-0.0453212
0.00253925
-0.045595
0.00239439
-0.0459153
0.00225947
-0.0462678
0.00205088
-0.046631
0.00175862
-0.0470001
0.00144276
-0.0474066
0.00118548
-0.0479011
0.00100789
0.000886729
0.207447
0.00576123
0.207034
0.011177
0.206431
0.0163527
0.205647
0.0213714
0.204687
0.0262979
0.203559
0.0311866
0.202269
0.0360849
0.200823
0.0410347
0.199226
0.0460728
0.197484
0.0512323
0.195602
0.0565435
0.193587
0.0620347
0.191443
0.0677332
0.189175
0.0736664
0.186788
0.0798629
0.184287
0.0863538
0.181675
0.093175
0.178953
0.10037
0.176122
0.107991
0.17318
0.116109
0.170123
0.124814
0.166946
0.134231
0.163646
0.14453
0.160224
0.155956
0.156704
0.16886
0.153182
0.183773
0.150027
0.201488
0.148926
0.222918
0.160708
0.245533
0.258597
0.236549
0.21249
0.00595374
0.212117
0.01155
0.211574
0.0168965
0.210867
0.0220776
0.210006
0.0271588
0.208999
0.0321946
0.207851
0.0372326
0.206571
0.0423145
0.205167
0.0474771
0.203646
0.0527531
0.202017
0.0581723
0.200289
0.0637625
0.198472
0.0695502
0.196577
0.0755621
0.194614
0.0818256
0.192597
0.0883707
0.190541
0.0952315
0.188462
0.102448
0.186383
0.11007
0.184331
0.11816
0.182348
0.126797
0.180495
0.136084
0.17887
0.146155
0.177647
0.157179
0.177147
0.16936
0.178027
0.182892
0.181708
0.197807
0.190799
0.213827
0.206312
0.23002
0.245452
0.219458
0.217658
0.00612376
0.217328
0.0118792
0.216849
0.0173754
0.216229
0.0226976
0.215477
0.0279116
0.214599
0.0330717
0.213607
0.0382253
0.212507
0.0434138
0.211311
0.0486732
0.210029
0.0540355
0.208672
0.0595295
0.207253
0.0651816
0.205786
0.071017
0.204288
0.0770604
0.202776
0.0833368
0.201274
0.0898729
0.199807
0.0966985
0.198408
0.103847
0.197119
0.11136
0.195995
0.119284
0.195115
0.127677
0.194593
0.136607
0.194598
0.14615
0.195395
0.156383
0.197394
0.167361
0.201206
0.17908
0.2076
0.191413
0.217234
0.204193
0.229816
0.217438
0.228568
0.2467
0.222951
0.00626932
0.22267
0.0121607
0.222261
0.0177838
0.221735
0.0232243
0.221099
0.0285476
0.220362
0.0338078
0.219536
0.0390516
0.21863
0.0443195
0.217657
0.0496467
0.216629
0.0550637
0.21556
0.060598
0.214468
0.0662739
0.213371
0.0721144
0.21229
0.0781412
0.211251
0.0843757
0.210284
0.0908398
0.209426
0.0975565
0.208722
0.104551
0.208232
0.11185
0.208031
0.119485
0.208222
0.127485
0.208946
0.135883
0.210395
0.144701
0.212833
0.153945
0.216606
0.163588
0.222132
0.173554
0.229859
0.183686
0.240353
0.193699
0.254529
0.203262
0.210122
0.272975
0.228374
0.00638853
0.228144
0.0123909
0.227811
0.0181167
0.227384
0.023651
0.226873
0.0290588
0.226287
0.0343935
0.225638
0.0397008
0.224938
0.04502
0.2242
0.0503849
0.223439
0.0558244
0.222673
0.0613636
0.221922
0.0670249
0.221209
0.0728279
0.220559
0.0787907
0.220005
0.08493
0.219583
0.0912616
0.219339
0.0978009
0.219327
0.104562
0.219618
0.11156
0.220299
0.118804
0.221483
0.126301
0.223315
0.134051
0.22598
0.142036
0.229707
0.150217
0.234776
0.158519
0.241515
0.166815
0.2503
0.174901
0.261576
0.182423
0.275812
0.189026
0.193625
0.292308
0.233929
0.00647973
0.233754
0.0125666
0.233501
0.0183692
0.23318
0.0239716
0.232801
0.0294381
0.232374
0.0348207
0.231911
0.0401638
0.231425
0.0455054
0.230933
0.0508773
0.230451
0.0563065
0.229999
0.0618158
0.229599
0.0674242
0.229279
0.0731483
0.229068
0.0790016
0.229002
0.0849958
0.229124
0.09114
0.229484
0.0974412
0.230143
0.103903
0.231175
0.110527
0.232673
0.117306
0.234746
0.124227
0.237533
0.131265
0.241194
0.138375
0.245923
0.145488
0.251939
0.152503
0.259484
0.159271
0.268797
0.165588
0.280056
0.171164
0.293354
0.175728
0.178768
0.308211
0.23962
0.00654142
0.239501
0.0126849
0.239333
0.0185373
0.239124
0.0241812
0.238883
0.0296793
0.238621
0.0350824
0.238351
0.0404332
0.238089
0.0457678
0.23785
0.0511161
0.237654
0.0565026
0.237523
0.0619473
0.237481
0.0674663
0.237557
0.0730721
0.237785
0.078774
0.238202
0.0845779
0.238856
0.0904866
0.239798
0.0964992
0.241091
0.10261
0.24281
0.108808
0.245043
0.115074
0.247892
0.121379
0.251476
0.127681
0.25593
0.13392
0.261404
0.140014
0.268053
0.145854
0.276026
0.151298
0.285443
0.156172
0.296347
0.16026
0.308726
0.163349
0.165173
0.322321
0.245448
0.00657233
0.24539
0.0127433
0.24531
0.0186175
0.245215
0.0242752
0.245117
0.0297774
0.245027
0.0351731
0.244957
0.0405032
0.244923
0.0458015
0.244943
0.0510958
0.245038
0.056408
0.24523
0.0617552
0.245546
0.0671502
0.246016
0.0726016
0.246676
0.0781143
0.247565
0.0836891
0.248729
0.0893227
0.250221
0.0950071
0.252102
0.100729
0.254442
0.106468
0.257321
0.112195
0.260827
0.117873
0.265059
0.123449
0.27012
0.128858
0.276118
0.134017
0.283151
0.138821
0.2913
0.143149
0.300612
0.14686
0.311074
0.149798
0.322619
0.151804
0.152747
0.335044
0.251418
0.00657144
0.251421
0.0127401
0.251432
0.0186071
0.251457
0.0242503
0.251505
0.0297286
0.251589
0.0350889
0.251723
0.0403699
0.251921
0.0456033
0.252203
0.0508141
0.252589
0.0560218
0.253104
0.0612406
0.253774
0.0664799
0.254631
0.0717447
0.255709
0.0770358
0.257049
0.0823493
0.258695
0.0876769
0.260697
0.0930049
0.263112
0.0983138
0.266002
0.103577
0.269436
0.108761
0.273486
0.113822
0.278229
0.118707
0.283739
0.123348
0.290085
0.12767
0.297325
0.131582
0.30549
0.134983
0.314584
0.137767
0.32456
0.139823
0.335318
0.141045
0.141377
0.346689
0.257532
0.00653801
0.257599
0.0126736
0.257702
0.0185041
0.257848
0.0241044
0.258046
0.0295307
0.258307
0.0348277
0.258645
0.0400317
0.259076
0.045172
0.259619
0.0502713
0.260295
0.0553463
0.261127
0.0604082
0.262143
0.0654636
0.263374
0.070514
0.264853
0.0755567
0.266618
0.0805841
0.268711
0.0855836
0.271179
0.0905377
0.274069
0.0954229
0.277437
0.10021
0.281338
0.104861
0.285828
0.109333
0.290961
0.113573
0.296788
0.117521
0.303349
0.121109
0.310667
0.124264
0.318744
0.126906
0.327554
0.128957
0.337031
0.130345
0.347072
0.131004
0.130914
0.357535
0.263794
0.00647156
0.263925
0.0125431
0.264121
0.0183075
0.264389
0.0238361
0.264738
0.0291825
0.265177
0.0343887
0.26572
0.0394888
0.266382
0.0445094
0.267183
0.0494707
0.268142
0.0543869
0.269284
0.0592667
0.270633
0.0641137
0.272221
0.0689268
0.274077
0.0737002
0.276238
0.0784235
0.27874
0.0830814
0.281624
0.0876536
0.284932
0.092115
0.288707
0.0964345
0.292992
0.100576
0.297828
0.104497
0.303251
0.10815
0.309291
0.111482
0.315963
0.114437
0.323269
0.116957
0.331191
0.118984
0.339685
0.120463
0.348682
0.121348
0.358084
0.121603
0.121227
0.367771
0.270207
0.00637192
0.270402
0.0123482
0.270692
0.0180169
0.271083
0.0234454
0.271581
0.0286844
0.272196
0.0337733
0.272942
0.0387434
0.273832
0.0436192
0.274885
0.0484182
0.276119
0.0531523
0.277558
0.0578278
0.279226
0.0624461
0.281149
0.0670036
0.283357
0.0714926
0.28588
0.0759006
0.28875
0.0802107
0.292002
0.0844016
0.29567
0.0884477
0.299785
0.0923188
0.30438
0.0959808
0.309482
0.0993954
0.31511
0.102521
0.321278
0.105314
0.327985
0.10773
0.335218
0.109724
0.342945
0.111256
0.351118
0.11229
0.359667
0.112799
0.368503
0.112766
0.112203
0.377527
0.276774
0.00623918
0.277033
0.0120892
0.277417
0.0176328
0.277929
0.0229332
0.278575
0.0280381
0.279364
0.032984
0.280308
0.0377998
0.28142
0.0425073
0.282716
0.0471219
0.284215
0.0516534
0.285937
0.056106
0.287904
0.0604792
0.290139
0.0647678
0.292669
0.0689626
0.29552
0.0730501
0.298718
0.0770128
0.30229
0.0808296
0.306262
0.0844759
0.310657
0.0879236
0.315496
0.0911418
0.320794
0.0940976
0.326558
0.0967563
0.33279
0.0990828
0.339477
0.101043
0.346596
0.102605
0.35411
0.103742
0.361968
0.104432
0.370105
0.104663
0.378442
0.104429
0.103748
0.386897
0.283498
0.00607372
0.28382
0.0117669
0.284297
0.0171565
0.284928
0.0223017
0.28572
0.0272467
0.286678
0.0320252
0.287814
0.0366637
0.28914
0.0411816
0.29067
0.0455923
0.29242
0.0499035
0.294408
0.054118
0.296653
0.0582336
0.299177
0.0622444
0.301999
0.0661401
0.305142
0.0699071
0.308627
0.0735284
0.312472
0.0769837
0.316698
0.0802503
0.321318
0.0833034
0.326344
0.0861161
0.331781
0.0886608
0.337627
0.0909097
0.343874
0.092836
0.350502
0.0944148
0.357483
0.0956245
0.364777
0.0964483
0.372334
0.0968752
0.380095
0.0969016
0.387993
0.0965309
0.0957833
0.395958
0.290384
0.00587618
0.290768
0.0113825
0.291335
0.0165901
0.292083
0.0215537
0.293015
0.0263142
0.294138
0.0309026
0.295459
0.0353426
0.296989
0.0396517
0.29874
0.0438413
0.300726
0.0479175
0.302962
0.0518819
0.305464
0.0557313
0.308249
0.0594592
0.311334
0.0630553
0.314735
0.0665063
0.318467
0.0697961
0.322545
0.0729064
0.326978
0.075817
0.331775
0.0785062
0.336939
0.080952
0.342468
0.0831319
0.348353
0.0850246
0.354579
0.0866103
0.361122
0.0878718
0.367951
0.0887958
0.375026
0.0893732
0.3823
0.0896005
0.389722
0.0894802
0.397232
0.0890203
0.0882421
0.404774
0.297435
0.00564742
0.297879
0.0109378
0.298533
0.0159363
0.299394
0.0206931
0.300462
0.0252459
0.301742
0.0296227
0.30324
0.033845
0.304963
0.0379282
0.306922
0.0418821
0.309128
0.0457115
0.311593
0.0494168
0.31433
0.0529948
0.317351
0.0564383
0.320668
0.0597377
0.324294
0.0628806
0.328238
0.0658522
0.332508
0.0686366
0.337109
0.0712163
0.342041
0.0735733
0.347304
0.0756898
0.352887
0.0775486
0.358778
0.0791337
0.364957
0.0804314
0.371398
0.0814309
0.378068
0.0821249
0.384932
0.0825101
0.391944
0.0825881
0.399059
0.0823651
0.406227
0.081852
0.0810695
0.4134
0.304654
0.00538851
0.305157
0.0104348
0.305895
0.0151982
0.306864
0.0197244
0.308062
0.0240475
0.309492
0.0281932
0.311156
0.0321805
0.313061
0.0360229
0.315215
0.0397288
0.317624
0.043302
0.320299
0.0467423
0.323247
0.0500462
0.326479
0.053207
0.330001
0.0562155
0.333821
0.0590607
0.337943
0.0617297
0.342371
0.0642087
0.347104
0.0664834
0.352138
0.0685393
0.357466
0.0703625
0.363074
0.0719402
0.368946
0.0732613
0.375061
0.074317
0.38139
0.0751014
0.387903
0.0756117
0.394565
0.0758488
0.401336
0.0758173
0.408175
0.0755259
0.41504
0.0749866
0.0742189
0.421891
0.312046
0.00510064
0.312605
0.00987602
0.313424
0.0143795
0.314495
0.0186525
0.315817
0.0227258
0.317388
0.0266223
0.319209
0.0303591
0.321284
0.0339478
0.323618
0.0373957
0.326214
0.0407058
0.329078
0.0438776
0.332217
0.0469073
0.335635
0.0497891
0.339336
0.0525148
0.343322
0.0550745
0.347594
0.0574576
0.35215
0.0596526
0.356986
0.0616479
0.362093
0.0634324
0.367459
0.0649957
0.373071
0.0663287
0.378907
0.0674245
0.384946
0.0682781
0.391161
0.068887
0.397521
0.069252
0.403993
0.0693765
0.410543
0.0692673
0.417135
0.068934
0.423732
0.0683891
0.0676505
0.430301
0.319615
0.00478515
0.320227
0.00926397
0.321122
0.0134842
0.322292
0.0174829
0.32373
0.0212876
0.325434
0.0249187
0.327402
0.0283912
0.329634
0.0317154
0.332133
0.0348973
0.334899
0.0379394
0.337936
0.0408409
0.341245
0.0435986
0.344827
0.046207
0.348682
0.0486592
0.35281
0.050947
0.357206
0.0530614
0.361865
0.0549935
0.366779
0.0567341
0.371936
0.058275
0.377323
0.0596089
0.382922
0.0607301
0.388712
0.0616344
0.39467
0.0623198
0.40077
0.0627868
0.406984
0.0630381
0.413282
0.0630791
0.419632
0.0629174
0.426002
0.0625631
0.432363
0.0620282
0.0613291
0.438685
0.327365
0.00444339
0.328028
0.00860136
0.328996
0.0125162
0.330258
0.0162209
0.331805
0.0197398
0.333633
0.023091
0.335737
0.0262873
0.338115
0.0293377
0.340765
0.0322474
0.343686
0.0350182
0.346877
0.0376496
0.350337
0.0401385
0.354064
0.0424805
0.358053
0.0446696
0.362301
0.0466992
0.3668
0.0485623
0.371542
0.0502517
0.376515
0.0517609
0.381706
0.053084
0.387099
0.0542162
0.392675
0.0551543
0.398412
0.0558965
0.404289
0.056443
0.41028