/*--------------------------------*- C++ -*----------------------------------*\
  =========                 |
  \\      /  F ield         | OpenFOAM: The Open Source CFD Toolbox
   \\    /   O peration     | Website:  https://openfoam.org
    \\  /    A nd           | Version:  dev
     \\/     M anipulation  |
\*---------------------------------------------------------------------------*/
FoamFile
{
    version     2.0;
    format      ascii;
    class       volScalarField;
    location    "0.9";
    object      p;
}
// * * * * * * * * * * * * * * * * * * * * * * * * * * * * * * * * * * * * * //

dimensions      [0 2 -2 0 0 0 0];

internalField   nonuniform List<scalar> 
2790
(
184.442
184.36
184.651
185.258
186.082
187.092
188.282
189.651
191.192
192.899
194.762
196.774
198.923
201.195
203.574
206.036
208.554
211.092
213.608
216.052
218.368
220.492
222.362
223.919
225.12
225.943
226.351
226.411
226.482
226.691
184.236
184.264
184.581
185.184
186.005
187.012
188.198
189.561
191.095
192.793
194.648
196.65
198.789
201.051
203.42
205.873
208.384
210.917
213.433
215.883
218.209
220.351
222.245
223.83
225.055
225.88
226.26
226.332
226.472
226.737
184.031
184.129
184.464
185.058
185.866
186.859
188.03
189.376
190.889
192.563
194.391
196.362
198.468
200.693
203.023
205.435
207.905
210.4
212.881
215.304
217.615
219.759
221.674
223.303
224.597
225.526
226.095
226.436
226.74
227.029
183.797
183.926
184.273
184.858
185.651
186.629
187.78
189.102
190.587
192.228
194.018
195.947
198.005
200.178
202.451
204.803
207.209
209.641
212.064
214.436
216.711
218.84
220.771
222.455
223.856
224.96
225.79
226.43
226.959
227.447
183.524
183.666
184.022
184.6
185.376
186.333
187.459
188.749
190.198
191.797
193.539
195.414
197.412
199.518
201.718
203.992
206.318
208.669
211.013
213.316
215.538
217.64
219.579
221.321
222.84
224.133
225.217
226.136
226.906
227.599
183.207
183.356
183.714
184.281
185.038
185.968
187.063
188.316
189.721
191.27
192.955
194.765
196.691
198.718
200.832
203.015
205.244
207.497
209.747
211.962
214.113
216.168
218.098
219.879
221.497
222.949
224.245
225.397
226.365
227.22
182.846
182.995
183.35
183.904
184.638
185.539
186.597
187.807
189.161
190.652
192.271
194.007
195.85
197.787
199.802
201.88
203.999
206.138
208.274
210.383
212.44
214.423
216.312
218.095
219.766
221.323
222.766
224.087
225.195
226.175
182.439
182.587
182.934
183.472
184.18
185.047
186.064
187.225
188.522
189.947
191.491
193.144
194.895
196.73
198.635
200.593
202.587
204.596
206.6
208.58
210.516
212.392
214.199
215.932
217.59
219.177
220.689
222.105
223.298
224.377
181.988
182.132
182.469
182.987
183.666
184.495
185.466
186.572
187.806
189.159
190.621
192.182
193.831
195.554
197.336
199.163
201.015
202.876
204.728
206.551
208.333
210.062
211.734
213.348
214.913
216.438
217.92
219.345
220.564
221.726
181.494
181.632
181.956
182.451
183.098
183.886
184.807
185.854
187.019
188.293
189.666
191.128
192.665
194.266
195.915
197.596
199.293
200.987
202.661
204.3
205.89
207.422
208.893
210.308
211.679
213.022
214.348
215.665
216.827
218.051
180.957
181.089
181.397
181.868
182.48
183.223
184.09
185.074
186.165
187.355
188.633
189.987
191.406
192.875
194.38
195.903
197.428
198.936
200.41
201.832
203.189
204.468
205.666
206.785
207.836
208.843
209.834
210.862
211.819
213.058
180.381
180.506
180.797
181.24
181.815
182.511
183.32
184.237
185.25
186.35
187.527
188.768
190.061
191.39
192.74
194.094
195.433
196.737
197.986
199.16
200.241
201.21
202.055
202.767
203.349
203.818
204.214
204.645
205.101
206.215
179.767
179.884
180.156
180.57
181.105
181.751
182.501
183.347
184.278
185.285
186.356
187.479
188.639
189.821
191.009
192.183
193.322
194.405
195.408
196.305
197.07
197.673
198.085
198.276
198.219
197.898
197.324
196.633
195.939
196.473
179.118
179.226
179.478
179.861
180.355
180.95
181.637
182.409
183.255
184.165
185.127
186.126
187.149
188.179
189.197
190.183
191.113
191.962
192.701
193.297
193.713
193.903
193.814
193.379
192.514
191.12
189.086
186.405
183.133
181.472
178.436
178.535
178.767
179.117
179.568
180.109
180.732
181.428
182.187
182.998
183.847
184.72
185.602
186.475
187.318
188.11
188.823
189.429
189.892
190.172
190.217
189.965
189.33
188.198
186.404
183.702
179.701
173.841
165.01
154.632
72.5093
71.7699
70.3665
68.1956
65.242
61.5166
57.0561
51.9202
46.1884
39.9579
33.3412
26.4656
19.4713
12.5112
5.74933
-0.641348
-6.48208
-11.5926
-15.7939
-18.912
-20.7971
-21.3584
-20.512
-18.2731
-14.7878
-10.2214
-4.53615
2.18419
7.84134
6.09646
73.1005
72.1846
70.6542
68.3774
65.3333
61.5269
56.9928
51.7901
45.9977
39.7125
33.0466
26.1265
19.0923
12.0963
5.30212
-1.11786
-6.98542
-12.1216
-16.3526
-19.5178
-21.4755
-22.099
-21.3264
-19.1831
-15.8187
-11.4088
-5.92941
0.620106
6.37126
4.82152
73.3463
72.2351
70.532
68.0836
64.8908
60.9612
56.329
51.0501
45.2001
38.8718
32.1736
25.2288
18.1745
11.161
4.35021
-2.08605
-7.96951
-13.1209
-17.3685
-20.5558
-22.5407
-23.2221
-22.5037
-20.4257
-17.1414
-12.8386
-7.52481
-1.1762
4.52733
3.5562
72.9824
71.7027
69.8479
67.2329
63.8897
59.8326
55.0973
49.7377
43.8255
37.4493
30.7134
23.7373
16.6554
9.6156
2.7786
-3.6846
-9.59563
-14.7744
-19.0492
-22.2686
-24.3047
-25.0226
-24.3533
-22.3287
-19.0961
-14.8437
-9.61347
-3.42429
2.22706
2.29937
71.8517
70.4833
68.5425
65.8093
62.3526
58.1949
53.3771
47.9533
41.9933
35.5822
28.8206
21.8248
14.7261
7.67026
0.816107
-5.66636
-11.5991
-16.8014
-21.1004
-24.3442
-26.4039
-27.1668
-26.5444
-24.5606
-21.3569
-17.1154
-11.9138
-5.84105
-0.18362
1.1108
70.0136
68.6315
66.6689
63.8746
60.3524
56.1307
51.2566
45.7863
39.7891
33.3481
26.5616
19.5432
12.4221
5.34249
-1.53749
-8.04805
-14.0105
-19.242
-23.5657
-26.8245
-28.8904
-29.6659
-29.0625
-27.0843
-23.8658
-19.5812
-14.343
-8.30882
-2.54405
0.010126
67.6741
66.3294
64.3881
61.5774
58.0299
53.7753
48.8669
43.3642
37.3374
30.8698
24.0586
17.0163
9.87108
2.76613
-4.14102
-10.6806
-16.6733
-21.9347
-26.2825
-29.551
-31.6106
-32.3804
-31.7735
-29.7713
-26.5016
-22.1314
-16.802
-10.7256
-4.7632
-0.994798
65.1048
63.8257
61.9247
59.1213
55.5702
51.2982
46.3653
40.8343
34.7778
28.2802
21.4391
14.3668
7.19099
0.0543355
-6.88595
-13.4599
-19.4877
-24.7828
-29.1567
-32.4322
-34.4736
-35.2139
-34.5754
-32.5183
-29.1646
-24.675
-19.2102
-13.0187
-6.79203
-1.9003
62.5956
61.3893
59.5259
56.7306
53.1749
48.8814
43.9172
38.3487
32.2519
25.7131
18.831
11.7184
4.50299
-2.67306
-9.6529
-16.2665
-22.3335
-27.6655
-32.0686
-35.3531
-37.3713
-38.0601
-37.3608
-35.2229
-31.7599
-27.1286
-21.499
-15.1371
-8.6038
-2.70427
60.4262
59.2821
57.434
54.6252
51.0411
46.7011
41.6812
36.0524
29.8944
23.2957
16.3565
9.19025
1.92434
-5.2997
-12.326
-18.985
-25.0958
-30.4691
-34.9061
-38.2066
-40.2045
-40.8184
-40.026
-37.7897
-34.2001
-29.4163
-23.6099
-17.0446
-10.1836
-3.40516
58.8467
57.7392
55.8679
53.0022
49.3439
44.9121
39.7961
34.0721
27.8232
21.1402
14.1242
6.8886
-0.439492
-7.72035
-14.8002
-21.5102
-27.6698
-33.0887
-37.5655
-40.8907
-42.8721
-43.393
-42.4809
-40.1351
-36.4077
-31.4705
-25.4922
-18.7146
-11.5233
-4.00165
58.059
56.9563
55.0077
52.0206
48.2202
43.6336
38.3682
32.5056
26.1309
19.336
12.2221
4.90155
-2.49967
-9.84514
-16.985
-23.7511
-29.964
-35.4324
-39.9532
-43.3076
-45.2723
-45.7043
-44.6686
-42.1943
-38.3215
-33.2361
-27.1043
-20.128
-12.6199
-4.49208
58.1948
57.0688
54.9729
51.7805
47.7496
42.9354
37.466
31.4142
24.8777
17.9444
10.7135
3.29465
-4.18691
-11.6016
-18.8064
-25.6322
-31.9016
-37.4233
-41.9907
-45.3802
-47.3396
-47.6965
-46.5349
-43.9241
-39.9037
-34.6777
-28.4169
-21.2723
-13.475
-4.87359
59.3237
58.1441
55.8284
52.3185
47.9454
42.8196
37.0787
30.8017
24.0781
16.994
9.64227
2.12723
-5.43964
-12.9342
-20.2067
-27.0922
-33.4191
-38.9958
-43.6106
-47.0456
-49.0233
-49.3275
-48.0453
-45.3025
-41.1421
-35.7829
-29.4167
-22.1422
-14.0967
-5.14426
61.4371
60.1949
57.5773
53.5836
48.7368
43.2227
37.1667
30.6411
23.7206
16.4829
9.01115
1.39925
-6.25165
-13.815
-21.1379
-28.0666
-34.4341
-40.0481
-44.726
-48.2149
-50.2303
-50.5243
-49.1628
-46.2998
-42.029
-36.5507
-30.1088
-22.7472
-14.5086
-5.31296
177.71
177.8
178.01
178.326
178.733
179.218
179.774
180.391
181.059
181.766
182.499
183.242
183.978
184.689
185.352
185.943
186.432
186.786
186.963
186.915
186.578
185.869
184.673
182.826
180.075
176.002
169.831
159.956
141.27
90.6693
176.932
177.012
177.199
177.48
177.839
178.266
178.751
179.287
179.861
180.46
181.072
181.679
182.265
182.808
183.285
183.669
183.929
184.025
183.912
183.533
182.814
181.657
179.927
177.427
173.858
168.732
161.199
149.855
133.79
110.917
176.107
176.177
176.339
176.583
176.894
177.26
177.673
178.124
178.601
179.091
179.578
180.047
180.479
180.852
181.141
181.316
181.345
181.184
180.785
180.085
179.005
177.439
175.248
172.238
168.139
162.583
155.113
145.282
133.831
121.045
175.237
175.296
175.434
175.639
175.9
176.204
176.543
176.908
177.285
177.663
178.025
178.354
178.631
178.833
178.934
178.903
178.704
178.294
177.622
176.622
175.216
173.3
170.745
167.387
163.021
157.418
150.363
141.628
131.283
118.933
174.323
174.371
174.483
174.65
174.859
175.1
175.364
175.641
175.919
176.184
176.42
176.609
176.732
176.765
176.681
176.449
176.032
175.386
174.46
173.191
171.502
169.301
166.476
162.895
158.408
152.852
146.074
137.875
128.138
116.969
173.367
173.404
173.491
173.618
173.775
173.952
174.141
174.33
174.507
174.66
174.77
174.822
174.793
174.661
174.399
173.974
173.351
172.487
171.332
169.827
167.903
165.48
162.464
158.751
154.229
148.783
142.307
134.709
125.982
116.439
172.372
172.398
172.459
172.546
172.651
172.765
172.877
172.979
173.057
173.098
173.086
173.002
172.827
172.536
172.103
171.498
170.684
169.623
168.266
166.562
164.449
161.86
158.719
154.949
150.468
145.204
139.102
132.143
124.354
115.986
171.342
171.357
171.391
171.439
171.492
171.542
171.58
171.595
171.576
171.508
171.376
171.162
170.845
170.404
169.811
169.039
168.053
166.816
165.287
163.418
161.159
158.455
155.247
151.477
147.094
142.053
136.333
129.936
122.886
115.39
170.279
170.283
170.292
170.3
170.302
170.29
170.254
170.185
170.07
169.897
169.65
169.311
168.861
168.278
167.538
166.614
165.474
164.086
162.412
160.413
158.047
155.27
152.039
148.314
144.061
139.257
133.896
127.99
121.565
114.803
169.188
169.182
169.165
169.135
169.087
169.013
168.906
168.755
168.548
168.274
167.917
167.46
166.886
166.173
165.299
164.238
162.965
161.448
159.657
157.558
155.119
152.305
149.086
145.434
141.331
136.765
131.74
126.276
120.399
114.264
168.075
168.058
168.016
167.948
167.851
167.718
167.542
167.312
167.019
166.648
166.188
165.622
164.932
164.1
163.106
161.926
160.537
158.914
157.031
154.86
152.376
149.553
146.372
142.814
138.87
134.538
129.827
124.759
119.36
113.761
166.943
166.916
166.85
166.746
166.602
166.413
166.17
165.866
165.489
165.029
164.472
163.805
163.01
162.072
160.971
159.688
158.203
156.494
154.54
152.321
149.816
147.007
143.882
140.43
136.649
132.541
128.12
123.407
118.426
113.287
165.799
165.762
165.674
165.535
165.346
165.102
164.797
164.423
163.969
163.425
162.779
162.019
161.13
160.097
158.904
157.534
155.97
154.194
152.19
149.941
147.434
144.657
141.601
138.262
134.642
130.747
126.592
122.197
117.582
112.843
164.649
164.602
164.492
164.321
164.089
163.795
163.431
162.991
162.465
161.845
161.118
160.275
159.302
158.187
156.915
155.472
153.844
152.018
149.981
147.72
145.226
142.492
139.513
136.29
132.827
129.132
125.219
121.108
116.817
112.426
163.499
163.444
163.313
163.111
162.84
162.498
162.08
161.579
160.987
160.297
159.498
158.581
157.535
156.348
155.01
153.508
151.831
149.969
147.912
145.652
143.183
140.501
137.604
134.497
131.183
127.674
123.982
120.125
116.121
112.035
162.356
162.293
162.144
161.913
161.605
161.219
160.751
160.195
159.543
158.79
157.927
156.945
155.835
154.588
153.195
151.646
149.933
148.047
145.983
143.735
141.299
138.674
135.862
132.866
129.695
126.357
122.866
119.237
115.486
111.669
161.229
161.158
160.991
160.734
160.392
159.966
159.453
158.846
158.141
157.332
156.412
155.374
154.21
152.913
151.476
149.891
148.152
146.253
144.191
141.962
139.565
137.001
134.273
131.386
128.347
125.167
121.857
118.432
114.906
111.326
160.124
160.047
159.864
159.582
159.209
158.747
158.193
157.542
156.789
155.931
154.962
153.876
152.666
151.328
149.856
148.245
146.489
144.586
142.533
140.33
137.976
135.473
132.827
130.043
127.127
124.091
120.946
117.703
114.376
111.005
159.051
158.967
158.769
158.465
158.065
157.571
156.98
156.289
155.495
154.594
153.583
152.456
151.209
149.839
148.34
146.71
144.946
143.045
141.007
138.833
136.524
134.083
131.515
128.827
126.026
123.121
120.122
117.042
113.891
110.704
158.016
157.926
157.716
157.392
156.968
156.444
155.821
155.096
154.266
153.329
152.282
151.121
149.845
148.449
146.931
145.289
143.521
141.628
139.609
137.467
135.203
132.822
130.328
127.73
125.033
122.246
119.38
116.444
113.449
110.424
157.03
156.935
156.713
156.372
155.925
155.377
154.725
153.97
153.109
152.142
151.065
149.877
148.577
147.161
145.63
143.982
142.216
140.334
138.337
136.227
134.008
131.684
129.26
126.744
124.141
121.462
118.713
115.905
113.047
110.165
156.101
156.001
155.769
155.413
154.947
154.376
153.701
152.92
152.033
151.04
149.939
148.729
147.411
145.981
144.442
142.791
141.031
139.163
137.189
135.112
132.936
130.665
128.306
125.864
123.347
120.762
118.117
115.422
112.684
109.926
155.238
155.134
154.893
154.523
154.041
153.451
152.755
151.953
151.045
150.03
148.91
147.683
146.351
144.912
143.368
141.719
139.967
138.114
136.163
134.118
131.982
129.761
127.459
125.085
122.643
120.142
117.589
114.992
112.359
109.708
154.451
154.344
154.094
153.713
153.216
152.611
151.897
151.077
150.151
149.12
147.984
146.745
145.402
143.957
142.412
140.766
139.024
137.187
135.259
133.243
131.145
128.968
126.72
124.405
122.03
119.602
117.128
114.616
112.073
109.514
153.751
153.641
153.383
152.991
152.482
151.863
151.135
150.3
149.36
148.315
147.168
145.919
144.57
143.121
141.576
139.936
138.204
136.383
134.476
132.488
130.423
128.286
126.083
123.82
121.502
119.138
116.732
114.292
111.825
109.344
153.147
153.034
152.769
152.367
151.848
151.217
150.478
149.632
148.68
147.626
146.469
145.214
143.86
142.411
140.867
139.233
137.511
135.705
133.818
131.854
129.818
127.716
125.552
123.333
121.064
118.752
116.403
114.024
111.621
109.204
152.652
152.534
152.261
151.85
151.321
150.681
149.932
149.077
148.116
147.054
145.892
144.632
143.276
141.826
140.286
138.658
136.946
135.152
133.281
131.338
129.327
127.253
125.122
122.939
120.71
118.44
116.137
113.806
111.453
109.087
152.279
152.154
151.871
151.452
150.916
150.269
149.513
148.651
147.684
146.617
145.45
144.187
142.83
141.382
139.845
138.223
136.519
134.736
132.88
130.954
128.963
126.912
124.806
122.652
120.454
118.218
115.951
113.658
111.345
109.021
152.044
151.895
151.594
151.168
150.628
149.977
149.217
148.35
147.381
146.31
145.142
143.878
142.521
141.074
139.54
137.922
136.224
134.45
132.603
130.689
128.711
126.676
124.588
122.452
120.275
118.061
115.817
113.548
111.26
108.96
152.007
151.796
151.466
151.033
150.489
149.834
149.07
148.201
147.229
146.158
144.989
143.726
142.37
140.926
139.396
137.783
136.09
134.323
132.485
130.579
128.612
126.588
124.513
122.39
120.227
118.028
115.8
113.547
111.275
108.991
20.5928
38.3707
53.9971
96.4457
92.4791
85.4971
108.657
100.436
92.8341
106.128
98.1074
91.8777
106.512
99.6937
94.0077
107.705
101.717
96.4366
108.253
102.871
98.0714
108.45
103.612
99.3002
108.554
104.192
100.316
108.601
104.642
101.142
108.595
104.981
101.803
108.55
105.234
102.333
108.478
105.422
102.76
108.387
105.559
103.104
108.283
105.656
103.382
108.17
105.72
103.606
108.052
105.759
103.784
107.929
105.777
103.925
107.805
105.777
104.033
107.682
105.764
104.114
107.56
105.739
104.173
107.441
105.706
104.213
107.329
105.668
104.237
107.226
105.63
104.252
107.132
105.591
104.258
107.058
105.562
104.267
106.992
105.532
104.267
106.967
105.536
104.292
106.931
105.52
104.294
106.987
105.593
104.374
64.3408
63.085
60.0521
55.3692
49.9395
43.9929
37.6078
30.8345
23.7279
16.3505
8.77466
1.08532
-6.62002
-14.2223
-21.5754
-28.5294
-34.9221
-40.5712
-45.2906
-48.8137
-50.8647
-51.1876
-49.7682
-46.8359
-42.5463
-37.0017
-30.5343
-23.1277
-14.7596
-5.42405
77.8623
69.6161
63.3391
57.3521
51.2681
44.9146
38.2473
31.2731
24.0224
16.5428
8.8972
1.16391
-6.56306
-14.1711
-21.5242
-28.475
-34.8637
-40.5107
-45.2189
-48.7388
-50.8057
-51.1853
-49.7966
-46.8918
-42.6446
-37.1672
-30.6966
-23.2903
-14.8671
-5.53496
82.1479
72.0858
65.3212
58.9409
52.3966
45.7251
38.8814
31.807
24.4957
16.9821
9.32386
1.59553
-6.1116
-13.6888
-21.0066
-27.9207
-34.2722
-39.8825
-44.5515
-48.0445
-50.1146
-50.5524
-49.2572
-46.4445
-42.31
-36.963
-30.5823
-23.2467
-14.8969
-5.62453
82.8965
73.1075
66.0264
59.5692
53.0027
46.2854
39.407
32.3324
25.0513
17.5872
9.99005
2.33063
-5.30196
-12.8009
-20.0407
-26.8791
-33.1585
-38.7023
-43.313
-46.7695
-48.845
-49.3541
-48.2116
-45.5281
-41.5508
-36.4264
-30.2319
-23.0437
-14.828
-5.64344
85.5971
75.8826
67.84
60.6016
53.6703
46.8365
39.9468
32.9085
25.6976
18.3319
10.8524
3.3209
-4.18013
-11.5483
-18.662
-25.3822
-31.5534
-37.0025
-41.5382
-44.9536
-47.0434
-47.644
-46.6833
-44.2003
-40.4454
-35.5915
-29.6615
-22.6916
-14.6631
-5.61713
88.7639
79.4682
70.7701
62.701
55.1515
47.9353
40.855
33.763
26.5856
19.3081
11.9538
4.57186
-2.76562
-9.96554
-16.9143
-23.4794
-29.5109
-34.8417
-39.2901
-42.6645
-44.7803
-45.493
-44.7346
-42.5248
-39.0462
-34.4879
-28.8817
-22.1895
-14.3967
-5.54275
91.3383
82.8202
74.0461
65.5599
57.5519
49.9218
42.5226
35.2367
27.9839
20.7226
13.4484
6.19057
-0.994023
-8.02453
-14.7987
-21.1945
-27.0718
-32.2743
-36.6325
-39.9718
-42.1274
-42.9705
-42.437
-40.5414
-37.3765
-33.1383
-27.8842
-21.5158
-14.0091
-5.41102
93.4189
85.7567
77.3016
68.8048
60.6325
52.7586
45.0947
37.581
30.1738
22.8406
15.5691
8.37315
1.29372
-5.60311
-12.2286
-18.4736
-24.2108
-29.2975
-33.5799
-36.9012
-39.1151
-40.1068
-39.8138
-38.2372
-35.4259
-31.5393
-26.6397
-20.6305
-13.4698
-5.21553
95.1355
88.2758
80.352
72.1382
64.0767
56.1901
48.4312
40.7868
33.2548
25.8307
18.5155
11.3246
4.29314
-2.52298
-9.04725
-15.1837
-20.8188
-25.8249
-30.0646
-33.3987
-35.6981
-36.86
-36.8235
-35.5778
-33.155
-29.6247
-25.0731
-19.4703
-12.7404
-4.95465
96.5314
90.3836
83.0777
75.3277
67.586
59.8996
52.2432
44.6311
37.0913
29.646
22.3158
15.1279
8.1218
1.35188
-5.11165
-11.1824
-16.7589
-21.7273
-25.9658
-29.3513
-31.7697
-33.1284
-33.3676
-32.4661
-30.4352
-27.2978
-23.1457
-17.9975
-11.798
-4.63167
97.6607
92.1285
85.4434
78.2385
70.9432
63.6111
56.2249
48.809
41.4075
34.0604
26.8036
19.6769
12.7278
6.01396
-0.395375
-6.41878
-11.9631
-16.9254
-21.1966
-24.6674
-27.2361
-28.8184
-29.3554
-28.8182
-27.2022
-24.5088
-20.8195
-16.1993
-10.6441
-4.25067
98.5817
93.5764
87.4707
80.8215
74.0254
67.1338
60.129
53.0354
45.9011
38.7739
31.6985
24.7227
17.8999
11.2916
4.96758
-0.993017
-6.5025
-11.4659
-15.7841
-19.3585
-22.0972
-23.9226
-24.7774
-24.6278
-23.4615
-21.2765
-18.1274
-14.1164
-9.31116
-3.81502
99.3396
94.7855
89.2004
83.0783
76.783
70.3612
63.7922
57.0954
50.3163
43.503
36.7026
29.9652
23.3468
16.9097
10.7236
4.86502
-0.582676
-5.53096
-9.88863
-13.5656
-16.4781
-18.554
-19.7383
-19.9958
-19.3119
-17.6895
-15.1588
-11.8411
-7.86013
-3.3309
99.9674
95.8007
90.6759
85.035
79.2129
73.2522
67.1292
60.8572
54.4763
48.0313
41.5671
35.1324
28.7813
22.5745
16.5789
10.8675
5.5186
0.614441
-3.7609
-7.52491
-10.6007
-12.9216
-14.4356
-15.1085
-14.9262
-13.8955
-12.0455
-9.48752
-6.36072
-2.80937
100.49
96.6569
91.9359
86.7258
81.3363
75.8069
70.1118
64.2592
58.2833
52.2241
46.1225
40.0231
33.9761
28.0381
22.2712
16.743
11.5258
6.69517
2.32789
-1.50086
-4.72093
-7.27116
-9.10331
-10.1856
-10.5054
-10.0728
-8.92411
-7.14425
-4.86971
-2.26536
100.925
97.3804
93.0131
88.185
83.1836
78.0462
72.7465
67.2881
61.7001
56.0176
50.2768
44.5176
38.7851
33.1304
27.6098
22.2845
17.2198
12.4841
8.14644
4.27468
0.932136
-1.82576
-3.95504
-5.42666
-6.2299
-6.37593
-5.90265
-4.88336
-3.43777
-1.71929
101.287
97.9918
93.9337
89.4426
84.7859
79.9994
75.0566
69.958
64.7279
59.3971
53.9974
48.5638
43.1363
37.76
32.485
27.3658
22.4606
17.8301
13.5358
9.63817
6.19366
3.25193
0.852537
-0.978387
-2.23147
-2.91774
-3.07287
-2.76283
-2.08939
-1.18667
101.587
98.5072
94.7194
90.5244
86.172
81.6965
77.0717
72.2955
67.3884
62.3771
57.2895
52.1561
47.0118
41.8963
36.8537
31.9318
27.1819
22.6574
18.4125
14.5006
10.9715
7.86924
5.22908
3.07437
1.41348
0.236415
-0.48873
-0.819789
-0.843869
-0.678815
101.833
98.9401
95.3877
91.4524
87.3674
83.1656
78.8215
74.331
69.7113
64.9854
60.1777
55.3145
50.4264
45.5479
40.7175
35.9771
31.3716
26.9476
22.7527
18.8334
15.2338
11.9924
9.14062
6.6991
4.67545
3.06108
1.82821
0.926836
0.282426
-0.207617
102.034
99.3014
95.954
92.2455
88.3943
84.4322
80.3343
76.0949
71.7283
67.2544
62.6943
58.0709
53.4105
48.7432
44.1025
39.5251
35.0499
30.7176
26.5699
22.6474
18.9885
15.6273
12.5912
9.89871
7.55671
5.55801
3.87874
2.47592
1.28576
0.219816
102.196
99.6009
96.4311
92.92
89.2723
85.5187
81.6354
77.6152
73.4697
69.2164
64.8733
60.4602
55.9998
51.5183
47.0449
42.6113
38.2516
34.0013
29.8967
25.9732
22.2645
18.8004
15.6052
12.6951
10.0765
7.74343
5.67548
3.83579
2.16966
0.601488
102.324
99.8473
96.8308
93.4904
90.0188
86.4457
82.748
78.9176
74.9639
70.9019
66.7473
62.517
58.2307
53.9111
49.5834
45.2754
41.0168
36.8386
32.7724
28.8493
25.0988
21.5471
18.2154
15.1183
12.2615
9.64005
7.23657
5.01933
2.94128
0.937797
102.425
100.048
97.1628
93.9692
90.6488
87.2305
83.6922
80.0247
76.2358
72.3383
68.3458
64.2729
60.1365
55.9563
51.7543
47.5548
43.3837
39.2681
35.2357
31.3139
27.5285
23.9026
20.4549
17.1983
14.1381
11.2702
8.57956
6.03879
3.60711
1.22922
102.504
100.212
97.4376
94.3688
91.1769
87.8901
84.4871
80.958
77.3091
73.5515
69.6968
65.7578
61.749
57.6875
53.5927
49.4857
45.3893
41.3274
37.3243
33.4043
29.5901
25.902
22.3568
18.9658
15.7338
12.6575
9.72372
6.90863
4.17651
1.47952
102.564
100.342
97.6611
94.6969
91.6127
88.4359
85.146
81.7328
78.201
74.5604
70.8211
66.9941
63.0921
59.1301
55.1251
51.0956
47.062
43.0453
39.0671
35.1489
31.311
27.5715
23.9452
20.4424
17.0674
13.8172
10.6805
7.63605
4.65241
1.68804
102.616
100.45
97.8464
94.9682
91.9723
88.8857
85.6885
82.3702
78.9344
75.3896
71.7448
68.0096
64.1951
60.3146
56.3831
52.4173
48.4351
44.4555
40.4979
36.5815
32.7244
28.9431
25.2508
21.6568
18.165
14.7727
11.4698
8.23745
5.04726
1.86221
102.653
100.532
97.9886
95.1786
92.2527
89.2375
86.1136
82.8703
79.5104
76.0413
72.4712
68.8085
65.0631
61.2469
57.3734
53.4578
49.5162
45.5659
41.6245
37.7095
33.8374
30.0231
26.2787
22.6126
19.0284
15.5238
12.0894
8.70801
5.35418
1.99523
102.701
100.614
98.1165
95.3583
92.4851
89.5236
86.4549
83.268
79.9649
76.5527
73.0384
69.4298
65.7359
61.9676
58.1372
54.2586
50.3469
46.4179
42.488
38.5733
34.6891
30.8493
27.0651
23.3443
19.69
16.1002
12.566
9.07139
5.59284
2.10013
102.725
100.658
98.1912
95.4679
92.63
89.7042
86.6722
83.5228
80.2576
76.8831
73.4059
69.8333
66.1737
62.4372
58.6355
54.7818
50.8901
46.9755
43.0534
39.1391
35.2473
31.3908
27.5804
23.8233
20.1225
16.4758
12.8746
9.30348
5.74
2.15774
102.804
100.741
98.2918
95.5892
92.771
89.8642
86.8513
83.7213
80.4753
77.1194
73.6603
70.1047
66.4608
62.7385
58.949
55.105
51.2204
47.3098
43.3882
39.4707
35.5712
31.7027
27.8754
24.0964
20.3686
16.6897
13.0508
9.43582
5.81976
2.1666
)
;

boundaryField
{
    inlet
    {
        type            zeroGradient;
    }
    outlet
    {
        type            fixedValue;
        value           uniform 0;
    }
    flap
    {
        type            zeroGradient;
    }
    upperWall
    {
        type            zeroGradient;
    }
    lowerWall
    {
        type            zeroGradient;
    }
    frontAndBack
    {
        type            empty;
    }
}


// ************************************************************************* //
