/*--------------------------------*- C++ -*----------------------------------*\
  =========                 |
  \\      /  F ield         | OpenFOAM: The Open Source CFD Toolbox
   \\    /   O peration     | Website:  https://openfoam.org
    \\  /    A nd           | Version:  dev
     \\/     M anipulation  |
\*---------------------------------------------------------------------------*/
FoamFile
{
    version     2.0;
    format      ascii;
    class       volVectorField;
    location    "0.9";
    object      U;
}
// * * * * * * * * * * * * * * * * * * * * * * * * * * * * * * * * * * * * * //

dimensions      [0 1 -1 0 0 0 0];

internalField   nonuniform List<vector> 
2790
(
(9.94346 0 0.020829)
(9.87347 0 0.0302066)
(9.76996 0 0.0369136)
(9.64008 0 0.0437736)
(9.48969 0 0.0508841)
(9.31981 0 0.0581942)
(9.12971 0 0.0658318)
(8.91862 0 0.0739562)
(8.6858 0 0.0827023)
(8.43043 0 0.0921909)
(8.15143 0 0.102542)
(7.84758 0 0.113878)
(7.51753 0 0.126319)
(7.15988 0 0.139981)
(6.77323 0 0.154965)
(6.35627 0 0.171342)
(5.90794 0 0.189138)
(5.42761 0 0.208301)
(4.91529 0 0.228668)
(4.37197 0 0.249923)
(3.79992 0 0.271543)
(3.20313 0 0.292744)
(2.58759 0 0.312448)
(1.96157 0 0.329364)
(1.3346 0 0.342933)
(0.731771 0 0.357687)
(0.0845229 0 0.306405)
(-0.467026 0 -0.0923863)
(-0.440037 0 -0.274495)
(-0.21938 0 -0.398016)
(9.99798 0 0.0416469)
(9.97919 0 0.0642507)
(9.93045 0 0.0818963)
(9.85473 0 0.100226)
(9.75645 0 0.119522)
(9.63672 0 0.13963)
(9.49499 0 0.160798)
(9.33053 0 0.183371)
(9.14266 0 0.207649)
(8.93052 0 0.233898)
(8.69307 0 0.262371)
(8.42908 0 0.293314)
(8.13718 0 0.326951)
(7.81589 0 0.363463)
(7.46372 0 0.402957)
(7.07925 0 0.44542)
(6.66122 0 0.490658)
(6.20874 0 0.538217)
(5.72151 0 0.587284)
(5.20013 0 0.636579)
(4.64648 0 0.684233)
(4.06415 0 0.727682)
(3.45901 0 0.763587)
(2.83999 0 0.787833)
(2.22016 0 0.795696)
(1.62512 0 0.781892)
(1.06028 0 0.714439)
(0.611334 0 0.511092)
(0.183267 0 0.172388)
(-0.0133375 0 -0.438851)
(9.99508 0 0.0448029)
(9.97334 0 0.0784062)
(9.92661 0 0.10796)
(9.85565 0 0.138398)
(9.76359 0 0.170424)
(9.65161 0 0.204013)
(9.51951 0 0.239504)
(9.36675 0 0.277387)
(9.19279 0 0.318131)
(8.99696 0 0.362168)
(8.77839 0 0.409924)
(8.53604 0 0.461815)
(8.2687 0 0.518233)
(7.97504 0 0.579507)
(7.65368 0 0.645856)
(7.30319 0 0.717317)
(6.92219 0 0.793643)
(6.50953 0 0.874171)
(6.06442 0 0.957651)
(5.58671 0 1.04205)
(5.07725 0 1.12434)
(4.53836 0 1.20021)
(3.97441 0 1.26388)
(3.39275 0 1.30768)
(2.80452 0 1.32129)
(2.22819 0 1.28933)
(1.67493 0 1.1768)
(1.16766 0 0.928517)
(0.678208 0 0.532423)
(0.330485 0 -0.147724)
(9.99351 0 0.0517213)
(9.96959 0 0.097567)
(9.9227 0 0.139983)
(9.85302 0 0.182573)
(9.76277 0 0.226642)
(9.6531 0 0.272589)
(9.52403 0 0.320932)
(9.37524 0 0.372322)
(9.20635 0 0.427402)
(9.01691 0 0.486781)
(8.80632 0 0.55106)
(8.57385 0 0.620829)
(8.31862 0 0.69665)
(8.03969 0 0.779021)
(7.73601 0 0.868316)
(7.40652 0 0.964698)
(7.0501 0 1.06799)
(6.66573 0 1.17751)
(6.25253 0 1.29184)
(5.80995 0 1.40853)
(5.33803 0 1.5238)
(4.83773 0 1.63212)
(4.31139 0 1.72577)
(3.76333 0 1.79426)
(3.20008 0 1.82326)
(2.63129 0 1.79288)
(2.06341 0 1.67134)
(1.50335 0 1.42109)
(0.925711 0 1.03204)
(0.474843 0 0.46869)
(9.99279 0 0.0600634)
(9.96773 0 0.116554)
(9.92075 0 0.170329)
(9.85224 0 0.224077)
(9.76383 0 0.27945)
(9.65646 0 0.337211)
(9.53022 0 0.398014)
(9.3849 0 0.462597)
(9.22018 0 0.531703)
(9.03573 0 0.60605)
(8.83108 0 0.68634)
(8.60567 0 0.773263)
(8.35888 0 0.867482)
(8.09 0 0.969597)
(7.79831 0 1.08008)
(7.48302 0 1.19919)
(7.14334 0 1.32684)
(6.77846 0 1.46238)
(6.38759 0 1.60438)
(5.97 0 1.75027)
(5.52514 0 1.89593)
(5.0528 0 2.03519)
(4.55336 0 2.15929)
(4.02802 0 2.25622)
(3.47882 0 2.30994)
(2.90892 0 2.29982)
(2.31975 0 2.19864)
(1.71271 0 1.97694)
(1.05621 0 1.62339)
(0.509317 0 1.10148)
(9.99251 0 0.0690154)
(9.96702 0 0.135528)
(9.92039 0 0.200147)
(9.85332 0 0.264931)
(9.76712 0 0.331549)
(9.66253 0 0.400976)
(9.53964 0 0.473993)
(9.39827 0 0.551416)
(9.2382 0 0.63408)
(9.05912 0 0.722802)
(8.86065 0 0.818382)
(8.64232 0 0.921601)
(8.4036 0 1.03321)
(8.14393 0 1.15389)
(7.86272 0 1.28418)
(7.55934 0 1.42445)
(7.23314 0 1.57466)
(6.88341 0 1.73428)
(6.50933 0 1.90197)
(6.11001 0 2.07524)
(5.68437 0 2.24998)
(5.2312 0 2.41999)
(4.74917 0 2.57629)
(4.2369 0 2.70655)
(3.69295 0 2.79457)
(3.11603 0 2.82019)
(2.50371 0 2.75907)
(1.85611 0 2.58534)
(1.13755 0 2.28704)
(0.526537 0 1.81746)
(9.99246 0 0.0781772)
(9.96706 0 0.154369)
(9.92121 0 0.229325)
(9.85589 0 0.304741)
(9.77227 0 0.382214)
(9.67092 0 0.462869)
(9.55191 0 0.547623)
(9.41514 0 0.637391)
(9.26041 0 0.733093)
(9.08745 0 0.835637)
(8.89592 0 0.945906)
(8.6854 0 1.06476)
(8.45542 0 1.19302)
(8.20546 0 1.33143)
(7.93497 0 1.48063)
(7.64333 0 1.64103)
(7.32989 0 1.81273)
(6.99386 0 1.99532)
(6.63428 0 2.18765)
(6.24992 0 2.38749)
(5.83918 0 2.5911)
(5.3999 0 2.79267)
(4.92931 0 2.98371)
(4.42397 0 3.15244)
(3.87979 0 3.28326)
(3.29237 0 3.35673)
(2.65656 0 3.34984)
(1.97318 0 3.23746)
(1.20323 0 3.00493)
(0.54118 0 2.58981)
(9.99255 0 0.0873142)
(9.96761 0 0.172887)
(9.92293 0 0.257698)
(9.85967 0 0.343291)
(9.77898 0 0.4312)
(9.68132 0 0.522649)
(9.56675 0 0.618678)
(9.43518 0 0.720293)
(9.28647 0 0.828495)
(9.12039 0 0.944271)
(8.93664 0 1.06858)
(8.73483 0 1.20237)
(8.51451 0 1.34653)
(8.27519 0 1.50189)
(8.01628 0 1.66916)
(7.73714 0 1.84887)
(7.43699 0 2.04126)
(7.11487 0 2.24611)
(6.76958 0 2.46258)
(6.39945 0 2.68886)
(6.00226 0 2.92179)
(5.57496 0 3.15636)
(5.1135 0 3.38506)
(4.61266 0 3.59719)
(4.06616 0 3.77827)
(3.46711 0 3.90962)
(2.80799 0 3.96848)
(2.09055 0 3.9281)
(1.27208 0 3.76848)
(0.560095 0 3.40824)
(9.99275 0 0.0962758)
(9.96853 0 0.190911)
(9.92534 0 0.285117)
(9.86447 0 0.380415)
(9.78706 0 0.478301)
(9.69351 0 0.580069)
(9.58387 0 0.686861)
(9.45808 0 0.799768)
(9.31605 0 0.919867)
(9.15757 0 1.04822)
(8.9824 0 1.18587)
(8.79018 0 1.33383)
(8.5805 0 1.49309)
(8.35284 0 1.66456)
(8.10662 0 1.84908)
(7.84112 0 2.04729)
(7.55542 0 2.25965)
(7.24839 0 2.48621)
(6.91848 0 2.72652)
(6.56361 0 2.97935)
(6.1809 0 3.24234)
(5.76645 0 3.51156)
(5.31499 0 3.78087)
(4.81967 0 4.04117)
(4.27206 0 4.27949)
(3.66275 0 4.47811)
(2.98121 0 4.61395)
(2.22897 0 4.65707)
(1.35838 0 4.57949)
(0.588716 0 4.27745)
(9.99302 0 0.104957)
(9.96973 0 0.208297)
(9.92831 0 0.311439)
(9.87013 0 0.415948)
(9.79634 0 0.523313)
(9.70728 0 0.63488)
(9.60302 0 0.751874)
(9.48354 0 0.875465)
(9.34878 0 1.0068)
(9.19859 0 1.14702)
(9.03276 0 1.29724)
(8.85098 0 1.45856)
(8.65286 0 1.63204)
(8.43792 0 1.81872)
(8.20556 0 2.01955)
(7.95501 0 2.23538)
(7.68527 0 2.4669)
(7.395 0 2.7145)
(7.08241 0 2.97824)
(6.74502 0 3.2576)
(6.37942 0 3.55121)
(5.9809 0 3.8565)
(5.54308 0 4.16909)
(5.05751 0 4.48194)
(4.51346 0 4.78425)
(3.89838 0 5.0599)
(3.19729 0 5.28575)
(2.40884 0 5.42798)
(1.47757 0 5.4482)
(0.63392 0 5.2145)
(9.99334 0 0.113283)
(9.97115 0 0.224926)
(9.93174 0 0.336533)
(9.87653 0 0.449737)
(9.80664 0 0.566049)
(9.72244 0 0.686855)
(9.62398 0 0.813449)
(9.51129 0 0.947074)
(9.38434 0 1.08895)
(9.24305 0 1.24027)
(9.08725 0 1.40222)
(8.91669 0 1.57599)
(8.73103 0 1.76274)
(8.52983 0 1.96361)
(8.3125 0 2.17972)
(8.07827 0 2.41212)
(7.82611 0 2.66176)
(7.55459 0 2.92949)
(7.26176 0 3.2159)
(6.94489 0 3.52132)
(6.6002 0 3.84554)
(6.22241 0 4.1876)
(5.80424 0 4.54525)
(5.33577 0 4.91418)
(4.80383 0 5.28672)
(4.19195 0 5.64975)
(3.4785 0 5.98169)
(2.65482 0 6.24601)
(1.65124 0 6.39215)
(0.707006 0 6.25043)
(9.99371 0 0.121192)
(9.97274 0 0.240698)
(9.93555 0 0.360277)
(9.88355 0 0.481643)
(9.81785 0 0.606339)
(9.73881 0 0.73579)
(9.64652 0 0.871348)
(9.54104 0 1.01432)
(9.4224 0 1.16597)
(9.29056 0 1.32757)
(9.14541 0 1.50037)
(8.98678 0 1.68562)
(8.81439 0 1.88459)
(8.62787 0 2.09854)
(8.42669 0 2.32872)
(8.21015 0 2.57643)
(7.97723 0 2.84292)
(7.72655 0 3.12946)
(7.45616 0 3.43729)
(7.16331 0 3.76761)
(6.84412 0 4.12149)
(6.49312 0 4.49978)
(6.10256 0 4.90276)
(5.66154 0 5.32956)
(5.15473 0 5.77701)
(4.56135 0 6.23736)
(3.85098 0 6.69443)
(3.00118 0 7.11389)
(1.91505 0 7.4358)
(0.829726 0 7.43937)
(9.99411 0 0.12864)
(9.97447 0 0.255531)
(9.93967 0 0.382567)
(9.89109 0 0.511541)
(9.82981 0 0.644034)
(9.75622 0 0.781505)
(9.67043 0 0.925356)
(9.57254 0 1.07694)
(9.46262 0 1.23758)
(9.3407 0 1.4086)
(9.20675 0 1.59129)
(9.06068 0 1.78699)
(8.90228 0 1.99704)
(8.73129 0 2.22282)
(8.54729 0 2.46573)
(8.34968 0 2.72728)
(8.1376 0 3.00902)
(7.90982 0 3.31264)
(7.66457 0 3.64001)
(7.39936 0 3.9932)
(7.11059 0 4.3746)
(6.79312 0 4.78691)
(6.4395 0 5.23319)
(6.03885 0 5.71664)
(5.57495 0 6.24006)
(5.02386 0 6.80438)
(4.34599 0 7.40535)
(3.4987 0 8.02325)
(2.33434 0 8.60682)
(1.04948 0 8.88338)
(9.99453 0 0.135588)
(9.97631 0 0.269358)
(9.94404 0 0.403314)
(9.89906 0 0.539325)
(9.84242 0 0.679007)
(9.77451 0 0.823854)
(9.69549 0 0.975304)
(9.60549 0 1.13475)
(9.50465 0 1.30356)
(9.39306 0 1.48309)
(9.27077 0 1.67469)
(9.13777 0 1.87975)
(8.99398 0 2.09967)
(8.83926 0 2.33593)
(8.67332 0 2.59007)
(8.49575 0 2.86378)
(8.30592 0 3.15887)
(8.10289 0 3.47741)
(7.88527 0 3.82181)
(7.65109 0 4.19493)
(7.39748 0 4.6003)
(7.12026 0 5.0424)
(6.81331 0 5.52695)
(6.4674 0 6.06137)
(6.06811 0 6.65534)
(5.59248 0 7.32132)
(4.9974 0 8.07524)
(4.22226 0 8.93394)
(3.03979 0 9.91257)
(1.48204 0 10.8052)
(9.99498 0 0.142008)
(9.97824 0 0.282123)
(9.94862 0 0.42244)
(9.90738 0 0.564889)
(9.85555 0 0.711123)
(9.79352 0 0.862662)
(9.72149 0 1.02097)
(9.63964 0 1.18748)
(9.54816 0 1.36358)
(9.44723 0 1.55066)
(9.33696 0 1.75011)
(9.21746 0 1.96334)
(9.08877 0 2.19182)
(8.95089 0 2.4371)
(8.80373 0 2.70082)
(8.6471 0 2.98479)
(8.48067 0 3.29104)
(8.30389 0 3.62191)
(8.11595 0 3.98022)
(7.91562 0 4.36942)
(7.70113 0 4.79391)
(7.46994 0 5.25946)
(7.2183 0 5.77388)
(6.94066 0 6.348)
(6.62825 0 6.99749)
(6.26709 0 7.74609)
(5.82781 0 8.63293)
(5.26824 0 9.73031)
(4.32233 0 11.2231)
(2.45639 0 13.7745)
(-0.201901 0 0.21653)
(-0.562438 0 0.323781)
(-1.1452 0 0.354015)
(-1.78167 0 0.365324)
(-2.46647 0 0.364505)
(-3.17984 0 0.355901)
(-3.90729 0 0.341837)
(-4.63713 0 0.323788)
(-5.35961 0 0.302749)
(-6.06621 0 0.279406)
(-6.74923 0 0.254234)
(-7.40145 0 0.227554)
(-8.01583 0 0.199574)
(-8.58529 0 0.170418)
(-9.10257 0 0.140146)
(-9.56009 0 0.108762)
(-9.94989 0 0.0762144)
(-10.2636 0 0.0424055)
(-10.4925 0 0.00710248)
(-10.6267 0 -0.030302)
(-10.6562 0 -0.0714092)
(-10.5673 0 -0.118917)
(-10.3397 0 -0.172827)
(-9.95892 0 -0.233676)
(-9.41228 0 -0.303029)
(-8.68085 0 -0.383276)
(-7.71253 0 -0.479063)
(-6.39545 0 -0.599586)
(-4.64277 0 -0.746254)
(-2.80104 0 -0.863677)
(-0.45021 0 0.642173)
(-1.01872 0 0.814665)
(-1.76756 0 0.894827)
(-2.52551 0 0.941226)
(-3.30488 0 0.961284)
(-4.09431 0 0.961827)
(-4.8844 0 0.947457)
(-5.6666 0 0.921463)
(-6.43324 0 0.886218)
(-7.17734 0 0.843412)
(-7.89235 0 0.794212)
(-8.57196 0 0.739383)
(-9.20986 0 0.679386)
(-9.79958 0 0.614461)
(-10.3344 0 0.544695)
(-10.8071 0 0.470079)
(-11.2102 0 0.390555)
(-11.5358 0 0.306072)
(-11.7756 0 0.216561)
(-11.921 0 0.121553)
(-11.9633 0 0.0194856)
(-11.8942 0 -0.0911125)
(-11.7061 0 -0.209519)
(-11.3901 0 -0.335108)
(-10.9404 0 -0.46877)
(-10.3503 0 -0.612032)
(-9.59455 0 -0.769144)
(-8.6179 0 -0.951398)
(-7.4385 0 -1.1626)
(-6.51115 0 -1.34594)
(-0.551102 0 1.38564)
(-1.22719 0 1.55069)
(-2.06252 0 1.62753)
(-2.87311 0 1.66903)
(-3.68442 0 1.67734)
(-4.49001 0 1.65875)
(-5.28514 0 1.61848)
(-6.06477 0 1.56076)
(-6.82396 0 1.48886)
(-7.55789 0 1.40517)
(-8.26174 0 1.31138)
(-8.93059 0 1.20862)
(-9.55929 0 1.0976)
(-10.1423 0 0.978753)
(-10.6738 0 0.85232)
(-11.1473 0 0.718475)
(-11.556 0 0.577411)
(-11.8924 0 0.42945)
(-12.1491 0 0.275095)
(-12.3184 0 0.114872)
(-12.3922 0 -0.0511481)
(-12.3642 0 -0.224306)
(-12.2307 0 -0.406873)
(-11.9847 0 -0.59765)
(-11.6247 0 -0.795668)
(-11.15 0 -0.999498)
(-10.5473 0 -1.20872)
(-9.7819 0 -1.43002)
(-8.88754 0 -1.67518)
(-8.24106 0 -1.91579)
(-0.574777 0 2.21629)
(-1.28779 0 2.35298)
(-2.1536 0 2.40108)
(-2.97196 0 2.41684)
(-3.77924 0 2.39891)
(-4.57117 0 2.35271)
(-5.34665 0 2.28316)
(-6.10358 0 2.19455)
(-6.83936 0 2.0903)
(-7.55098 0 1.97292)
(-8.23497 0 1.84415)
(-8.88737 0 1.70506)
(-9.50368 0 1.55625)
(-10.0788 0 1.39789)
(-10.6072 0 1.22996)
(-11.0826 0 1.05226)
(-11.4983 0 0.864543)
(-11.847 0 0.666685)
(-12.1214 0 0.458733)
(-12.3143 0 0.241028)
(-12.419 0 0.0138601)
(-12.4275 0 -0.222811)
(-12.3414 0 -0.467907)
(-12.1561 0 -0.720502)
(-11.872 0 -0.978476)
(-11.4915 0 -1.23843)
(-11.0078 0 -1.49634)
(-10.3993 0 -1.75484)
(-9.70386 0 -2.02936)
(-9.22244 0 -2.299)
(-0.55725 0 3.06469)
(-1.25919 0 3.16251)
(-2.11156 0 3.17045)
(-2.90378 0 3.15059)
(-3.68145 0 3.09934)
(-4.44003 0 3.02129)
(-5.18072 0 2.9204)
(-5.90325 0 2.80027)
(-6.60652 0 2.66374)
(-7.28861 0 2.51285)
(-7.94682 0 2.34888)
(-8.57767 0 2.17252)
(-9.17699 0 1.98402)
(-9.73992 0 1.78336)
(-10.261 0 1.57036)
(-10.7342 0 1.34488)
(-11.1529 0 1.10692)
(-11.5101 0 0.856694)
(-11.7988 0 0.594887)
(-12.0123 0 0.322712)
(-12.1441 0 0.0419794)
(-12.188 0 -0.245203)
(-12.1458 0 -0.540252)
(-12.0159 0 -0.84188)
(-11.7996 0 -1.14622)
(-11.5011 0 -1.44796)
(-11.1179 0 -1.7404)
(-10.6379 0 -2.02322)
(-10.0989 0 -2.31074)
(-9.73519 0 -2.57988)
(-0.515527 0 3.88019)
(-1.17293 0 3.93992)
(-1.97826 0 3.90644)
(-2.71789 0 3.84906)
(-3.44541 0 3.7635)
(-4.15442 0 3.65397)
(-4.84751 0 3.52344)
(-5.52528 0 3.37462)
(-6.18739 0 3.20958)
(-6.83251 0 3.02968)
(-7.45835 0 2.83568)
(-8.06175 0 2.62782)
(-8.63876 0 2.40604)
(-9.18472 0 2.17001)
(-9.69433 0 1.91937)
(-10.1617 0 1.65375)
(-10.5805 0 1.37299)
(-10.9438 0 1.07718)
(-11.2448 0 0.766971)
(-11.4769 0 0.443951)
(-11.6346 0 0.111044)
(-11.7125 0 -0.228243)
(-11.7104 0 -0.572628)
(-11.6315 0 -0.921052)
(-11.4773 0 -1.26824)
(-11.2526 0 -1.60736)
(-10.9577 0 -1.92988)
(-10.5875 0 -2.23285)
(-10.1775 0 -2.52651)
(-9.90503 0 -2.7849)
(-0.458243 0 4.62711)
(-1.04644 0 4.65525)
(-1.77919 0 4.58468)
(-2.44537 0 4.49311)
(-3.10571 0 4.37655)
(-3.75108 0 4.23921)
(-4.38506 0 4.08309)
(-5.00843 0 3.90995)
(-5.62114 0 3.72094)
(-6.22203 0 3.51659)
(-6.80896 0 3.29698)
(-7.37888 0 3.06182)
(-7.92796 0 2.81058)
(-8.45166 0 2.54265)
(-8.94485 0 2.25741)
(-9.4019 0 1.95441)
(-9.81672 0 1.63349)
(-10.1829 0 1.29496)
(-10.4937 0 0.939781)
(-10.7428 0 0.570223)
(-10.9248 0 0.190411)
(-11.0356 0 -0.194605)
(-11.0713 0 -0.582372)
(-11.0407 0 -0.971421)
(-10.945 0 -1.35524)
(-10.7891 0 -1.72586)
(-10.5747 0 -2.0735)
(-10.3017 0 -2.39248)
(-10.0018 0 -2.68741)
(-9.80454 0 -2.93139)
(-0.390371 0 5.28073)
(-0.890085 0 5.28623)
(-1.5304 0 5.18572)
(-2.10638 0 5.0665)
(-2.68531 0 4.92527)
(-3.25486 0 4.76628)
(-3.81949 0 4.59054)
(-4.37973 0 4.39886)
(-4.9354 0 4.19141)
(-5.48521 0 3.96793)
(-6.02692 0 3.72785)
(-6.55741 0 3.47035)
(-7.07288 0 3.19456)
(-7.56891 0 2.89962)
(-8.04064 0 2.5848)
(-8.48275 0 2.24957)
(-8.88963 0 1.8938)
(-9.25532 0 1.51787)
(-9.57345 0 1.12294)
(-9.83747 0 0.711525)
(-10.0418 0 0.288456)
(-10.1835 0 -0.139688)
(-10.254 0 -0.56726)
(-10.2691 0 -0.992308)
(-10.2292 0 -1.40787)
(-10.1392 0 -1.80545)
(-10.0009 0 -2.17469)
(-9.81685 0 -2.50721)
(-9.61422 0 -2.80126)
(-9.48236 0 -3.03013)
(-0.315016 0 5.82299)
(-0.710237 0 5.81608)
(-1.24229 0 5.69429)
(-1.71428 0 5.55605)
(-2.19994 0 5.39859)
(-2.68332 0 5.22606)
(-3.16987 0 5.03823)
(-3.65948 0 4.83495)
(-4.15152 0 4.6155)
(-4.6443 0 4.37888)
(-5.13526 0 4.12391)
(-5.62111 0 3.8494)
(-6.09797 0 3.55418)
(-6.5615 0 3.23727)
(-7.00707 0 2.89787)
(-7.42978 0 2.53543)
(-7.82448 0 2.14985)
(-8.18571 0 1.7416)
(-8.50743 0 1.31195)
(-8.78293 0 0.863575)
(-9.00644 0 0.401534)
(-9.17604 0 -0.0663549)
(-9.27698 0 -0.529665)
(-9.33438 0 -0.985347)
(-9.34808 0 -1.42744)
(-9.32239 0 -1.84748)
(-9.25839 0 -2.23533)
(-9.15877 0 -2.58024)
(-9.04566 0 -2.87354)
(-8.97382 0 -3.08795)
(-0.234242 0 6.23961)
(-0.510818 0 6.23151)
(-0.921657 0 6.09803)
(-1.27795 0 5.95097)
(-1.66054 0 5.78743)
(-2.04924 0 5.61102)
(-2.45073 0 5.41993)
(-2.86375 0 5.21299)
(-3.28695 0 4.98866)
(-3.71802 0 4.74536)
(-4.15393 0 4.48145)
(-4.59106 0 4.19546)
(-5.02536 0 3.88607)
(-5.45252 0 3.55232)
(-5.86813 0 3.19347)
(-6.26763 0 2.80903)
(-6.64627 0 2.3989)
(-6.99897 0 1.96364)
(-7.31993 0 1.50459)
(-7.60227 0 1.02428)
(-7.83982 0 0.527452)
(-8.03035 0 0.0231848)
(-8.15799 0 -0.471845)
(-8.25216 0 -0.952171)
(-8.31583 0 -1.41501)
(-8.35263 0 -1.85247)
(-8.36245 0 -2.25578)
(-8.34593 0 -2.61287)
(-8.31905 0 -2.90753)
(-8.30583 0 -3.10908)
(-0.14968 0 6.51867)
(-0.294207 0 6.5212)
(-0.572859 0 6.3864)
(-0.803023 0 6.24229)
(-1.07461 0 6.08448)
(-1.36201 0 5.91538)
(-1.67343 0 5.73097)
(-2.00571 0 5.52907)
(-2.35648 0 5.3075)
(-2.72256 0 5.06435)
(-3.10038 0 4.7977)
(-3.48591 0 4.50594)
(-3.87483 0 4.18776)
(-4.2628 0 3.84235)
(-4.64567 0 3.46925)
(-5.01927 0 3.06794)
(-5.37908 0 2.63834)
(-5.72012 0 2.18099)
(-6.03631 0 1.69724)
(-6.31991 0 1.1894)
(-6.563 0 0.661983)
(-6.76099 0 0.126432)
(-6.91815 0 -0.396257)
(-7.04029 0 -0.895678)
(-7.1473 0 -1.37258)
(-7.2422 0 -1.82106)
(-7.32453 0 -2.23555)
(-7.39151 0 -2.60461)
(-7.45136 0 -2.90447)
(-7.49956 0 -3.09599)
(-0.063318 0 6.65056)
(-0.062126 0 6.67542)
(-0.198464 0 6.55071)
(-0.292419 0 6.423)
(-0.44698 0 6.28466)
(-0.628462 0 6.13525)
(-0.847067 0 5.96805)
(-1.09654 0 5.78053)
(-1.37296 0 5.56978)
(-1.67218 0 5.33389)
(-1.99004 0 5.07085)
(-2.32204 0 4.77914)
(-2.66355 0 4.45755)
(-3.01004 0 4.10565)
(-3.35781 0 3.72358)
(-3.70336 0 3.31066)
(-4.04253 0 2.8666)
(-4.37039 0 2.39168)
(-4.68041 0 1.88698)
(-4.96349 0 1.35479)
(-5.2088 0 0.800109)
(-5.41036 0 0.237538)
(-5.58367 0 -0.307983)
(-5.72263 0 -0.821309)
(-5.86234 0 -1.30446)
(-6.00622 0 -1.75564)
(-6.15574 0 -2.17464)
(-6.30532 0 -2.55388)
(-6.45456 0 -2.86361)
(-6.57184 0 -3.04969)
(0.0247076 0 6.62716)
(0.181307 0 6.681)
(0.201888 0 6.58174)
(0.249833 0 6.48673)
(0.218003 0 6.38508)
(0.145122 0 6.27033)
(0.0221004 0 6.13369)
(-0.144761 0 5.96906)
(-0.34758 0 5.77597)
(-0.579749 0 5.55341)
(-0.83693 0 5.29931)
(-1.11431 0 5.01245)
(-1.40692 0 4.69246)
(-1.70954 0 4.33988)
(-2.01911 0 3.95457)
(-2.33335 0 3.53561)
(-2.64878 0 3.0825)
(-2.96123 0 2.5948)
(-3.26445 0 2.07295)
(-3.54806 0 1.51983)
(-3.79667 0 0.940824)
(-3.99936 0 0.35213)
(-4.17969 0 -0.215976)
(-4.32572 0 -0.7375)
(-4.48707 0 -1.21833)
(-4.66658 0 -1.66237)
(-4.87127 0 -2.07591)
(-5.09688 0 -2.4595)
(-5.33635 0 -2.78236)
(-5.53603 0 -2.96986)
(0.119156 0 6.4401)
(0.439178 0 6.52648)
(0.632449 0 6.46968)
(0.823985 0 6.42799)
(0.915876 0 6.38189)
(0.947175 0 6.31588)
(0.916118 0 6.22098)
(0.832994 0 6.09164)
(0.705513 0 5.92634)
(0.541855 0 5.72518)
(0.347649 0 5.48763)
(0.128248 0 5.21343)
(-0.113394 0 4.90001)
(-0.373103 0 4.54653)
(-0.642285 0 4.16046)
(-0.920834 0 3.73912)
(-1.20638 0 3.28111)
(-1.49639 0 2.78473)
(-1.78644 0 2.25056)
(-2.06671 0 1.67929)
(-2.31987 0 1.07325)
(-2.52799 0 0.455985)
(-2.71865 0 -0.128684)
(-2.86995 0 -0.653021)
(-3.04872 0 -1.12377)
(-3.25191 0 -1.55126)
(-3.49442 0 -1.94661)
(-3.78017 0 -2.32294)
(-4.10187 0 -2.65729)
(-4.40216 0 -2.85479)
(0.215758 0 6.0903)
(0.716447 0 6.21009)
(1.10085 0 6.2157)
(1.43891 0 6.25311)
(1.64905 0 6.28196)
(1.77509 0 6.27828)
(1.82827 0 6.23463)
(1.82239 0 6.1474)
(1.76645 0 6.01576)
(1.66902 0 5.8408)
(1.53683 0 5.62367)
(1.3758 0 5.36544)
(1.19024 0 5.06613)
(0.982939 0 4.72448)
(0.759865 0 4.34475)
(0.523895 0 3.92791)
(0.277324 0 3.47361)
(0.0232568 0 2.98077)
(-0.240468 0 2.4407)
(-0.507869 0 1.86038)
(-0.748361 0 1.24494)
(-0.954065 0 0.591147)
(-1.19834 0 -0.0384328)
(-1.36302 0 -0.566562)
(-1.56437 0 -1.02305)
(-1.7896 0 -1.4291)
(-2.05572 0 -1.79639)
(-2.37925 0 -2.15113)
(-2.75791 0 -2.48734)
(-3.17642 0 -2.70265)
(9.99545 0 0.147981)
(9.98027 0 0.294002)
(9.95345 0 0.440229)
(9.91616 0 0.588645)
(9.86938 0 0.740932)
(9.81354 0 0.898628)
(9.74887 0 1.06322)
(9.67561 0 1.23616)
(9.59401 0 1.41884)
(9.50432 0 1.61269)
(9.40677 0 1.81909)
(9.30156 0 2.0395)
(9.18888 0 2.2754)
(9.0689 0 2.52838)
(8.94173 0 2.80014)
(8.80749 0 3.09257)
(8.66618 0 3.40782)
(8.51777 0 3.74839)
(8.3621 0 4.1173)
(8.19892 0 4.51833)
(8.02786 0 4.95629)
(7.84846 0 5.43757)
(7.66026 0 5.97086)
(7.46303 0 6.56842)
(7.25736 0 7.24824)
(7.04734 0 8.03816)
(6.84444 0 8.98445)
(6.7314 0 10.1675)
(7.07101 0 11.7097)
(7.16105 0 14.1198)
(9.99594 0 0.15352)
(9.98242 0 0.305003)
(9.95853 0 0.456666)
(9.92538 0 0.610534)
(9.88388 0 0.768308)
(9.83448 0 0.931542)
(9.77744 0 1.10173)
(9.71308 0 1.28033)
(9.6417 0 1.46876)
(9.56364 0 1.66842)
(9.47922 0 1.88072)
(9.38878 0 2.1071)
(9.29265 0 2.34905)
(9.19118 0 2.60816)
(9.08474 0 2.88613)
(8.97372 0 3.18487)
(8.85853 0 3.50653)
(8.73967 0 3.85362)
(8.61769 0 4.22916)
(8.49335 0 4.63687)
(8.36774 0 5.08145)
(8.24251 0 5.56899)
(8.12045 0 6.10751)
(8.00649 0 6.7078)
(7.90979 0 7.38449)
(7.84911 0 8.15723)
(7.85764 0 9.05066)
(7.98303 0 10.0904)
(8.46811 0 11.2158)
(8.75717 0 12.1548)
(9.99646 0 0.158531)
(9.98466 0 0.314951)
(9.96383 0 0.471516)
(9.93498 0 0.630274)
(9.89895 0 0.792941)
(9.85622 0 0.961072)
(9.80708 0 1.13616)
(9.75189 0 1.31966)
(9.69103 0 1.51297)
(9.62492 0 1.71748)
(9.55397 0 1.93459)
(9.47866 0 2.1657)
(9.39946 0 2.41228)
(9.31693 0 2.67587)
(9.23165 0 2.95813)
(9.14434 0 3.2609)
(9.05579 0 3.58622)
(8.96699 0 3.93646)
(8.87919 0 4.31442)
(8.79403 0 4.72343)
(8.71383 0 5.16756)
(8.64188 0 5.65181)
(8.58317 0 6.18227)
(8.54536 0 6.76619)
(8.54024 0 7.41156)
(8.58593 0 8.12529)
(8.70747 0 8.90751)
(8.90685 0 9.74616)
(9.29985 0 10.5897)
(9.72837 0 11.2424)
(9.99699 0 0.162955)
(9.98697 0 0.323729)
(9.9693 0 0.484594)
(9.94488 0 0.647613)
(9.91449 0 0.814501)
(9.8786 0 0.986808)
(9.83756 0 1.16601)
(9.79176 0 1.35355)
(9.74166 0 1.5508)
(9.68773 0 1.75911)
(9.6305 0 1.97984)
(9.57054 0 2.21434)
(9.5085 0 2.46403)
(9.4451 0 2.73034)
(9.38116 0 3.01485)
(9.31766 0 3.31924)
(9.25574 0 3.64537)
(9.19684 0 3.99531)
(9.14274 0 4.37145)
(9.09576 0 4.7765)
(9.05901 0 5.21358)
(9.0367 0 5.68618)
(9.03462 0 6.19806)
(9.06072 0 6.75283)
(9.1255 0 7.353)
(9.24215 0 7.99832)
(9.4285 0 8.6825)
(9.68622 0 9.39325)
(10.0773 0 10.1233)
(10.6226 0 10.771)
(9.99754 0 0.166742)
(9.98934 0 0.331234)
(9.97491 0 0.495751)
(9.95501 0 0.662352)
(9.93038 0 0.832743)
(9.90146 0 1.00846)
(9.86866 0 1.19095)
(9.8324 0 1.38161)
(9.79318 0 1.58179)
(9.75157 0 1.79279)
(9.70817 0 2.0159)
(9.66366 0 2.2524)
(9.61881 0 2.5036)
(9.57451 0 2.77083)
(9.53177 0 3.05549)
(9.49179 0 3.35907)
(9.45601 0 3.68315)
(9.42617 0 4.02943)
(9.40443 0 4.39976)
(9.39351 0 4.79612)
(9.39689 0 5.22057)
(9.41903 0 5.67513)
(9.46563 0 6.16152)
(9.54388 0 6.68074)
(9.66261 0 7.23236)
(9.83201 0 7.81377)
(10.0661 0 8.41898)
(10.3717 0 9.03712)
(10.7722 0 9.66216)
(11.321 0 10.2269)
(9.9981 0 0.169842)
(9.99175 0 0.337371)
(9.9806 0 0.504844)
(9.9653 0 0.674304)
(9.94649 0 0.847435)
(9.92462 0 1.02574)
(9.90012 0 1.21063)
(9.87346 0 1.40348)
(9.84519 0 1.60555)
(9.81591 0 1.81809)
(9.78632 0 2.0423)
(9.75717 0 2.27937)
(9.72936 0 2.53047)
(9.70387 0 2.7968)
(9.6819 0 3.07956)
(9.66479 0 3.37997)
(9.65417 0 3.6993)
(9.65199 0 4.03882)
(9.66059 0 4.39982)
(9.68285 0 4.78352)
(9.72226 0 5.19101)
(9.78313 0 5.62305)
(9.87063 0 6.07986)
(9.99094 0 6.56076)
(10.1513 0 7.06367)
(10.3594 0 7.58464)
(10.6248 0 8.11712)
(10.953 0 8.64943)
(11.3468 0 9.17044)
(11.8626 0 9.64264)
(9.99866 0 0.17221)
(9.99418 0 0.342049)
(9.98633 0 0.511739)
(9.97565 0 0.683294)
(9.96269 0 0.858361)
(9.9479 0 1.0384)
(9.93171 0 1.22479)
(9.91463 0 1.41882)
(9.89724 0 1.62171)
(9.88019 0 1.83462)
(9.86424 0 2.05864)
(9.8502 0 2.29485)
(9.83905 0 2.54428)
(9.83188 0 2.80793)
(9.82994 0 3.0868)
(9.83471 0 3.38184)
(9.8479 0 3.69396)
(9.87153 0 4.02401)
(9.90798 0 4.37271)
(9.96005 0 4.74062)
(10.0311 0 5.12799)
(10.1249 0 5.53462)
(10.2459 0 5.95965)
(10.3993 0 6.40127)
(10.5903 0 6.85642)
(10.8244 0 7.32033)
(11.1071 0 7.78622)
(11.4417 0 8.24392)
(11.8244 0 8.68326)
(12.31 0 9.08604)
(9.99922 0 0.173806)
(9.9966 0 0.345188)
(9.99206 0 0.51632)
(9.986 0 0.689167)
(9.97887 0 0.865335)
(9.9711 0 1.04623)
(9.96316 0 1.23318)
(9.95555 0 1.42739)
(9.94888 0 1.63)
(9.94384 0 1.84209)
(9.94122 0 2.06463)
(9.94188 0 2.29857)
(9.94683 0 2.54478)
(9.95722 0 2.80409)
(9.97434 0 3.07723)
(9.99971 0 3.36489)
(10.035 0 3.66763)
(10.0823 0 3.9859)
(10.1438 0 4.31995)
(10.2221 0 4.66973)
(10.3202 0 5.03486)
(10.4414 0 5.41444)
(10.5893 0 5.80688)
(10.7677 0 6.20975)
(10.9804 0 6.61953)
(11.2309 0 7.03143)
(11.5222 0 7.43934)
(11.8561 0 7.83548)
(12.2272 0 8.21183)
(12.6856 0 8.55857)
(9.99977 0 0.174593)
(9.99901 0 0.346717)
(9.99774 0 0.518482)
(9.99625 0 0.691792)
(9.99488 0 0.868197)
(9.99404 0 1.04905)
(9.99419 0 1.23558)
(9.99586 0 1.42895)
(9.99966 0 1.63021)
(10.0063 0 1.8403)
(10.0166 0 2.06011)
(10.0313 0 2.29042)
(10.0517 0 2.53196)
(10.0787 0 2.78533)
(10.1137 0 3.05107)
(10.1581 0 3.32959)
(10.2137 0 3.62113)
(10.2822 0 3.92578)
(10.3658 0 4.24338)
(10.4668 0 4.57344)
(10.5876 0 4.91509)
(10.731 0 5.26698)
(10.8998 0 5.62713)
(11.0966 0 5.99283)
(11.3241 0 6.36058)
(11.5843 0 6.72598)
(11.8786 0 7.08385)
(12.2077 0 7.4282)
(12.5659 0 7.75269)
(12.9984 0 8.05124)
(10.0003 0 0.174542)
(10.0014 0 0.34658)
(10.0033 0 0.518142)
(10.0063 0 0.691061)
(10.0106 0 0.866821)
(10.0165 0 1.0467)
(10.0246 0 1.23187)
(10.0352 0 1.42338)
(10.0492 0 1.6222)
(10.067 0 1.82916)
(10.0896 0 2.04501)
(10.1178 0 2.27041)
(10.1526 0 2.50591)
(10.1951 0 2.75194)
(10.2466 0 3.0088)
(10.3085 0 3.27667)
(10.3822 0 3.55552)
(10.4696 0 3.84514)
(10.5723 0 4.14504)
(10.6924 0 4.45441)
(10.8319 0 4.77208)
(10.9929 0 5.09642)
(11.1774 0 5.42529)
(11.3873 0 5.756)
(11.6242 0 6.08526)
(11.8892 0 6.4092)
(12.1825 0 6.72352)
(12.5041 0 7.02349)
(12.8484 0 7.30425)
(13.2568 0 7.56185)
(10.0009 0 0.173631)
(10.0037 0 0.34473)
(10.0088 0 0.515235)
(10.0161 0 0.686894)
(10.0259 0 0.861116)
(10.0384 0 1.0391)
(10.054 0 1.22194)
(10.0733 0 1.41059)
(10.0969 0 1.60592)
(10.1255 0 1.80864)
(10.1597 0 2.0194)
(10.2004 0 2.2387)
(10.2487 0 2.46692)
(10.3055 0 2.70434)
(10.3721 0 2.95107)
(10.4496 0 3.20705)
(10.5394 0 3.47206)
(10.6431 0 3.74564)
(10.7621 0 4.02705)
(10.898 0 4.3153)
(11.0525 0 4.60903)
(11.227 0 4.90649)
(11.423 0 5.20557)
(11.6417 0 5.50369)
(11.8838 0 5.79792)
(12.1497 0 6.08494)
(12.4392 0 6.3612)
(12.7517 0 6.62304)
(13.082 0 6.86677)
(13.4681 0 7.08976)
(10.0014 0 0.171841)
(10.0059 0 0.341135)
(10.014 0 0.509714)
(10.0256 0 0.679236)
(10.0406 0 0.851025)
(10.0594 0 1.0262)
(10.0823 0 1.20576)
(10.1099 0 1.39058)
(10.1426 0 1.5814)
(10.1812 0 1.77886)
(10.2263 0 1.98345)
(10.2787 0 2.19555)
(10.3393 0 2.41541)
(10.4091 0 2.64313)
(10.4891 0 2.87867)
(10.5805 0 3.12181)
(10.6843 0 3.37213)
(10.8019 0 3.62901)
(10.9344 0 3.89157)
(11.0832 0 4.15867)
(11.2493 0 4.42891)
(11.4338 0 4.70053)
(11.6377 0 4.97152)
(11.8616 0 5.23955)
(12.1057 0 5.50204)
(12.37 0 5.7562)
(12.6537 0 5.99918)
(12.9561 0 6.22812)
(13.2725 0 6.44024)
(13.6379 0 6.63375)
(10.0019 0 0.169164)
(10.0081 0 0.335777)
(10.0191 0 0.501558)
(10.0347 0 0.668064)
(10.0547 0 0.836532)
(10.0795 0 1.00799)
(10.1093 0 1.18336)
(10.1446 0 1.3634)
(10.1859 0 1.54876)
(10.2338 0 1.73997)
(10.2889 0 1.93742)
(10.352 0 2.14135)
(10.4238 0 2.35189)
(10.5052 0 2.56901)
(10.5971 0 2.79253)
(10.7005 0 3.0221)
(10.8163 0 3.25717)
(10.9454 0 3.49701)
(11.089 0 3.74065)
(11.2478 0 3.98693)
(11.4226 0 4.23442)
(11.6143 0 4.48147)
(11.8231 0 4.72621)
(12.0494 0 4.96659)
(12.2931 0 5.20039)
(12.5537 0 5.42532)
(12.8304 0 5.63907)
(13.1221 0 5.83944)
(13.4249 0 6.02434)
(13.7711 0 6.19251)
(10.0023 0 0.165596)
(10.0101 0 0.328651)
(10.0239 0 0.490764)
(10.0433 0 0.653383)
(10.0681 0 0.817655)
(10.0984 0 0.984521)
(10.1347 0 1.1548)
(10.1772 0 1.32917)
(10.2265 0 1.50818)
(10.2829 0 1.69225)
(10.3472 0 1.88167)
(10.4199 0 2.07658)
(10.5017 0 2.27699)
(10.5933 0 2.48278)
(10.6956 0 2.69365)
(10.8092 0 2.90914)
(10.935 0 3.12865)
(11.0736 0 3.35136)
(11.2258 0 3.5763)
(11.3922 0 3.80229)
(11.5734 0 4.02798)
(11.7696 0 4.25184)
(11.981 0 4.47219)
(12.2075 0 4.68726)
(12.4489 0 4.89516)
(12.7044 0 5.09404)
(12.9731 0 5.28205)
(13.2539 0 5.45748)
(13.5435 0 5.61875)
(13.8718 0 5.765)
(10.0028 0 0.161143)
(10.012 0 0.319767)
(10.0284 0 0.477348)
(10.0514 0 0.635225)
(10.0806 0 0.794446)
(10.1162 0 0.955866)
(10.1584 0 1.12021)
(10.2076 0 1.28806)
(10.2641 0 1.45989)
(10.3284 0 1.63602)
(10.4009 0 1.81663)
(10.4821 0 2.00179)
(10.5727 0 2.19142)
(10.6733 0 2.38529)
(10.7843 0 2.58305)
(10.9065 0 2.78419)
(11.0404 0 2.98802)
(11.1866 0 3.19374)
(11.3454 0 3.40037)
(11.5173 0 3.60679)
(11.7026 0 3.81174)
(11.9013 0 4.01384)
(12.1133 0 4.21163)
(12.3383 0 4.40357)
(12.5759 0 4.58812)
(12.8253 0 4.76374)
(13.0855 0 4.92898)
(13.3555 0 5.08252)
(13.6322 0 5.22319)
(13.9437 0 5.35036)
(10.0032 0 0.155813)
(10.0138 0 0.309146)
(10.0326 0 0.461349)
(10.0589 0 0.613646)
(10.0922 0 0.766992)
(10.1327 0 0.922149)
(10.1804 0 1.07975)
(10.2356 0 1.24031)
(10.2987 0 1.4042)
(10.3699 0 1.57166)
(10.4497 0 1.74279)
(10.5385 0 1.91759)
(10.6367 0 2.0959)
(10.7448 0 2.27745)
(10.8633 0 2.46181)
(10.9925 0 2.64845)
(11.1329 0 2.83668)
(11.2848 0 3.0257)
(11.4484 0 3.21456)
(11.624 0 3.40224)
(11.8116 0 3.58758)
(12.011 0 3.76936)
(12.2221 0 3.94633)
(12.4443 0 4.11718)
(12.6771 0 4.28063)
(12.9197 0 4.43546)
(13.1711 0 4.58051)
(13.4302 0 4.71477)
(13.6946 0 4.83736)
(13.9904 0 4.94785)
(10.0036 0 0.149623)
(10.0155 0 0.296823)
(10.0365 0 0.442821)
(10.0658 0 0.588729)
(10.1029 0 0.735405)
(10.1478 0 0.883527)
(10.2004 0 1.03365)
(10.2611 0 1.18619)
(10.3301 0 1.34145)
(10.4075 0 1.4996)
(10.4937 0 1.66068)
(10.589 0 1.82462)
(10.6937 0 1.99121)
(10.8082 0 2.16014)
(10.9327 0 2.33096)
(11.0675 0 2.50312)
(11.2128 0 2.67595)
(11.3689 0 2.84867)
(11.5358 0 3.02042)
(11.7135 0 3.19024)
(11.9019 0 3.35712)
(12.1007 0 3.52)
(12.3096 0 3.67779)
(12.528 0 3.8294)
(12.7552 0 3.9738)
(12.9906 0 4.11)
(13.233 0 4.2371)
(13.4816 0 4.35432)
(13.7341 0 4.46098)
(14.0151 0 4.55684)
(10.0039 0 0.142595)
(10.017 0 0.282841)
(10.04 0 0.421834)
(10.0722 0 0.560573)
(10.1127 0 0.699825)
(10.1615 0 0.840183)
(10.2186 0 0.982119)
(10.2842 0 1.12598)
(10.3583 0 1.27201)
(10.4411 0 1.4203)
(10.5329 0 1.57085)
(10.6337 0 1.72353)
(10.7438 0 1.87812)
(10.8635 0 2.03426)