/*--------------------------------*- C++ -*----------------------------------*\
  =========                 |
  \\      /  F ield         | OpenFOAM: The Open Source CFD Toolbox
   \\    /   O peration     | Website:  https://openfoam.org
    \\  /    A nd           | Version:  dev
     \\/     M anipulation  |
\*---------------------------------------------------------------------------*/
FoamFile
{
    version     2.0;
    format      ascii;
    class       surfaceVectorField;
    location    "0.9";
    object      Uf;
}
// * * * * * * * * * * * * * * * * * * * * * * * * * * * * * * * * * * * * * //

dimensions      [0 1 -1 0 0 0 0];

internalField   nonuniform List<vector> 
5457
(
(9.91958 0 0.0255738)
(9.97072 0 0.0393847)
(9.82022 0 0.0336002)
(9.92633 0 0.0498325)
(9.70224 0 0.0403846)
(9.8502 0 0.0606081)
(9.56349 0 0.0473713)
(9.7474 0 0.072997)
(9.40399 0 0.0545828)
(9.62307 0 0.0859505)
(9.22393 0 0.0620586)
(9.47826 0 0.099372)
(9.02312 0 0.0699426)
(9.31235 0 0.113505)
(8.801 0 0.0783815)
(9.12457 0 0.128587)
(8.55676 0 0.0875033)
(8.91423 0 0.144812)
(8.2894 0 0.0974284)
(8.68047 0 0.162353)
(7.99777 0 0.108278)
(8.42225 0 0.18138)
(7.68056 0 0.120173)
(8.13833 0 0.202055)
(7.3364 0 0.133231)
(7.82735 0 0.224529)
(6.96387 0 0.147562)
(7.48788 0 0.248921)
(6.56158 0 0.163251)
(7.11848 0 0.275298)
(6.12835 0 0.180347)
(6.71776 0 0.303648)
(5.6633 0 0.198834)
(6.28458 0 0.333836)
(5.1661 0 0.218606)
(5.81817 0 0.36555)
(4.63723 0 0.239422)
(5.3184 0 0.398237)
(4.07833 0 0.260862)
(4.78605 0 0.431031)
(3.49256 0 0.28227)
(4.2232 0 0.462681)
(2.88501 0 0.302714)
(3.63364 0 0.491489)
(2.26306 0 0.321007)
(3.0233 0 0.51531)
(1.63642 0 0.336229)
(2.40078 0 0.531756)
(1.01574 0 0.350398)
(1.77738 0 0.539443)
(0.40521 0 0.33174)
(1.17845 0 0.543454)
(-0.157523 0 0.104627)
(0.5724 0 0.513025)
(-0.420472 0 -0.184529)
(0.0721544 0 0.24552)
(-0.385736 0 -0.336994)
(-0.128385 0 -0.0332179)
(-0.116359 0 -0.377805)
(9.9951 0 0.0530839)
(9.99653 0 0.041784)
(9.95497 0 0.0731789)
(9.97627 0 0.0699622)
(9.89081 0 0.0911704)
(9.92853 0 0.0935646)
(9.80455 0 0.109989)
(9.85519 0 0.118383)
(9.69605 0 0.129697)
(9.76002 0 0.144416)
(9.56526 0 0.150341)
(9.64416 0 0.171549)
(9.41197 0 0.172219)
(9.50725 0 0.200154)
(9.23562 0 0.195655)
(9.34864 0 0.230673)
(9.03546 0 0.220931)
(9.16773 0 0.263492)
(8.81049 0 0.248305)
(8.96374 0 0.298967)
(8.55956 0 0.278028)
(8.73573 0 0.337446)
(8.28135 0 0.310334)
(8.48256 0 0.379269)
(7.97445 0 0.345425)
(8.20294 0 0.424751)
(7.63736 0 0.383446)
(7.89547 0 0.474154)
(7.26862 0 0.424442)
(7.5587 0 0.527646)
(6.86685 0 0.468309)
(7.19122 0 0.585243)
(6.43098 0 0.514721)
(6.79171 0 0.646722)
(5.96041 0 0.563044)
(6.35914 0 0.711519)
(5.45529 0 0.612226)
(5.89296 0 0.77859)
(4.91688 0 0.660691)
(5.39342 0 0.84626)
(4.34797 0 0.706217)
(4.86187 0 0.912049)
(3.75337 0 0.745849)
(4.30125 0 0.972504)
(3.14056 0 0.775855)
(3.71671 0 1.02305)
(2.52063 0 0.791812)
(3.11637 0 1.05782)
(1.91109 0 0.788712)
(2.51234 0 1.0692)
(1.3479 0 0.747763)
(1.92666 0 1.04477)
(0.879191 0 0.611551)
(1.3676 0 0.940329)
(0.411667 0 0.339716)
(0.889498 0 0.682056)
(0.0566777 0 -0.136884)
(0.430737 0 0.30626)
(0.158574 0 -0.322292)
(9.98775 0 0.0618053)
(9.99429 0 0.0477854)
(9.95059 0 0.0933597)
(9.97146 0 0.0885992)
(9.89001 0 0.123361)
(9.92465 0 0.124683)
(9.80869 0 0.154602)
(9.85434 0 0.161168)
(9.70704 0 0.187419)
(9.76318 0 0.199191)
(9.58499 0 0.221971)
(9.65236 0 0.238904)
(9.44239 0 0.258672)
(9.52177 0 0.280757)
(9.27887 0 0.298003)
(9.371 0 0.325338)
(9.09382 0 0.340413)
(9.19957 0 0.373208)
(8.88646 0 0.386331)
(9.00694 0 0.42489)
(8.6558 0 0.43618)
(8.79236 0 0.480901)
(8.40072 0 0.490361)
(8.55494 0 0.541752)
(8.11995 0 0.549236)
(8.29366 0 0.607923)
(7.81213 0 0.613078)
(8.00737 0 0.679835)
(7.47582 0 0.682013)
(7.69485 0 0.757792)
(7.10964 0 0.755936)
(7.35485 0 0.8419)
(6.7123 0 0.834388)
(6.98615 0 0.931951)
(6.28283 0 0.91641)
(6.58763 0 1.02727)
(5.82076 0 1.00036)
(6.15847 0 1.12652)
(5.32649 0 1.08369)
(5.69833 0 1.22745)
(4.80162 0 1.16273)
(5.20764 0 1.32663)
(4.24958 0 1.23243)
(4.68804 0 1.41909)
(3.67635 0 1.28604)
(4.1429 0 1.49799)
(3.09164 0 1.31457)
(3.57804 0 1.554)
(2.51068 0 1.30512)
(3.0023 0 1.57412)
(1.95514 0 1.23239)
(2.42974 0 1.53927)
(1.43415 0 1.05117)
(1.86917 0 1.41531)
(0.923233 0 0.728103)
(1.33551 0 1.15911)
(0.455032 0 0.188286)
(0.80196 0 0.754003)
(0.402664 0 0.123383)
(9.98387 0 0.0749181)
(9.99315 0 0.0556842)
(9.94665 0 0.119028)
(9.96866 0 0.10727)
(9.8871 0 0.161532)
(9.92173 0 0.155274)
(9.80707 0 0.204871)
(9.85263 0 0.203271)
(9.70734 0 0.24989)
(9.7633 0 0.252932)
(9.58797 0 0.29705)
(9.65478 0 0.30478)
(9.4489 0 0.346934)
(9.52713 0 0.359368)
(9.2899 0 0.400191)
(9.38007 0 0.417385)
(9.11059 0 0.457446)
(9.21326 0 0.479523)
(8.91042 0 0.519305)
(9.02632 0 0.546443)
(8.68871 0 0.586362)
(8.8187 0 0.618794)
(8.44464 0 0.659192)
(8.58976 0 0.697217)
(8.17732 0 0.738327)
(8.33875 0 0.782324)
(7.88574 0 0.824202)
(8.06484 0 0.874665)
(7.56883 0 0.917083)
(7.76716 0 0.974666)
(7.2255 0 1.01696)
(7.44477 0 1.08254)
(6.85469 0 1.12341)
(7.09672 0 1.19814)
(6.45543 0 1.23536)
(6.72209 0 1.32081)
(6.02704 0 1.35088)
(6.32006 0 1.4491)
(5.56927 0 1.46685)
(5.88997 0 1.58049)
(5.08266 0 1.5786)
(5.43159 0 1.71098)
(4.56895 0 1.6795)
(4.94527 0 1.83466)
(4.03164 0 1.76043)
(4.43237 0 1.94318)
(3.47655 0 1.80894)
(3.89567 0 2.02504)
(2.91196 0 1.80789)
(3.33945 0 2.06481)
(2.34702 0 1.73138)
(2.7701 0 2.04214)
(1.78433 0 1.54472)
(2.19158 0 1.9283)
(1.21666 0 1.22424)
(1.60803 0 1.68915)
(0.636767 0 0.747001)
(0.990963 0 1.30855)
(0.49208 0 0.747057)
(9.98209 0 0.0886461)
(9.99265 0 0.0644552)
(9.94447 0 0.143763)
(9.96737 0 0.126138)
(9.88588 0 0.197524)
(9.92057 0 0.18537)
(9.80732 0 0.252095)
(9.85278 0 0.244606)
(9.70955 0 0.308676)
(9.76548 0 0.305618)
(9.59273 0 0.367976)
(9.65949 0 0.369249)
(9.45682 0 0.430691)
(9.53493 0 0.436189)
(9.30165 0 0.497563)
(9.39158 0 0.507215)
(9.12692 0 0.569321)
(9.22919 0 0.583122)
(8.93221 0 0.646675)
(9.04742 0 0.664678)
(8.71701 0 0.730321)
(8.84586 0 0.752637)
(8.48072 0 0.820935)
(8.62399 0 0.847734)
(8.22266 0 0.91915)
(8.38124 0 0.950679)
(7.94212 0 1.0255)
(8.11697 0 1.06211)
(7.63835 0 1.14035)
(7.83051 0 1.18255)
(7.31056 0 1.26378)
(7.52118 0 1.31228)
(6.95794 0 1.39542)
(7.18824 0 1.45126)
(6.5797 0 1.53423)
(6.83093 0 1.5989)
(6.17509 0 1.6782)
(6.44846 0 1.75377)
(5.74349 0 1.82397)
(6.04 0 1.91335)
(5.28457 0 1.96639)
(5.60475 0 2.07347)
(4.79846 0 2.09799)
(5.142 0 2.22791)
(4.28607 0 2.20833)
(4.65126 0 2.36771)
(3.74919 0 2.2834)
(4.13246 0 2.48063)
(3.19035 0 2.30482)
(3.58589 0 2.55051)
(2.61186 0 2.24863)
(3.01248 0 2.55707)
(2.01249 0 2.08647)
(2.41173 0 2.47473)
(1.38452 0 1.79805)
(1.78441 0 2.2755)
(0.716528 0 1.35931)
(1.09688 0 1.94735)
(0.517927 0 1.44885)
(9.98136 0 0.102669)
(9.99248 0 0.0735829)
(9.94371 0 0.168224)
(9.96704 0 0.145024)
(9.88629 0 0.232926)
(9.9208 0 0.214864)
(9.8096 0 0.298638)
(9.8546 0 0.284956)
(9.71425 0 0.366677)
(9.7697 0 0.356997)
(9.60046 0 0.437921)
(9.66672 0 0.432046)
(9.46821 0 0.513167)
(9.54577 0 0.510942)
(9.31735 0 0.593242)
(9.40671 0 0.594549)
(9.14763 0 0.678971)
(9.24931 0 0.683749)
(8.95871 0 0.771164)
(9.07328 0 0.779404)
(8.75014 0 0.870609)
(8.87828 0 0.882354)
(8.52143 0 0.978072)
(8.66386 0 0.99342)
(8.27203 0 1.09427)
(8.42951 0 1.11338)
(8.00137 0 1.21981)
(8.1747 0 1.24296)
(7.70884 0 1.35515)
(7.89884 0 1.38274)
(7.39379 0 1.50045)
(7.60134 0 1.5331)
(7.05555 0 1.65543)
(7.28152 0 1.69407)
(6.69336 0 1.81913)
(6.93863 0 1.86518)
(6.30639 0 1.98964)
(6.5718 0 2.04516)
(5.89365 0 2.16365)
(6.17997 0 2.23165)
(5.45403 0 2.336)
(5.76177 0 2.42071)
(4.9863 0 2.49907)
(5.31555 0 2.60629)
(4.48914 0 2.6422)
(4.83924 0 2.77964)
(3.96115 0 2.75109)
(4.33043 0 2.92867)
(3.40081 0 2.80754)
(3.78637 0 3.03751)
(2.80613 0 2.78927)
(3.2042 0 3.08641)
(2.17316 0 2.67117)
(2.58014 0 3.05179)
(1.49548 0 2.43441)
(1.91465 0 2.90826)
(0.768175 0 2.04944)
(1.17039 0 2.64288)
(0.533858 0 2.20123)
(9.98123 0 0.116728)
(9.9925 0 0.0827763)
(9.94398 0 0.192295)
(9.96734 0 0.163705)
(9.88798 0 0.267484)
(9.92207 0 0.24363)
(9.81351 0 0.34394)
(9.85778 0 0.324139)
(9.72103 0 0.423023)
(9.77563 0 0.406827)
(9.61079 0 0.505752)
(9.67612 0 0.492888)
(9.48278 0 0.593043)
(9.55933 0 0.583296)
(9.3369 0 0.685814)
(9.42516 0 0.679005)
(9.17291 0 0.784978)
(9.27344 0 0.780978)
(8.99052 0 0.891431)
(9.10392 0 0.890161)
(8.78934 0 1.00604)
(8.91628 0 1.00748)
(8.56892 0 1.12966)
(8.71011 0 1.13382)
(8.32876 0 1.26305)
(8.48497 0 1.27006)
(8.06834 0 1.40693)
(8.24032 0 1.41697)
(7.78706 0 1.56179)
(7.97562 0 1.57523)
(7.4843 0 1.72791)
(7.69023 0 1.7453)
(7.15934 0 1.90512)
(7.38344 0 1.92734)
(6.81132 0 2.09263)
(7.05436 0 2.12105)
(6.43915 0 2.28876)
(6.70193 0 2.3254)
(6.04143 0 2.49051)
(6.32469 0 2.53838)
(5.61628 0 2.69309)
(5.92072 0 2.75652)
(5.16126 0 2.88933)
(5.48743 0 2.97439)
(4.67323 0 3.06908)
(5.0214 0 3.18398)
(4.14839 0 3.21863)
(4.51832 0 3.37405)
(3.58225 0 3.32043)
(3.97298 0 3.52954)
(2.96996 0 3.35324)
(3.37974 0 3.63144)
(2.30622 0 3.29298)
(2.73227 0 3.6569)
(1.58669 0 3.1198)
(2.03187 0 3.5801)
(0.811869 0 2.79489)
(1.23765 0 3.38385)
(0.550637 0 2.99641)
(9.98146 0 0.130612)
(9.99265 0 0.091855)
(9.94502 0 0.215799)
(9.96807 0 0.181985)
(9.89072 0 0.301006)
(9.92413 0 0.271523)
(9.81879 0 0.387771)
(9.86207 0 0.36198)
(9.72962 0 0.477471)
(9.78302 0 0.454881)
(9.62341 0 0.571237)
(9.68742 0 0.551499)
(9.50022 0 0.670093)
(9.57531 0 0.652926)
(9.35996 0 0.775041)
(9.44663 0 0.760205)
(9.20243 0 0.887075)
(9.30126 0 0.874377)
(9.02738 0 1.00717)
(9.13898 0 0.996464)
(8.83444 0 1.13628)
(8.95952 0 1.12747)
(8.62322 0 1.27531)
(8.76251 0 1.26837)
(8.39323 0 1.42514)
(8.5475 0 1.42011)
(8.14393 0 1.58652)
(8.31401 0 1.58355)
(7.87472 0 1.76009)
(8.06145 0 1.75946)
(7.58488 0 1.94621)
(7.78913 0 1.94844)
(7.27357 0 2.14491)
(7.49621 0 2.15082)
(6.93969 0 2.35564)
(7.18163 0 2.36652)
(6.58183 0 2.57707)
(6.84403 0 2.59487)
(6.19805 0 2.80672)
(6.48153 0 2.83436)
(5.78571 0 3.04048)
(6.09158 0 3.08221)
(5.34126 0 3.27208)
(5.67071 0 3.33395)
(4.86001 0 3.49239)
(5.21424 0 3.58272)
(4.33612 0 3.68881)
(4.71617 0 3.81861)
(3.76277 0 3.84473)
(4.16911 0 4.02785)
(3.13276 0 3.9394)
(3.56493 0 4.19222)
(2.43966 0 3.94805)
(2.8946 0 4.28878)
(1.68025 0 3.84734)
(2.15976 0 4.28917)
(0.858728 0 3.5862)
(1.31523 0 4.16948)
(0.574405 0 3.83748)
(9.98194 0 0.144159)
(9.99289 0 0.100698)
(9.94662 0 0.238577)
(9.96913 0 0.1997)
(9.89431 0 0.333335)
(9.92682 0 0.298396)
(9.82526 0 0.429943)
(9.8673 0 0.398312)
(9.73977 0 0.529793)
(9.7917 0 0.500945)
(9.63808 0 0.634103)
(9.7004 0 0.607623)
(9.52024 0 0.743989)
(9.59344 0 0.719531)
(9.38621 0 0.860535)
(9.47081 0 0.837798)
(9.23583 0 0.984811)
(9.33241 0 0.963538)
(9.06888 0 1.11787)
(9.17808 0 1.09785)
(8.88504 0 1.26074)
(9.00758 0 1.24181)
(8.68393 0 1.41441)
(8.82058 0 1.39647)
(8.4651 0 1.57985)
(8.61668 0 1.56287)
(8.228 0 1.75792)
(8.39538 0 1.74198)
(7.97197 0 1.94937)
(8.15609 0 1.93467)
(7.69621 0 2.15474)
(7.89806 0 2.14172)
(7.39969 0 2.37429)
(7.62035 0 2.36367)
(7.08108 0 2.6078)
(7.3217 0 2.60077)
(6.73856 0 2.85444)
(7.00045 0 2.85278)
(6.36968 0 3.11241)
(6.65431 0 3.11885)
(5.97103 0 3.37856)
(6.28016 0 3.39709)
(5.538 0 3.64783)
(5.87368 0 3.68425)
(5.0645 0 3.91258)
(5.42903 0 3.97504)
(4.54279 0 4.16176)
(4.93859 0 4.26133)
(3.96368 0 4.37999)
(4.39276 0 4.53116)
(3.3174 0 4.54684)
(3.78057 0 4.7675)
(2.59533 0 4.63577)
(3.08925 0 4.94707)
(1.7935 0 4.61782)
(2.31891 0 5.03785)
(0.917993 0 4.42666)
(1.41797 0 5.00673)
(0.611318 0 4.7366)
(9.9826 0 0.157245)
(9.99318 0 0.109217)
(9.94868 0 0.260485)
(9.97044 0 0.216717)
(9.89862 0 0.364318)
(9.93002 0 0.324107)
(9.83274 0 0.470272)
(9.87333 0 0.432976)
(9.75131 0 0.579763)
(9.80149 0 0.544824)
(9.65455 0 0.694076)
(9.71486 0 0.661022)
(9.54256 0 0.814408)
(9.6135 0 0.782831)
(9.41532 0 0.941919)
(9.49742 0 0.911457)
(9.27273 0 1.07775)
(9.36656 0 1.04808)
(9.11459 0 1.22303)
(9.22082 0 1.19388)
(8.94065 0 1.37886)
(9.06001 0 1.34999)
(8.75056 0 1.54633)
(8.88383 0 1.51756)
(8.54388 0 1.72649)
(8.69194 0 1.69771)
(8.32008 0 1.92033)
(8.48388 0 1.89151)
(8.07848 0 2.12876)
(8.25903 0 2.10002)
(7.81818 0 2.35252)
(8.01664 0 2.32417)
(7.53803 0 2.59218)
(7.75569 0 2.56478)
(7.23647 0 2.84795)
(7.4748 0 2.82247)
(6.91137 0 3.11959)
(7.17209 0 3.09758)
(6.55979 0 3.40616)
(6.84496 0 3.38999)
(6.17766 0 3.70568)
(6.48981 0 3.69893)
(5.75942 0 4.01466)
(6.10165 0 4.0226)
(5.29763 0 4.32739)
(5.67366 0 4.35765)
(4.78262 0 4.6349)
(5.19664 0 4.69836)
(4.2025 0 4.92372)
(4.65864 0 5.03534)
(3.54391 0 5.17417)
(4.04516 0 5.35374)
(2.79392 0 5.35772)
(3.3379 0 5.63081)
(1.94457 0 5.43821)
(2.53183 0 5.8309)
(1.00071 0 5.32995)
(1.5644 0 5.90935)
(0.670463 0 5.71673)
(9.9834 0 0.169771)
(9.99353 0 0.117346)
(9.95108 0 0.281396)
(9.97194 0 0.232926)
(9.90354 0 0.393811)
(9.93364 0 0.34853)
(9.8411 0 0.508588)
(9.88004 0 0.465828)
(9.76405 0 0.627174)
(9.81224 0 0.586341)
(9.67262 0 0.750908)
(9.73062 0 0.711481)
(9.56693 0 0.88106)
(9.63525 0 0.842572)
(9.447 0 1.01886)
(9.52617 0 0.980887)
(9.31276 0 1.16551)
(9.40337 0 1.12767)
(9.1641 0 1.32221)
(9.26681 0 1.28415)
(9.00079 0 1.49014)
(9.11633 0 1.45156)
(8.82255 0 1.67048)
(8.95174 0 1.6311)
(8.62898 0 1.86437)
(8.77271 0 1.82399)
(8.41957 0 2.07296)
(8.57885 0 2.03143)
(8.19365 0 2.29731)
(8.3696 0 2.25462)
(7.95032 0 2.53843)
(8.14421 0 2.49472)
(7.68834 0 2.79722)
(7.90167 0 2.75284)
(7.40603 0 3.07441)
(7.64057 0 3.03003)
(7.10107 0 3.37044)
(7.35896 0 3.32722)
(6.77018 0 3.68537)
(7.0541 0 3.64517)
(6.40885 0 4.01861)
(6.72216 0 3.98433)
(6.01079 0 4.36856)
(6.35776 0 4.34462)
(5.56739 0 4.73192)
(5.9534 0 4.72503)
(5.06708 0 5.10268)
(5.49865 0 5.12291)
(4.49486 0 5.47041)
(4.97928 0 5.53267)
(3.8323 0 5.81771)
(4.37665 0 5.94351)
(3.05901 0 6.11543)
(3.66474 0 6.33579)
(2.15733 0 6.31995)
(2.828 0 6.67282)
(1.12365 0 6.32044)
(1.78315 0 6.89786)
(0.768366 0 6.81727)
(9.9843 0 0.181659)
(9.99391 0 0.125035)
(9.95378 0 0.301202)
(9.9736 0 0.248236)
(9.90896 0 0.421685)
(9.93761 0 0.371552)
(9.85022 0 0.544736)
(9.88732 0 0.496733)
(9.77785 0 0.671838)
(9.82383 0 0.625337)
(9.69209 0 0.804379)
(9.74752 0 0.75881)
(9.5931 0 0.943686)
(9.65848 0 0.89853)
(9.48092 0 1.09105)
(9.55679 0 1.04582)
(9.35557 0 1.24774)
(9.44251 0 1.20199)
(9.21697 0 1.415)
(9.31563 0 1.36832)
(9.06496 0 1.5941)
(9.17608 0 1.5461)
(8.89932 0 1.7863)
(9.02373 0 1.73661)
(8.71973 0 1.99284)
(8.85834 0 1.94115)
(8.52575 0 2.21501)
(8.67958 0 2.16105)
(8.31675 0 2.45406)
(8.48699 0 2.39765)
(8.09188 0 2.71127)
(8.27991 0 2.65233)
(7.84994 0 2.9879)
(8.05742 0 2.92651)
(7.58927 0 3.28521)
(7.81819 0 3.22168)
(7.30751 0 3.60442)
(7.56037 0 3.53939)
(7.00135 0 3.94666)
(7.28133 0 3.88129)
(6.66612 0 4.3129)
(6.97735 0 4.24912)
(6.2952 0 4.70368)
(6.64312 0 4.64468)
(5.87929 0 5.11871)
(6.27103 0 5.06963)
(5.40533 0 5.55596)
(5.85019 0 5.52511)
(4.85519 0 6.00993)
(5.36484 0 6.0108)
(4.20429 0 6.46863)
(4.7926 0 6.5229)
(3.42083 0 6.90667)
(4.09848 0 7.05005)
(2.46809 0 7.27677)
(3.24994 0 7.56241)
(1.31721 0 7.43761)
(2.12469 0 7.99845)
(0.939601 0 8.1074)
(9.98529 0 0.192844)
(9.99432 0 0.13224)
(9.9567 0 0.319808)
(9.97539 0 0.262572)
(9.91481 0 0.447825)
(9.94185 0 0.393074)
(9.85999 0 0.578579)
(9.89507 0 0.525575)
(9.79256 0 0.713591)
(9.83612 0 0.661672)
(9.71277 0 0.85429)
(9.76537 0 0.802842)
(9.62082 0 1.00205)
(9.68296 0 0.950506)
(9.5168 0 1.15822)
(9.58901 0 1.10604)
(9.40078 0 1.32411)
(9.48363 0 1.27078)
(9.27274 0 1.50104)
(9.36688 0 1.44608)
(9.13262 0 1.69031)
(9.23876 0 1.63325)
(8.98026 0 1.89327)
(9.09922 0 1.83366)
(8.81544 0 2.11128)
(8.94813 0 2.04868)
(8.63782 0 2.34573)
(8.78527 0 2.27973)
(8.44688 0 2.59807)
(8.6103 0 2.52832)
(8.24189 0 2.86983)
(8.42272 0 2.796)
(8.02181 0 3.16264)
(8.22176 0 3.08449)
(7.78514 0 3.47828)
(8.00635 0 3.39568)
(7.52973 0 3.81872)
(7.77492 0 3.73171)
(7.25254 0 4.18618)
(7.52522 0 4.09506)
(6.94919 0 4.58321)
(7.25403 0 4.48873)
(6.61339 0 5.01271)
(6.95669 0 4.91633)
(6.23599 0 5.4778)
(6.62641 0 5.38232)
(5.80354 0 5.98148)
(6.25313 0 5.89208)
(5.29602 0 6.52559)
(5.82153 0 6.4519)
(4.68326 0 7.10846)
(5.30817 0 7.06834)
(3.91956 0 7.71799)
(4.67169 0 7.74629)
(2.93685 0 8.31852)
(3.86048 0 8.47998)
(1.64462 0 8.74675)
(2.68707 0 9.23422)
(1.26576 0 9.71821)
(9.98634 0 0.203272)
(9.99475 0 0.13893)
(9.95982 0 0.337137)
(9.97727 0 0.275873)
(9.921 0 0.472132)
(9.94633 0 0.413016)
(9.87029 0 0.61)
(9.90322 0 0.552256)
(9.80802 0 0.752296)
(9.84898 0 0.695227)
(9.73446 0 0.900484)
(9.78402 0 0.843436)
(9.64984 0 1.05598)
(9.70849 0 0.998335)
(9.55432 0 1.22017)
(9.62256 0 1.16134)
(9.44801 0 1.3944)
(9.5264 0 1.33382)
(9.33097 0 1.58004)
(9.42014 0 1.51715)
(9.20322 0 1.77845)
(9.30387 0 1.71271)
(9.06471 0 1.99102)
(9.17762 0 1.92189)
(8.91533 0 2.21921)
(9.04138 0 2.14613)
(8.75487 0 2.46452)
(8.89507 0 2.38695)
(8.58299 0 2.72856)
(8.73852 0 2.64594)
(8.39914 0 3.01308)
(8.57143 0 2.92486)
(8.20255 0 3.32004)
(8.3933 0 3.22562)
(7.99203 0 3.65167)
(8.20339 0 3.55046)
(7.76591 0 4.0106)
(8.00061 0 3.90198)
(7.52173 0 4.40004)
(7.78335 0 4.28338)
(7.25596 0 4.824)
(7.5493 0 4.69865)
(6.96341 0 5.28757)
(7.2951 0 5.15299)
(6.63638 0 5.79735)
(7.01581 0 5.65327)
(6.2631 0 6.3619)
(6.70403 0 6.20884)
(5.82487 0 6.99231)
(6.34818 0 6.83277)
(5.2906 0 7.70279)
(5.92979 0 7.5439)
(4.60545 0 8.50972)
(5.41261 0 8.37092)
(3.66499 0 9.42911)
(4.74525 0 9.35812)
(2.25611 0 10.3642)
(3.68106 0 10.5815)
(1.96922 0 11.9279)
(9.98744 0 0.212903)
(9.99521 0 0.14508)
(9.96309 0 0.35312)
(9.97924 0 0.288089)
(9.92748 0 0.494516)
(9.95099 0 0.431309)
(9.88103 0 0.63888)
(9.91169 0 0.576692)
(9.8241 0 0.787798)
(9.86234 0 0.725904)
(9.75699 0 0.942763)
(9.80334 0 0.880475)
(9.67994 0 1.10522)
(9.73492 0 1.04188)
(9.59319 0 1.27658)
(9.65729 0 1.21156)
(9.49689 0 1.45824)
(9.57066 0 1.39091)
(9.39119 0 1.65158)
(9.47524 0 1.58133)
(9.27621 0 1.858)
(9.37121 0 1.78422)
(9.152 0 2.07895)
(9.25872 0 2.001)
(9.0186 0 2.31593)
(9.13789 0 2.23316)
(8.87595 0 2.57054)
(9.00878 0 2.48226)
(8.72392 0 2.8445)
(8.87143 0 2.74999)
(8.56223 0 3.13974)
(8.72579 0 3.03818)
(8.39045 0 3.45845)
(8.57168 0 3.34893)
(8.20788 0 3.80321)
(8.40882 0 3.68469)
(8.01347 0 4.17715)
(8.23671 0 4.04837)
(7.80569 0 4.5842)
(8.05461 0 4.44361)
(7.58235 0 5.02947)
(7.86143 0 4.87507)
(7.3402 0 5.51974)
(7.65564 0 5.34888)
(7.07446 0 6.06437)
(7.43513 0 5.87345)
(6.77776 0 6.67662)
(7.19694 0 6.46062)
(6.4381 0 7.37626)
(6.93689 0 7.12796)
(6.03443 0 8.19481)
(6.64988 0 7.90322)
(5.52511 0 9.18818)
(6.32658 0 8.83524)
(4.81063 0 10.4856)
(5.98608 0 10.0252)
(3.56569 0 12.514)
(5.67085 0 11.7721)
(4.76452 0 15.4203)
(-0.336612 0 0.269515)
(-0.326055 0 0.329691)
(-0.845834 0 0.338717)
(-0.790582 0 0.486972)
(-1.44694 0 0.359602)
(-1.45638 0 0.561264)
(-2.10918 0 0.364919)
(-2.15359 0 0.603739)
(-2.80944 0 0.360255)
(-2.88567 0 0.623326)
(-3.53093 0 0.348953)
(-3.63707 0 0.62706)
(-4.26057 0 0.332921)
(-4.39584 0 0.619158)
(-4.98763 0 0.313394)
(-5.15187 0 0.602398)
(-5.70297 0 0.291217)
(-5.89643 0 0.578693)
(-6.39851 0 0.26697)
(-6.62177 0 0.549382)
(-7.06679 0 0.241053)
(-7.32079 0 0.515392)
(-7.70072 0 0.213731)
(-7.98671 0 0.477343)
(-8.29325 0 0.18517)
(-8.61285 0 0.435635)
(-8.83724 0 0.155463)
(-9.19243 0 0.390506)
(-9.32531 0 0.124642)
(-9.71847 0 0.342086)
(-9.74971 0 0.0926829)
(-10.1836 0 0.290432)
(-10.1023 0 0.059512)
(-10.58 0 0.235563)
(-10.3744 0 0.0249649)
(-10.8997 0 0.177524)
(-10.5572 0 -0.0113763)
(-11.134 0 0.116445)
(-10.6409 0 -0.0506099)
(-11.2739 0 0.0520551)
(-10.6122 0 -0.0948793)
(-11.3097 0 -0.0173939)
(-10.4569 0 -0.14555)
(-11.2308 0 -0.092072)
(-10.1565 0 -0.202888)
(-11.0229 0 -0.17393)
(-9.69412 0 -0.267938)
(-10.6745 0 -0.261349)
(-9.05104 0 -0.342673)
(-10.1763 0 -0.35491)
(-8.20565 0 -0.430597)
(-9.51557 0 -0.455539)
(-7.12874 0 -0.538604)
(-8.65354 0 -0.566584)
(-5.76125 0 -0.672043)
(-7.50668 0 -0.70248)
(-4.00886 0 -0.804264)
(-6.04063 0 -0.878938)
(-4.6561 0 -0.953707)
(-0.675081 0 0.727388)
(-0.500656 0 0.990891)
(-1.39024 0 0.854267)
(-1.12296 0 1.17088)
(-2.13471 0 0.917749)
(-1.91504 0 1.25639)
(-2.90391 0 0.951135)
(-2.69931 0 1.305)
(-3.68855 0 0.961552)
(-3.49465 0 1.32176)
(-4.47879 0 0.954728)
(-4.29216 0 1.31386)
(-5.26549 0 0.934615)
(-5.08477 0 1.28674)
(-6.04047 0 0.904051)
(-5.86569 0 1.24451)
(-6.79639 0 0.865071)
(-6.6286 0 1.19021)
(-7.52647 0 0.819106)
(-7.36762 0 1.12605)
(-8.22429 0 0.767125)
(-8.07705 0 1.05356)
(-8.88355 0 0.709743)
(-8.75128 0 0.973761)
(-9.49787 0 0.647311)
(-9.38458 0 0.887289)
(-10.0607 0 0.579995)
(-9.97096 0 0.794504)
(-10.565 0 0.507833)
(-10.5041 0 0.695582)
(-11.0036 0 0.430792)
(-10.9772 0 0.590585)
(-11.3688 0 0.348818)
(-11.3831 0 0.479544)
(-11.6524 0 0.261851)
(-11.7141 0 0.362548)
(-11.846 0 0.169625)
(-11.9624 0 0.239764)
(-11.9409 0 0.0711291)
(-12.1197 0 0.111096)
(-11.9297 0 -0.0351526)
(-12.1777 0 -0.0242019)
(-11.8035 0 -0.149609)
(-12.1292 0 -0.166858)
(-11.5545 0 -0.271563)
(-11.9684 0 -0.318078)
(-11.1728 0 -0.40114)
(-11.6874 0 -0.477115)
(-10.6495 0 -0.539545)
(-11.2826 0 -0.643704)
(-9.97792 0 -0.689649)
(-10.7502 0 -0.817438)
(-9.15497 0 -0.859182)
(-10.0709 0 -0.999554)
(-8.18899 0 -1.05574)
(-9.1999 0 -1.1987)
(-7.10955 0 -1.25318)
(-8.16302 0 -1.42035)
(-7.37611 0 -1.62979)
(-0.826506 0 1.46718)
(-0.562939 0 1.8004)
(-1.64354 0 1.58865)
(-1.25749 0 1.95222)
(-2.45676 0 1.64803)
(-2.10806 0 2.01571)
(-3.26899 0 1.67314)
(-2.92253 0 2.04548)
(-4.0776 0 1.66815)
(-3.73183 0 2.04154)
(-4.87827 0 1.63885)
(-4.53059 0 2.00973)
(-5.66601 0 1.58996)
(-5.31589 0 1.9552)
(-6.43581 0 1.52524)
(-6.08417 0 1.88232)
(-7.18277 0 1.44752)
(-6.83166 0 1.79448)
(-7.90205 0 1.35884)
(-7.55444 0 1.69419)
(-8.58879 0 1.26061)
(-8.24836 0 1.58318)
(-9.23797 0 1.15377)
(-8.90898 0 1.46259)
(-9.84426 0 1.03889)
(-9.53149 0 1.33304)
(-10.402 0 0.916292)
(-10.1106 0 1.19486)
(-10.905 0 0.786197)
(-10.6405 0 1.04813)
(-11.3467 0 0.648786)
(-11.115 0 0.892848)
(-11.72 0 0.504314)
(-11.5271 0 0.728982)
(-12.0174 0 0.353195)
(-11.8697 0 0.556608)
(-12.2313 0 0.195941)
(-12.1352 0 0.375976)
(-12.3542 0 0.0328541)
(-12.3163 0 0.187531)
(-12.3785 0 -0.136692)
(-12.4056 0 -0.00944764)
(-12.3008 0 -0.314499)
(-12.3959 0 -0.212883)
(-12.1137 0 -0.501121)
(-12.2861 0 -0.426414)
(-11.8118 0 -0.695476)
(-12.0704 0 -0.647769)
(-11.3916 0 -0.896365)
(-11.7484 0 -0.875612)
(-10.8529 0 -1.10286)
(-11.3208 0 -1.10772)
(-10.2022 0 -1.31805)
(-10.7775 0 -1.34189)
(-9.45727 0 -1.55113)
(-10.0906 0 -1.58136)
(-8.62389 0 -1.79405)
(-9.2957 0 -1.83834)
(-8.73175 0 -2.10124)
(-0.870277 0 2.28382)
(-0.566013 0 2.65279)
(-1.72083 0 2.37674)
(-1.27349 0 2.76561)
(-2.55162 0 2.40887)
(-2.13258 0 2.79144)
(-3.36664 0 2.40798)
(-2.93787 0 2.7885)
(-4.16647 0 2.37608)
(-3.73034 0 2.7535)
(-4.95047 0 2.31835)
(-4.5056 0 2.69111)
(-5.71695 0 2.23939)
(-5.26368 0 2.60562)
(-6.46358 0 2.14305)
(-6.00341 0 2.50094)
(-7.18756 0 2.03231)
(-6.72294 0 2.38016)
(-7.88565 0 1.9093)
(-7.4198 0 2.24559)
(-8.55414 0 1.77544)
(-8.09089 0 2.09873)
(-9.1888 0 1.63154)
(-8.73252 0 1.94048)
(-9.78487 0 1.47802)
(-9.34033 0 1.77128)
(-10.337 0 1.31493)
(-9.90938 0 1.59122)
(-10.8393 0 1.14217)
(-10.4341 0 1.40021)
(-11.2854 0 0.959521)
(-10.9084 0 1.19811)
(-11.6683 0 0.766796)
(-11.3256 0 0.984826)
(-11.9808 0 0.563952)
(-11.6786 0 0.760453)
(-12.2153 0 0.351182)
(-11.9601 0 0.525398)
(-12.3647 0 0.128802)
(-12.1633 0 0.280439)
(-12.4238 0 -0.103061)
(-12.2816 0 0.0264427)
(-12.3876 0 -0.343894)
(-12.3078 0 -0.23437)
(-12.2543 0 -0.592695)
(-12.2436 0 -0.503566)
(-12.0206 0 -0.847947)
(-12.086 0 -0.779865)
(-11.686 0 -1.1069)
(-11.8358 0 -1.06027)
(-11.2539 0 -1.36584)
(-11.4963 0 -1.34057)
(-10.7341 0 -1.62404)
(-11.0628 0 -1.61535)
(-10.1434 0 -1.89046)
(-10.5186 0 -1.88481)
(-9.49343 0 -2.16257)
(-9.90139 0 -2.16435)
(-9.47881 0 -2.43799)
(-0.853176 0 3.11302)
(-0.536388 0 3.48842)
(-1.68674 0 3.16643)
(-1.21606 0 3.56275)
(-2.49618 0 3.16064)
(-2.04491 0 3.54722)
(-3.28422 0 3.12527)
(-2.81084 0 3.50694)
(-4.05258 0 3.06078)
(-3.56343 0 3.43744)
(-4.80255 0 2.97145)
(-4.29722 0 3.34291)
(-5.5344 0 2.86106)
(-5.01412 0 3.22666)
(-6.24751 0 2.73282)
(-5.71426 0 3.09178)
(-6.9404 0 2.5892)
(-6.39695 0 2.94069)
(-7.61075 0 2.43184)
(-7.06056 0 2.77507)
(-8.25549 0 2.26175)
(-7.70258 0 2.59596)
(-8.8708 0 2.0794)
(-8.31971 0 2.40382)
(-9.45219 0 1.88489)
(-8.90788 0 2.19873)
(-9.99451 0 1.67813)
(-9.46232 0 1.98052)
(-10.492 0 1.45897)
(-9.97767 0 1.7489)
(-10.9384 0 1.22732)
(-10.4479 0 1.5036)
(-11.3271 0 0.9833)
(-10.8667 0 1.24451)
(-11.6509 0 0.727355)
(-11.227 0 0.971736)
(-11.9029 0 0.460426)
(-11.5218 0 0.685886)
(-12.0763 0 0.184023)
(-11.7446 0 0.388336)
(-12.1661 0 -0.0998959)
(-11.8894 0 0.0809753)
(-12.1699 0 -0.390965)
(-11.9503 0 -0.232169)
(-12.0861 0 -0.689264)
(-11.9281 0 -0.552045)
(-11.9139 0 -0.992233)
(-11.8237 0 -0.877236)
(-11.6548 0 -1.29529)
(-11.6385 0 -1.20322)
(-11.3144 0 -1.59243)
(-11.3769 0 -1.524)
(-10.903 0 -1.88012)
(-11.0378 0 -1.83183)
(-10.4361 0 -2.16526)
(-10.6127 0 -2.12464)
(-9.93504 0 -2.4437)
(-10.1382 0 -2.41566)
(-9.82011 0 -2.68205)
(-0.796921 0 3.9097)
(-0.486885 0 4.26895)
(-1.57797 0 3.92338)
(-1.10969 0 4.30967)
(-2.3364 0 3.87809)
(-1.87873 0 4.25538)
(-3.07383 0 3.80679)
(-2.58163 0 4.17923)
(-3.79222 0 3.70939)
(-3.27556 0 4.0769)
(-4.49364 0 3.58949)
(-3.95275 0 3.95252)
(-5.17929 0 3.44992)
(-4.61628 0 3.80849)
(-5.8494 0 3.29309)
(-5.26685 0 3.64699)
(-6.50315 0 3.12071)
(-5.90427 0 3.46956)
(-7.13876 0 2.93384)
(-6.52727 0 3.27712)
(-7.75352 0 2.73299)
(-7.13366 0 3.07007)
(-8.34389 0 2.51826)
(-7.72032 0 2.84836)
(-8.90557 0 2.28943)
(-8.28336 0 2.61168)
(-9.43359 0 2.04619)
(-8.81819 0 2.35956)
(-9.92239 0 1.78815)
(-9.31959 0 2.09149)
(-10.3658 0 1.51505)
(-9.78181 0 1.80708)
(-10.7575 0 1.22685)
(-10.1986 0 1.50618)
(-11.0905 0 0.92393)
(-10.5633 0 1.18898)
(-11.358 0 0.607391)
(-10.8692 0 0.856324)
(-11.5538 0 0.279487)
(-11.1099 0 0.510085)
(-11.6735 0 -0.0565721)
(-11.2797 0 0.153668)
(-11.714 0 -0.398378)
(-11.3741 0 -0.208128)
(-11.6761 0 -0.744758)
(-11.3909 0 -0.574016)
(-11.5602 0 -1.09257)
(-11.3361 0 -0.942736)
(-11.3697 0 -1.43578)
(-11.2111 0 -1.30838)
(-11.1107 0 -1.7667)
(-11.0208 0 -1.66356)
(-10.7929 0 -2.07956)
(-10.7662 0 -1.99901)
(-10.4315 0 -2.37793)
(-10.4446 0 -2.31029)
(-10.0532 0 -2.65416)
(-10.0896 0 -2.60541)
(-9.85478 0 -2.8581)
(-0.712968 0 4.64101)
(-0.424307 0 4.96726)
(-1.41593 0 4.62039)
(-0.968264 0 4.98192)
(-2.10069 0 4.53944)
(-1.65479 0 4.89475)
(-2.76841 0 4.43553)
(-2.27587 0 4.78797)
(-3.42112 0 4.3087)
(-2.89551 0 4.6579)
(-4.06117 0 4.16208)
(-3.50297 0 4.5088)
(-4.69004 0 3.99756)
(-4.10227 0 4.34214)
(-5.30821 0 3.81657)
(-4.69408 0 4.15917)
(-5.91509 0 3.61998)
(-5.27827 0 3.96052)
(-6.50908 0 3.4081)
(-5.85362 0 3.74629)
(-7.08758 0 3.1808)
(-6.41794 0 3.51622)
(-7.64718 0 2.9377)
(-6.96815 0 3.26973)
(-8.1837 0 2.67821)
(-7.50042 0 3.00613)
(-8.69232 0 2.40173)
(-8.01029 0 2.72467)
(-9.16768 0 2.10772)
(-8.49275 0 2.42467)
(-9.60392 0 1.79587)
(-8.94233 0 2.10562)
(-9.99484 0 1.46625)
(-9.35317 0 1.76738)
(-10.3341 0 1.11949)
(-9.71909 0 1.41029)
(-10.6152 0 0.75721)
(-10.0336 0 1.03537)
(-10.832 0 0.382586)
(-10.2901 0 0.644948)
(-10.9798 0 0.000203805)
(-10.4833 0 0.243448)
(-11.0557 0 -0.386171)
(-10.6096 0 -0.163143)
(-11.0612 0 -0.774571)
(-10.6626 0 -0.570866)
(-10.9985 0 -1.16104)
(-10.6549 0 -0.978161)
(-10.872 0 -1.53834)
(-10.5871 0 -1.37819)
(-10.6879 0 -1.8976)
(-10.4641 0 -1.76275)
(-10.4546 0 -2.23108)
(-10.2878 0 -2.12175)
(-10.1863 0 -2.53818)
(-10.0593 0 -2.44812)
(-9.9111 0 -2.80794)
(-9.80799 0 -2.74345)
(-9.64345 0 -2.98079)
(-0.608308 0 5.28345)
(-0.352694 0 5.56306)
(-1.21381 0 5.23658)
(-0.800161 0 5.56096)
(-1.8071 0 5.12683)
(-1.38634 0 5.44872)
(-2.3895 0 4.99673)
(-1.91033 0 5.31892)
(-2.96322 0 4.84673)
(-2.44263 0 5.16859)
(-3.53068 0 4.67946)
(-2.96909 0 5.00199)
(-4.09326 0 4.49584)
(-3.49468 0 4.81953)
(-4.6513 0 4.29637)
(-4.01961 0 4.62153)
(-5.20409 0 4.08101)
(-4.54346 0 4.4077)
(-5.74987 0 3.84933)
(-5.06475 0 4.17739)
(-6.28599 0 3.60064)
(-5.58109 0 3.92968)
(-6.80901 0 3.3341)
(-6.08926 0 3.66357)
(-7.31483 0 3.04885)
(-6.58542 0 3.37802)
(-7.79882 0 2.74409)
(-7.06521 0 3.0721)
(-8.2559 0 2.41919)
(-7.52386 0 2.74503)
(-8.68062 0 2.07381)
(-7.95627 0 2.39627)
(-9.0672 0 1.70808)
(-8.35706 0 2.02569)
(-9.40968 0 1.32276)
(-8.72051 0 1.63373)
(-9.70198 0 0.919689)
(-9.04044 0 1.22157)
(-9.938 0 0.502519)
(-9.3102 0 0.791736)
(-10.1121 0 0.0769422)
(-9.52412 0 0.349169)
(-10.2208 0 -0.350919)
(-9.67978 0 -0.0987123)
(-10.2668 0 -0.777244)
(-9.76547 0 -0.544188)
(-10.2548 0 -1.19761)
(-9.80171 0 -0.984993)
(-10.1894 0 -1.60428)
(-9.78864 0 -1.41426)
(-10.0765 0 -1.98786)
(-9.73079 0 -1.8236)
(-9.92233 0 -2.33896)
(-9.62965 0 -2.20284)
(-9.73883 0 -2.65248)
(-9.48781 0 -2.54238)
(-9.55268 0 -2.91433)
(-9.32994 0 -2.83682)
(-9.22809 0 -3.05906)
(-0.487375 0 5.81958)
(-0.274629 0 6.04042)
(-0.980048 0 5.75592)
(-0.610527 0 6.03211)
(-1.46742 0 5.626)
(-1.08197 0 5.9038)
(-1.95159 0 5.47826)
(-1.49612 0 5.76031)
(-2.43513 0 5.31335)
(-1.93024 0 5.59901)
(-2.92048 0 5.13326)
(-2.36628 0 5.42381)
(-3.40864 0 4.9378)
(-2.8103 0 5.23378)
(-3.89951 0 4.72654)
(-3.26161 0 5.02824)
(-4.39192 0 4.4986)
(-3.71923 0 4.80605)
(-4.88377 0 4.25292)
(-4.18116 0 4.56588)
(-5.37216 0 3.9883)
(-4.64459 0 4.30633)
(-5.8535 0 3.70355)
(-5.10609 0 4.02602)
(-6.3237 0 3.39762)
(-5.56166 0 3.72372)
(-6.77829 0 3.0696)
(-6.00701 0 3.39843)
(-7.21252 0 2.71881)
(-6.4376 0 3.04938)
(-7.62134 0 2.34494)
(-6.84871 0 2.67604)
(-7.99943 0 1.94816)
(-7.23537 0 2.27832)
(-8.34127 0 1.52934)
(-7.59234 0 1.85674)
(-8.64114 0 1.09044)
(-7.91368 0 1.41258)
(-8.89306 0 0.635315)
(-8.1926 0 0.948415)
(-9.09064 0 0.170385)
(-8.42313 0 0.469151)
(-9.22863 0 -0.295242)
(-8.6032 0 -0.0169009)
(-9.31146 0 -0.754783)
(-8.71748 0 -0.496238)
(-9.34709 0 -1.20375)
(-8.79327 0 -0.964851)
(-9.34065 0 -1.63495)
(-8.83195 0 -1.41781)
(-9.29702 0 -2.03909)
(-8.83751 0 -1.84712)
(-9.21982 0 -2.40572)
(-8.81042 0 -2.24346)