/*--------------------------------*- C++ -*----------------------------------*\
  =========                 |
  \\      /  F ield         | OpenFOAM: The Open Source CFD Toolbox
   \\    /   O peration     | Website:  https://openfoam.org
    \\  /    A nd           | Version:  dev
     \\/     M anipulation  |
\*---------------------------------------------------------------------------*/
FoamFile
{
    version     2.0;
    format      ascii;
    class       volScalarField;
    location    "5.8";
    object      p;
}
// * * * * * * * * * * * * * * * * * * * * * * * * * * * * * * * * * * * * * //

dimensions      [0 2 -2 0 0 0 0];

internalField   nonuniform List<scalar> 
2790
(
146.9
146.808
147.075
147.646
148.426
149.383
150.516
151.822
153.299
154.94
156.739
158.69
160.784
163.009
165.349
167.785
170.289
172.828
175.36
177.834
180.192
182.37
184.301
185.921
187.181
188.055
188.491
188.547
188.597
188.81
146.698
146.715
147.008
147.576
148.352
149.306
150.434
151.734
153.204
154.836
156.626
158.567
160.65
162.864
165.193
167.619
170.115
172.648
175.178
177.656
180.025
182.22
184.174
185.823
187.107
187.982
188.378
188.433
188.566
188.85
146.499
146.586
146.898
147.456
148.219
149.16
150.273
151.555
153.003
154.611
156.373
158.283
160.331
162.506
164.794
167.177
169.629
172.119
174.611
177.059
179.408
181.601
183.574
185.263
186.614
187.59
188.183
188.538
188.854
189.153
146.274
146.392
146.716
147.265
148.014
148.939
150.032
151.29
152.71
154.284
156.007
157.873
159.872
161.992
164.22
166.538
168.923
171.346
173.773
176.164
178.471
180.642
182.624
184.364
185.818
186.97
187.838
188.509
189.062
189.581
146.013
146.146
146.478
147.02
147.752
148.656
149.723
150.95
152.332
153.863
155.537
157.347
159.282
161.333
163.485
165.72
168.019
170.354
172.695
175.008
177.253
179.389
181.371
183.161
184.732
186.074
187.205
188.167
188.978
189.725
145.712
145.85
146.185
146.717
147.429
148.307
149.343
150.532
151.869
153.349
154.964
156.707
158.567
160.535
162.596
164.734
166.929
169.159
171.396
173.611
175.774
177.851
179.813
181.634
183.297
184.798
186.145
187.351
188.371
189.289
145.37
145.509
145.84
146.359
147.048
147.896
148.895
150.041
151.326
152.746
154.293
155.959
157.734
159.607
161.564
163.589
165.666
167.771
169.884
171.98
174.035
176.026
177.934
179.744
181.45
183.051
184.545
185.924
187.089
188.135
144.985
145.122
145.447
145.949
146.612
147.426
148.383
149.479
150.707
152.059
153.53
155.109
156.788
158.554
160.394
162.293
164.234
166.198
168.166
170.118
172.035
173.903
175.71
177.452
179.131
180.75
182.305
183.777
185.027
186.177
144.559
144.692
145.006
145.489
146.123
146.899
147.81
148.851
150.014
151.293
152.679
154.164
155.736
157.384
159.095
160.853
162.643
164.446
166.246
168.024
169.768
171.466
173.114
174.714
176.276
177.811
179.32
180.79
182.061
183.3
144.092
144.22
144.521
144.981
145.584
146.319
147.18
148.16
149.254
150.453
151.747
153.129
154.586
156.106
157.675
159.279
160.901
162.523
164.129
165.703
167.231
168.705
170.123
171.491
172.824
174.143
175.463
176.801
178.002
179.306
143.587
143.709
143.994
144.43
144.997
145.688
146.495
147.412
148.431
149.543
150.741
152.012
153.345
154.728
156.145
157.581
159.019
160.44
161.826
163.161
164.429
165.619
166.726
167.754
168.718
169.647
170.578
171.577
172.539
173.857
143.045
143.159
143.428
143.836
144.367
145.011
145.76
146.609
147.549
148.572
149.666
150.82
152.023
153.26
154.515
155.772
157.01
158.211
159.353
160.415
161.377
162.219
162.928
163.493
163.92
164.23
164.473
164.782
165.164
166.338
142.468
142.575
142.825
143.204
143.696
144.29
144.98
145.758
146.616
147.543
148.53
149.563
150.63
151.714
152.799
153.865
154.892
155.856
156.731
157.49
158.103
158.538
158.76
158.735
158.432
157.835
156.961
155.97
155.023
155.529
141.859
141.957
142.187
142.537
142.988
143.531
144.158
144.863
145.636
146.465
147.341
148.249
149.174
150.101
151.009
151.878
152.684
153.398
153.989
154.421
154.65
154.627
154.289
153.557
152.334
150.506
147.944
144.644
140.699
138.666
141.22
141.309
141.519
141.837
142.246
142.736
143.3
143.929
144.615
145.344
146.106
146.886
147.668
148.433
149.161
149.827
150.405
150.861
151.157
151.247
151.074
150.564
149.619
148.104
145.825
142.494
137.652
130.639
120.184
107.973
0.94685
0.927643
0.863636
0.776657
0.687754
0.606797
0.53654
0.476745
0.426166
0.383224
0.346295
0.313907
0.284848
0.258165
0.233126
0.209176
0.185929
0.163173
0.140887
0.119232
0.0985087
0.0790845
0.0613356
0.0457147
0.0325193
0.0217454
0.0132621
0.00691052
0.00259613
-0.000277599
0.902836
0.881424
0.821354
0.741384
0.659833
0.58525
0.520128
0.464383
0.416966
0.376463
0.341384
0.310383
0.282358
0.256437
0.231932
0.208323
0.185251
0.162524
0.140143
0.118304
0.09737
0.0778026
0.0600955
0.0446155
0.0315554
0.0209156
0.0125813
0.00636822
0.00235362
0.000746652
0.854012
0.828602
0.771035
0.697765
0.624289
0.557149
0.498278
0.44763
0.404304
0.367009
0.334375
0.305196
0.278516
0.25358
0.229781
0.206642
0.183832
0.161179
0.138718
0.116707
0.0955893
0.0758794
0.0580754
0.0425886
0.0296542
0.0191749
0.0108677
0.00483665
0.00136955
0.000846755
0.806884
0.777294
0.721459
0.653999
0.588131
0.528153
0.475393
0.429806
0.390601
0.356576
0.326453
0.299153
0.273874
0.249984
0.226952
0.204352
0.181876
0.159375
0.136916
0.114818
0.0936027
0.0738253
0.0559909
0.0405756
0.0278654
0.0176493
0.00955449
0.00367696
0.000347077
-0.000397509
0.774036
0.74027
0.685946
0.622688
0.562411
0.507498
0.458999
0.416936
0.380636
0.348923
0.320577
0.2946
0.270312
0.247167
0.22469
0.202486
0.180267
0.157893
0.135452
0.11332
0.0921
0.0723532
0.0545501
0.0392168
0.0267123
0.0165865
0.00838346
0.00268074
1.15123e-05
-0.000645451
0.766971
0.727894
0.674345
0.612445
0.554192
0.500849
0.453573
0.412523
0.377109
0.346173
0.318396
0.292779
0.268754
0.245804
0.223465
0.201354
0.179188
0.156835
0.134392
0.112274
0.0911492
0.0715387
0.0538345
0.0386178
0.0264803
0.016993
0.00897144
0.00264217
-0.000842482
-0.00106301
0.796287
0.749233
0.693316
0.627876
0.566068
0.509615
0.459831
0.416849
0.380021
0.348098
0.319564
0.293343
0.268821
0.245463
0.222794
0.20044
0.178144
0.155796
0.133488
0.11161
0.0908537
0.0716768
0.0542078
0.0388444
0.0260933
0.016142
0.00847388
0.00249532
-0.00110974
-0.00113586
0.867925
0.810021
0.743325
0.667354
0.595607
0.531152
0.475134
0.427341
0.387006
0.352788
0.32274
0.295197
0.269544
0.245333
0.22205
0.1993
0.17686
0.154645
0.13268
0.111106
0.0902367
0.0707576
0.0533308
0.0382949
0.0258783
0.0161041
0.00832162
0.0020199
-0.00192242
-0.00134033
0.98201
0.902649
0.815643
0.721803
0.635048
0.55969
0.495978
0.441959
0.39595
0.356979
0.323668
0.294648
0.268365
0.243733
0.220072
0.196992
0.174401
0.15237
0.130945
0.110092
0.0898103
0.0704257
0.0526407
0.0372398
0.0248135
0.0152994
0.00774453
0.00133535
-0.00273141
-0.00152333
1.11748
1.00475
0.889373
0.774926
0.671607
0.581908
0.507536
0.447491
0.398715
0.357944
0.323128
0.292867
0.265895
0.240984
0.217127
0.193817
0.17114
0.149424
0.128736
0.108726
0.0889564
0.0694656
0.0510627
0.0350675
0.0225748
0.0135316
0.00654654
0.000387554
-0.00349137
-0.00167357
1.23266
1.08809
0.942666
0.803654
0.685036
0.587819
0.508738
0.445209
0.394379
0.352729
0.317495
0.287068
0.260322
0.235877
0.212278
0.188847
0.166058
0.144827
0.125375
0.106806
0.087844
0.0680354
0.0484482
0.0313206
0.0186385
0.0104514
0.0046398
-0.000733714
-0.00411171
-0.00177434
1.3208
1.12614
0.950843
0.794437
0.666542
0.566474
0.488202
0.426836
0.378652
0.339441
0.3058
0.276474
0.251117
0.228287
0.205683
0.182205
0.159041
0.138314
0.12068
0.104379
0.0866855
0.066287
0.0446568
0.0255244
0.0124187
0.00567831
0.00197953
-0.00190613
-0.00452812
-0.0018096
1.31927
1.05685
0.861514
0.708623
0.592723
0.506736
0.440576
0.38872
0.349122
0.316983
0.287486
0.260362
0.237565
0.217972
0.197483
0.173886
0.149616
0.129184
0.114269
0.101653
0.0860473
0.06468
0.0396678
0.0171189
0.00315907
-0.00122908
-0.00137568
-0.00289475
-0.00466851
-0.00176675
1.0577
0.736694
0.603761
0.518238
0.447266
0.401109
0.364166
0.330167
0.305416
0.286067
0.263269
0.238333
0.218954
0.205177
0.188832
0.164798
0.137657
0.116639
0.10569
0.099108
0.0869932
0.0640945
0.0336151
0.00538438
-0.0102183
-0.0108744
-0.00521616
-0.00323801
-0.00441698
-0.00163696
0.353564
-0.0224544
0.0806653
0.209888
0.223697
0.257596
0.271965
0.254779
0.24548
0.247737
0.236194
0.211592
0.195233
0.190924
0.182024
0.156278
0.12225
0.0983834
0.0933595
0.0970304
0.0909643
0.0657905
0.0267266
-0.0107012
-0.0293405
-0.0241871
-0.00910929
-0.00206189
-0.00356431
-0.00141846
140.54
140.621
140.81
141.094
141.459
141.894
142.392
142.944
143.539
144.166
144.81
145.458
146.092
146.692
147.234
147.693
148.037
148.228
148.222
147.962
147.375
146.366
144.802
142.488
139.125
134.22
126.85
115.102
92.953
33.2078
139.813
139.885
140.051
140.3
140.619
140.997
141.426
141.897
142.399
142.919
143.443
143.955
144.437
144.867
145.22
145.467
145.573
145.496
145.185
144.575
143.582
142.091
139.946
136.912
132.634
126.527
117.558
103.994
84.4688
56.0049
139.044
139.105
139.248
139.462
139.733
140.052
140.411
140.799
141.205
141.616
142.018
142.392
142.72
142.979
143.141
143.177
143.047
142.707
142.101
141.158
139.788
137.868
135.234
131.658
126.812
120.242
111.356
99.5167
85.2706
68.6249
138.233
138.284
138.403
138.58
138.803
139.062
139.349
139.652
139.962
140.264
140.542
140.778
140.953
141.042
141.017
140.845
140.487
139.897
139.014
137.768
136.067
133.793
130.794
126.875
121.786
115.237
106.929
96.5281
83.9721
68.8201
137.384
137.424
137.519
137.658
137.832
138.03
138.244
138.463
138.676
138.868
139.023
139.123
139.147
139.07
138.863
138.494
137.921
137.097
135.965
134.455
132.48
129.934
126.688
122.586
117.447
111.072
103.258
93.7646
82.4223
69.4379
136.497
136.527
136.597
136.699
136.823
136.96
137.101
137.236
137.353
137.436
137.471
137.438
137.315
137.079
136.699
136.144
135.373
134.34
132.99
131.259
129.07
126.331
122.937
118.769
113.697
107.585
100.312
91.7772
81.971
71.3061
135.576
135.596
135.641
135.705
135.779
135.856
135.926
135.977
135.999
135.977
135.894
135.732
135.47
135.082
134.542
133.815
132.866
131.65
130.118
128.211
125.863
123.001
119.542
115.398
110.484
104.719
98.0487
90.4625
82.0034
73.0072
134.624
134.633
134.654
134.68
134.706
134.723
134.722
134.693
134.623
134.498
134.302
134.018
133.623
133.096
132.407
131.527
130.422
129.051
127.37
125.33
122.876
119.951
116.492
112.441
107.744
102.362
96.2798
89.5183
82.1272
74.3786
133.644
133.643
133.64
133.63
133.608
133.566
133.497
133.389
133.23
133.007
132.705
132.306
131.789
131.132
130.311
129.296
128.057
126.559
124.763
122.63
120.115
117.175
113.767
109.853
105.404
100.406
94.8641
88.8127
82.3054
75.57
132.641
132.63
132.603
132.558
132.489
132.392
132.256
132.072
131.829
131.514
131.112
130.606
129.977
129.205
128.266
127.136
125.786
124.187
122.308
120.116
117.577
114.661
111.339
107.589
103.4
98.7705
93.7198
88.2868
82.5246
76.6182
131.619
131.598
131.549
131.469
131.356
131.204
131.006
130.751
130.429
130.027
129.533
128.929
128.2
127.325
126.286
125.058
123.62
121.945
120.009
117.787
115.255
112.391
109.179
105.608
101.676
97.3947
92.7858
87.8892
82.7529
77.5254
130.583
130.553
130.482
130.369
130.214
130.011
129.753
129.431
129.036
128.555
127.976
127.285
126.466
125.503
124.378
123.072
121.564
119.836
117.868
115.641
113.138
110.347
107.259
103.871
100.189
96.2278
92.0124
87.5791
82.9699
78.304
129.539
129.5
129.409
129.265
129.069
128.818
128.505
128.121
127.658
127.105
126.45
125.681
124.785
123.747
122.551
121.183
119.625
117.863
115.882
113.669
111.213
108.508
105.551
102.345
98.8985
95.2296
91.3623
87.3292
83.1661
78.9692
128.491
128.445
128.334
128.161
127.928
127.633
127.268
126.828
126.303
125.685
124.963
124.127
123.165
122.064
120.812
119.396
117.804
116.025
114.047
111.863
109.467
106.855
104.031
101
97.7729
94.3681
90.808
87.1209
83.3371
79.5347
127.447
127.393
127.264
127.065
126.798
126.461
126.05
125.558
124.979
124.303
123.523
122.629
121.611
120.46
119.164
117.715
116.103
114.319
112.358
110.213
107.884
105.37
102.676
99.8109
96.786
93.6183
90.3285
86.9409
83.4811
80.0124
126.413
126.351
126.206
125.982
125.684
125.31
124.858
124.32
123.691
122.966
122.135
121.193
120.13
118.938
117.611
116.14
114.519
112.742
110.807
108.71
106.452
104.036
101.468
98.7574
95.9165
92.9607
89.9083
86.7804
83.5982
80.4135
125.395
125.327
125.167
124.921
124.594
124.187
123.697
123.119
122.448
121.679
120.807
119.824
118.725
117.504
116.154
114.671
113.051
111.29
109.387
107.342
105.157
102.837
100.389
97.8213
95.147
92.3798
89.536
86.6333
83.6898
80.7478
124.4
124.327
124.153
123.887
123.535
123.099
122.576
121.963
121.256
120.451
119.543
118.528
117.401
116.158
114.795
113.309
111.697
109.958
108.092
106.101
103.989
101.761
99.4242
96.988
94.4637
91.8639
89.2029
86.4958
83.7579
81.0241
123.436
123.357
123.172
122.888
122.514
122.052
121.501
120.858
120.12
119.284
118.348
117.309
116.161
114.904
113.535
112.051
110.453
108.74
106.915
104.979
102.937
100.796
98.5625
96.2455
93.8555
91.4038
88.9029
86.3657
83.8052
81.2503
122.51
122.426
122.231
121.931
121.538
121.054
120.478
119.81
119.046
118.187
117.228
116.17
115.008
113.743
112.373
110.897
109.317
107.633
105.849
103.967
101.993
99.9326
97.7936
95.5841
93.3137
90.9926
88.6316
86.2419
83.8345
81.4335
121.629
121.541
121.337
121.024
120.614
120.111
119.515
118.825
118.041
117.162
116.187
115.114
113.944
112.676
111.309
109.846
108.286
106.633
104.889
103.059
101.148
99.1626
97.1093
94.9961
92.8317
90.6251
88.3861
86.1241
83.8488
81.58
120.801
120.71
120.498
120.173
119.749
119.23
118.617
117.911
117.11
116.216
115.228
114.146
112.972
111.704
110.344
108.895
107.357
105.734
104.03
102.249
100.397
98.4795
96.5031
94.4755
92.4044
90.298
88.1647
86.0131
83.8513
81.6961
120.034
119.94
119.721
119.387
118.951
118.419
117.792
117.071
116.258
115.352
114.356
113.269
112.093
110.828
109.478
108.044
106.529
104.936
103.269
101.534
99.7347
97.878
95.97
94.0176
92.0279
90.0083
87.9663
85.9094
83.8447
81.7864
119.337
119.241
119.015
118.672
118.226
117.683
117.045
116.314
115.491
114.577
113.575
112.485
111.31
110.051
108.712
107.293
105.8
104.235
102.603
100.909
99.1576
97.3549
95.5069
93.6199
91.7006
89.7556
87.7916
85.8153
83.8332
81.857
118.718
118.619
118.388
118.038
117.583
117.031
116.384
115.644
114.814
113.894
112.888
111.798
110.626
109.374
108.045
106.642
105.169
103.63
102.029
100.372
98.6622
96.9064
95.11
93.2791
91.4195
89.5376
87.6394
85.7309
83.8178
81.9101
118.186
118.085
117.848
117.49
117.028
116.469
115.815
115.069
114.234
113.311
112.303
111.214
110.045
108.8
107.482
106.093
104.639
103.123
101.55
99.9235
98.2498
96.5338
94.7809
92.9969
91.1873
89.3579
87.5142
85.6617
83.8058
81.9547
117.752
117.646
117.402
117.037
116.568
116.003
115.344
114.593
113.753
112.828
111.82
110.732
109.568
108.329
107.021
105.645
104.207
102.71
101.16
99.5598
97.9155
96.232
94.5144
92.7682
90.9987
89.2111
87.4107
85.6026
83.7916
81.9846
117.426
117.315
117.062
116.69
116.216
115.646
114.983
114.228
113.386
112.46
111.452
110.366
109.205
107.973
106.672
105.307
103.882
102.401
100.869
99.2898
97.6687
96.0107
94.3207
92.604
90.8656
89.1105
87.3438
85.5702
83.7944
82.0225
117.224
117.089
116.819
116.441
115.965
115.393
114.727
113.971
113.127
112.201
111.194
110.11
108.953
107.725
106.43
105.073
103.658
102.188
100.668
99.1031
97.4978
95.8569
94.1854
92.4883
90.7704
89.0367
87.2918
85.5404
83.7868
82.0361
117.205
117.006
116.708
116.324
115.845
115.27
114.601
113.843
112.999
112.072
111.066
109.984
108.829
107.605
106.315
104.964
103.555
102.092
100.581
99.0259
97.4309
95.8011
94.1414
92.4567
90.7517
89.0311
87.2997
85.5619
83.822
82.0842
-50.5638
-30.3215
-11.1338
35.6384
28.2076
16.2026
51.1202
39.0356
27.8302
52.5445
42.1225
34.0809
56.884
48.5967
41.8404
61.2715
54.3633
48.4725
64.545
58.6641
53.6156
67.1414
62.1169
57.8082
69.3302
64.9982
61.2897
71.1777
67.3992
64.1725
72.7312
69.4012
66.5645
74.0401
71.0779
68.5596
75.1449
72.4873
70.2314
76.0779
73.6749
71.6373
76.8656
74.6774
72.823
77.5299
75.5242
73.8249
78.089
76.2393
74.6721
78.5582
76.8425
75.3882
78.9505
77.3501
75.9926
79.2768
77.776
76.5017
79.5467
78.1318
76.929
79.7689
78.4279
77.2863
79.95
78.6724
77.5831
80.098
78.8744
77.8293
80.2156
79.0373
78.0292
80.3144
79.1735
78.1955
80.3859
79.2748
78.3215
80.4584
79.3701
78.4341
80.4924
79.4203
78.4983
80.5614
79.5034
78.5879
-2.75223
-2.63953
-1.16715
-0.0261416
0.00422419
0.0959333
0.160922
0.140959
0.155259
0.213552
0.222826
0.184331
0.16122
0.17058
0.177778
0.149614
0.102364
0.0719015
0.0764032
0.097866
0.102127
0.0728955
0.019877
-0.0326439
-0.0570214
-0.0429634
-0.0123033
0.00237204
-0.00160596
-0.0011168
2.43849
-0.509145
1.07185
0.548056
-0.77717
-0.549741
0.069072
0.117305
0.131006
0.232511
0.218233
0.122331
0.0843923
0.140265
0.197185
0.162615
0.0842215
0.0335101
0.0482726
0.0995731
0.122181
0.0860748
0.0112307
-0.0648813
-0.099052
-0.0709045
-0.0134752
0.0135442
0.00268663
-0.000775327
13.572
5.19749
2.4132
-0.0244904
-0.367664
0.986788
1.17606
-0.0721072
-0.461157
-0.115623
0.235655
0.13261
0.0682201
0.179956
0.259838
0.176579
0.0311903
-0.0585474
-0.0171339
0.105135
0.171547
0.120915
0.010948
-0.10266
-0.156023
-0.110311
-0.00959685
0.0382661
0.0124357
-0.000523528
23.3296
13.4532
7.58783
3.81636
2.07076
1.49406
0.327819
-0.350261
-0.0278143
1.14544
1.08202
0.00248096
-0.391165
-0.209715
0.218579
0.264283
0.0268819
-0.124321
-0.0389324
0.177204
0.262138
0.163226
-0.00473401
-0.176719
-0.263651
-0.191943
-0.000863843
0.0859878
0.0333989
-0.000780953
32.4963
22.7312
15.4139
10.1231
6.48749
4.01529
2.15841
1.15197
0.869015
0.88925
0.392334
-0.191619
-0.297669
0.515289
1.05679
0.510654
-0.108657
-0.466998
-0.42361
0.0563834
0.357388
0.246078
0.00557282
-0.234148
-0.356634
-0.218888
0.0376208
0.174033
0.0741821
-0.00233947
40.4721
31.5448
23.6582
17.2278
12.3042
8.66228
5.99369
4.115
2.84701
1.95179
1.18772
0.592023
0.341861
0.560702
0.562332
0.311071
-0.171488
-0.494952
-0.21831
0.621277
0.797108
0.313168
-0.0433846
-0.373774
-0.610737
-0.551826
0.000296247
0.299585
0.138759
-0.00764637
46.9808
39.1737
31.3972
24.5074
18.8843
14.4283
10.91
8.16096
6.06917
4.49941
3.27928
2.31409
1.65604
1.30732
1.02296
0.675422
0.195584
-0.118719
0.00675439
0.386602
0.520295
0.321722
-0.015119
-0.398222
-0.657415
-0.39787
0.365004
0.568982
0.216495
-0.020931
52.2817
45.5487
38.2899
31.4602
25.5791
20.6368
16.5004
13.0818
10.3147
8.10183
6.31296
4.86331
3.74873
2.94391
2.3142
1.71255
1.11959
0.704451
0.597059
0.686704
0.701119
0.481229
0.105705
-0.272174
-0.476647
-0.28361
0.174269
0.404445
0.310333
-0.0624812
56.6057
50.7875
44.2021
37.7284
31.9117
26.8024
22.336
18.4773
15.1966
12.4378
10.1239
8.19522
6.6215
5.36231
4.32551
3.41576
2.61907
2.00848
1.64061
1.44819
1.24931
0.915019
0.493574
0.11296
-0.0931174
-0.0159573
0.250779
0.398984
0.266829
-0.301293
60.1343
55.0655
49.1619
43.1768
37.6238
32.5806
28.0183
23.9326
20.3247
17.1756
14.4477
12.1021
10.1059
8.42092
6.98818
5.74974
4.68461
3.81356
3.1528
2.65363
2.20295
1.7166
1.21296
0.773064
0.48587
0.405856
0.462677
0.442467
0.179009
-0.516629
63.0322
58.5718
53.2909
47.8224
42.6267
37.787
33.2906
29.1488
25.3826
21.9971
18.9802
16.3111
13.9672
11.9211
10.1366
8.57615
7.2175
6.05824
5.09454
4.29044
3.57756
2.90037
2.25806
1.69484
1.26401
0.989029
0.812443
0.587809
0.177889
-0.592347
65.4324
61.468
56.7294
51.7502
46.9359
42.3652
38.031
33.9504
30.1532
26.6577
23.4674
20.5765
17.974
15.6444
13.5662
11.7156
10.074
8.63126
7.37606
6.28166
5.30513
4.40858
3.58306
2.84854
2.23193
1.73817
1.3211
0.880697
0.314493
-0.521942
67.4344
63.8785
59.603
55.0639
50.6178
46.3354
42.2105
38.2602
34.5162
31.003
27.733
24.7102
21.9333
19.396
17.0874
14.9938
13.102
11.4014
9.8796
8.51687
7.2851
6.15806
5.12434
4.1891
3.36172
2.63708
1.97885
1.31853
0.5848
-0.330902
69.1136
65.8975
62.0157
57.863
53.7554
49.755
45.8545
42.0683
38.4269
34.9566
31.6742
28.5896
25.7075
23.0286
20.5495
18.2639
16.1637
14.2408
12.4848
10.8815
9.41212
8.0581
6.80805
5.65911
4.61047
3.65232
2.75635
1.87579
0.96348
-0.0552104
70.5278
67.597
64.0503
60.2337
56.4296
52.6923
49.0129
45.4026
41.8888
38.4974
35.2468
32.1496
29.2146
26.447
23.8484
21.4175
19.1509
17.0434
15.0879
13.2745
11.5905
10.0227
8.56074
7.19814
5.92905
4.74208
3.61521
2.51633
1.41502
0.265098
71.7222
69.0324
65.7717
62.2467
58.7113
55.2137
51.743
48.3073
44.9306
41.637
38.4448
35.3678
32.417
29.6
26.922
24.3851
21.9894
19.7326
17.6106
15.617
13.7434
11.9802
10.3188
8.75138
7.27027
5.86409
4.51546
3.20179
1.90286
0.594386
72.7324
70.2472
67.2316
63.9592
60.6603
57.3779
54.0996
50.8304
47.591
44.4031
41.284
38.2479
35.3061
32.4682
29.7411
27.1293
24.6354
22.2597
20.0005
17.8542
15.8154
13.8773
12.0328
10.2745
8.59417
6.98124
5.42154
3.89821
2.39637
0.906921
73.5872
71.2761
68.471
65.4176
62.3262
59.2354
56.1318
53.0175
49.9102
46.8291
43.7903
40.8069
37.8907
35.0515
32.2976
29.635
27.0679
24.5985
22.2271
19.9522
17.7708
15.6781
13.6684
11.7351
9.87042
8.06462
6.3056
4.57957
2.87369
1.18817
74.31
72.1475
69.5233
66.6597
63.7497
60.8285
57.8818
54.9096
51.9263
48.9491
45.9921
43.0678
40.1872
37.3605
34.596
31.9008
29.2802
26.7377
24.2752
21.8927
19.5888
17.3605
15.2034
13.1116
11.0781
9.09384
7.14803
5.2282
3.32157
1.43307
74.92
72.8843
70.4158
67.7166
64.9649
62.193
59.3861
56.5423
53.6735
50.7945
47.9179
45.0549
42.2158
39.4103
36.6469
33.933
31.2743
28.6755
26.1394
23.6672
21.2589
18.9125
16.6247
14.3906
12.2038
10.0558
7.93635
5.83349
3.73352
1.64291
75.4335
73.5059
71.1711
68.6139
65.9998
63.3587
60.6755
57.9466
55.1819
52.394
49.594
46.7917
43.9967
41.2179
38.4636
35.7411
33.0565
30.415
27.8199
25.2735
22.7765
20.3279
17.9253
15.5644
13.2394
10.9423
8.66312
6.38966
4.1072
1.82188
75.8642
74.0286
71.8083
69.3735
66.8785
64.3511
61.7764
59.1494
56.478
53.7731
51.0444
48.3004
45.5497
42.8004
40.0603
37.3366
34.6355
31.962
29.3202
26.7128
24.141
21.6047
19.1019
16.6291
14.1807
11.7492
9.32458
6.89438
4.4429
1.97495
76.2233
74.4656
72.3429
70.0129
67.6202
65.1911
62.7107
60.173
57.5842
54.9538
52.29
49.6003
46.8922
44.1732
41.4504
38.7306
36.0197
33.3229
30.6445
27.9873
25.3531
22.742
20.1527
17.5821
15.0247
12.4734
9.91807
7.34603
4.74086
2.10556
76.5217
74.8294
72.7894
70.5483
68.2427
65.8976
63.4982
61.0377
58.521
55.9562
53.3504
50.71
48.0417
45.3521
42.6478
39.935
37.2194
34.5061
31.7992
29.1018
26.4159
23.742
21.0789
18.4237
15.7714
13.1148
10.4439
7.74567
5.00328
2.21748
76.7655
75.1276
73.1566
70.99
68.7576
66.4833
64.1523
61.7575
59.3025
56.7942
54.2389
51.6422
49.0097
46.3475
43.6614
40.9572
38.2403
35.5154
32.7868
30.0574
27.3293
24.6031
21.8778
19.1509
16.4173
13.6698
10.8986
8.09038
5.22813
2.31031
76.9666
75.3729
73.4586
71.3533
69.181
66.965
64.6908
62.3505
59.947
57.4863
54.9739
52.4145
49.8132
47.1752
44.506
41.8109
39.0947
36.3622
33.6172
30.8627
28.1007
25.332
22.5556
19.769
16.9674
14.1435
11.2873
8.38555
5.42104
2.38919
77.1218
75.563
73.6935
71.6368
69.5123
67.3427
65.1137
62.8171
60.4551
58.0328
55.5552
53.0263
50.4508
47.8332
45.1786
42.4917
39.7773
37.0397
34.2826
31.5089
28.7205
25.9182
23.1012
20.2667
17.4101
14.5241
11.5986
8.62032
5.57212
2.44712
77.2534
75.7202
73.8848
71.8649
69.7766
67.6421
65.4474
63.184
60.8535
58.4606
56.0096
53.5043
50.9488
48.3472
45.7041
43.0241
40.3116
37.5707
34.8048
32.0169
29.2088
26.3811
23.533
20.662
17.7631
14.8291
11.8499
8.81183
5.69764
2.49666
77.3343
75.8172
74.0041
72.0093
69.9454
67.8344
65.6626
63.4214
61.1121
58.7389
56.3059
53.8165
51.2745
48.6838
46.0487
43.3736
40.6626
37.9196
35.1481
32.3509
29.5296
26.685
23.8161
20.9203
17.9928
15.0262
12.0099
8.93033
5.76996
2.51657
77.4232
75.9073
74.1064
72.1266
70.0764
67.9779
65.8182
63.5888
61.2905
58.9274
56.5034
54.0218
51.4862
48.9005
46.2687
43.5951
40.8838
38.1387
35.3631
32.5597
29.7304
26.8756
23.9947
21.0848
18.141
15.156
12.1188
9.01493
5.82429
2.52304
)
;

boundaryField
{
    inlet
    {
        type            zeroGradient;
    }
    outlet
    {
        type            fixedValue;
        value           uniform 0;
    }
    flap
    {
        type            zeroGradient;
    }
    upperWall
    {
        type            zeroGradient;
    }
    lowerWall
    {
        type            zeroGradient;
    }
    frontAndBack
    {
        type            empty;
    }
}


// ************************************************************************* //
