/*--------------------------------*- C++ -*----------------------------------*\
  =========                 |
  \\      /  F ield         | OpenFOAM: The Open Source CFD Toolbox
   \\    /   O peration     | Website:  https://openfoam.org
    \\  /    A nd           | Version:  dev
     \\/     M anipulation  |
\*---------------------------------------------------------------------------*/
FoamFile
{
    version     2.0;
    format      ascii;
    class       surfaceVectorField;
    location    "5.8";
    object      Uf;
}
// * * * * * * * * * * * * * * * * * * * * * * * * * * * * * * * * * * * * * //

dimensions      [0 1 -1 0 0 0 0];

internalField   nonuniform List<vector> 
5457
(
(9.92088 0 0.0251095)
(9.97125 0 0.0387456)
(9.82402 0 0.0328267)
(9.92859 0 0.0485849)
(9.70961 0 0.0393118)
(9.85548 0 0.0587678)
(9.57544 0 0.0460113)
(9.7568 0 0.0705929)
(9.42138 0 0.0529487)
(9.63754 0 0.083013)
(9.24755 0 0.060166)
(9.49861 0 0.0959361)
(9.05363 0 0.0678107)
(9.33931 0 0.109612)
(8.83893 0 0.0760344)
(9.15875 0 0.124288)
(8.60253 0 0.0849701)
(8.9561 0 0.140167)
(8.34327 0 0.0947449)
(8.73039 0 0.157433)
(8.05985 0 0.105487)
(8.48041 0 0.17627)
(7.75081 0 0.117328)
(8.20478 0 0.196858)
(7.41457 0 0.130396)
(7.90196 0 0.219363)
(7.04951 0 0.144811)
(7.57031 0 0.243925)
(6.65404 0 0.160674)
(7.20819 0 0.270635)
(6.22672 0 0.178046)
(6.814 0 0.299503)
(5.76643 0 0.19693)
(6.38634 0 0.330418)
(5.27258 0 0.217235)
(5.92418 0 0.363088)
(4.74538 0 0.238738)
(5.42711 0 0.39698)
(4.18621 0 0.261035)
(4.89566 0 0.431241)
(3.59798 0 0.28349)
(4.33165 0 0.464623)
(2.98556 0 0.305204)
(3.73861 0 0.495428)
(2.35612 0 0.325071)
(3.12228 0 0.521515)
(1.71911 0 0.342549)
(2.49108 0 0.54056)
(1.08435 0 0.361882)
(1.85586 0 0.551675)
(0.45184 0 0.348685)
(1.24549 0 0.563022)
(-0.145836 0 0.102466)
(0.608921 0 0.544882)
(-0.423619 0 -0.207096)
(0.0946656 0 0.259372)
(-0.402156 0 -0.36126)
(-0.133669 0 -0.0205256)
(-0.119681 0 -0.393887)
(9.99641 0 0.0516721)
(9.99705 0 0.0405043)
(9.95879 0 0.0708611)
(9.97851 0 0.0674539)
(9.89824 0 0.0879862)
(9.93377 0 0.0898692)
(9.81659 0 0.105984)
(9.86453 0 0.113554)
(9.71359 0 0.124921)
(9.77438 0 0.138514)
(9.58909 0 0.144853)
(9.66436 0 0.164645)
(9.44275 0 0.166089)
(9.53397 0 0.192331)
(9.27391 0 0.188967)
(9.3825 0 0.22203)
(9.08167 0 0.213783)
(9.2092 0 0.254148)
(8.86491 0 0.240816)
(9.01317 0 0.289064)
(8.62231 0 0.270338)
(8.79332 0 0.327153)
(8.3524 0 0.302608)
(8.54836 0 0.368788)
(8.05357 0 0.337859)
(8.27684 0 0.414319)
(7.72412 0 0.376265)
(7.97718 0 0.46405)
(7.36238 0 0.417906)
(7.64772 0 0.518193)
(6.96673 0 0.462712)
(7.28683 0 0.576812)
(6.53584 0 0.510392)
(6.89296 0 0.639732)
(6.06883 0 0.560338)
(6.46482 0 0.706434)
(5.56559 0 0.611526)
(6.0016 0 0.775917)
(5.0271 0 0.66239)
(5.50326 0 0.846531)
(4.45588 0 0.710713)
(4.97089 0 0.915813)
(3.8565 0 0.753544)
(4.40719 0 0.980313)
(3.2362 0 0.787199)
(3.81704 0 1.03546)
(2.60582 0 0.807503)
(3.20846 0 1.07549)
(1.9828 0 0.810468)
(2.59339 0 1.09315)
(1.40529 0 0.776898)
(1.99621 0 1.07708)
(0.929754 0 0.646402)
(1.4195 0 0.97841)
(0.439857 0 0.38434)
(0.937574 0 0.716798)
(0.0591729 0 -0.118613)
(0.443793 0 0.343525)
(0.174921 0 -0.335931)
(9.98903 0 0.0594304)
(9.99481 0 0.045877)
(9.95434 0 0.0894757)
(9.97368 0 0.0848534)
(9.89729 0 0.118031)
(9.92984 0 0.119173)
(9.82047 0 0.147897)
(9.86357 0 0.153975)
(9.72416 0 0.17942)
(9.77736 0 0.190407)
(9.60822 0 0.212774)
(9.67227 0 0.228635)
(9.47235 0 0.248391)
(9.5481 0 0.269128)
(9.31608 0 0.286773)
(9.40432 0 0.312495)
(9.13869 0 0.328396)
(9.24035 0 0.359324)
(8.93925 0 0.373721)
(9.0555 0 0.410173)
(8.71665 0 0.423206)
(8.8489 0 0.465598)
(8.46961 0 0.477296)
(8.61952 0 0.526153)
(8.19668 0 0.536399)
(8.36616 0 0.592373)
(7.89633 0 0.600843)
(8.08752 0 0.664739)
(7.56692 0 0.670812)
(7.7822 0 0.743619)
(7.20684 0 0.746258)
(7.44874 0 0.829191)
(6.81457 0 0.826785)
(7.08569 0 0.921322)
(6.38888 0 0.911486)
(6.69171 0 1.01941)
(5.92904 0 0.998761)
(6.26572 0 1.12218)
(5.43515 0 1.0861)
(5.80712 0 1.22743)
(4.90855 0 1.16983)
(5.31608 0 1.33175)
(4.35244 0 1.2449)
(4.79398 0 1.4302)
(3.7726 0 1.30455)
(4.24398 0 1.51588)
(3.17873 0 1.33984)
(3.67182 0 1.57943)
(2.58664 0 1.33812)
(3.08633 0 1.60775)
(2.01987 0 1.27298)
(2.50293 0 1.58158)
(1.48695 0 1.09541)
(1.92874 0 1.46425)
(0.958302 0 0.769173)
(1.38526 0 1.21041)
(0.479881 0 0.202455)
(0.829546 0 0.801042)
(0.433733 0 0.134083)
(9.98515 0 0.0716131)
(9.99367 0 0.0531473)
(9.95039 0 0.113629)
(9.97088 0 0.10229)
(9.89437 0 0.154132)
(9.92691 0 0.147952)
(9.81882 0 0.195571)
(9.86185 0 0.19372)
(9.72442 0 0.238809)
(9.77746 0 0.241275)
(9.61113 0 0.284322)
(9.67467 0 0.291161)
(9.47875 0 0.332719)
(9.55343 0 0.343953)
(9.32695 0 0.384673)
(9.41336 0 0.40037)
(9.15524 0 0.440845)
(9.25401 0 0.461138)
(8.96292 0 0.501882)
(9.07484 0 0.52696)
(8.74917 0 0.568427)
(8.87521 0 0.598535)
(8.51305 0 0.641112)
(8.6543 0 0.676562)
(8.25347 0 0.720531)
(8.41123 0 0.761721)
(7.96926 0 0.807191)
(8.145 0 0.854637)
(7.65918 0 0.901439)
(7.85455 0 0.95582)
(7.32193 0 1.00335)
(7.53876 0 1.06557)
(6.95621 0 1.11258)
(7.19647 0 1.18385)
(6.56085 0 1.22814)
(6.82653 0 1.31008)
(6.13489 0 1.34817)
(6.4279 0 1.44292)
(5.67785 0 1.4696)
(5.99967 0 1.57991)
(5.19 0 1.58778)
(5.54135 0 1.71709)
(4.67287 0 1.69603)
(5.05306 0 1.84854)
(4.12981 0 1.78515)
(4.53597 0 1.96584)
(3.56666 0 1.84253)
(3.99274 0 2.05731)
(2.99206 0 1.85073)
(3.42761 0 2.10714)
(2.41585 0 1.78249)
(2.84764 0 2.09449)
(1.84055 0 1.60046)
(2.25624 0 1.98874)
(1.25939 0 1.27843)
(1.66032 0 1.75304)
(0.666777 0 0.789541)
(1.02397 0 1.36776)
(0.523038 0 0.787151)
(9.98337 0 0.0844064)
(9.99316 0 0.0612906)
(9.94821 0 0.136835)
(9.96959 0 0.119926)
(9.89315 0 0.18803)
(9.92575 0 0.176238)
(9.81907 0 0.240166)
(9.862 0 0.232695)
(9.72663 0 0.294464)
(9.77964 0 0.291084)
(9.6159 0 0.351656)
(9.6794 0 0.352271)
(9.48672 0 0.412467)
(9.56128 0 0.416974)
(9.33879 0 0.477673)
(9.42497 0 0.486005)
(9.17171 0 0.548047)
(9.2701 0 0.560201)
(8.98493 0 0.624351)
(9.09621 0 0.640383)
(8.77779 0 0.707341)
(8.90275 0 0.727364)
(8.54954 0 0.797762)
(8.68908 0 0.821954)
(8.29936 0 0.896324)
(8.45445 0 0.92494)
(8.02635 0 1.00365)
(8.19808 0 1.03705)
(7.72958 0 1.1202)
(7.91912 0 1.15891)
(7.40806 0 1.24617)
(7.61669 0 1.29092)
(7.06077 0 1.38127)
(7.28986 0 1.43315)
(6.6867 0 1.52459)
(6.93763 0 1.58511)
(6.28485 0 1.67419)
(6.55899 0 1.74551)
(5.85438 0 1.82679)
(6.15287 0 1.91189)
(5.39471 0 1.97726)
(5.71822 0 2.08017)
(4.90575 0 2.11806)
(5.25408 0 2.24409)
(4.38825 0 2.23861)
(4.75974 0 2.39461)
(3.84395 0 2.32455)
(4.23495 0 2.5192)
(3.27544 0 2.35695)
(3.67989 0 2.60124)
(2.6854 0 2.31059)
(3.09572 0 2.6197)
(2.07269 0 2.15501)
(2.48169 0 2.54732)
(1.42938 0 1.8674)
(1.83992 0 2.35372)
(0.742614 0 1.41957)
(1.13137 0 2.02452)
(0.543307 0 1.5145)
(9.98264 0 0.0974963)
(9.99299 0 0.0697918)
(9.94744 0 0.159773)
(9.96925 0 0.137581)
(9.89354 0 0.221345)
(9.92597 0 0.203924)
(9.82134 0 0.284089)
(9.86381 0 0.270685)
(9.73134 0 0.349344)
(9.78386 0 0.339578)
(9.62367 0 0.418014)
(9.68665 0 0.411692)
(9.49819 0 0.490933)
(9.57218 0 0.487898)
(9.35466 0 0.568969)
(9.44022 0 0.569099)
(9.1927 0 0.653)
(9.29044 0 0.656229)
(9.01184 0 0.743893)
(9.12243 0 0.750209)
(8.81152 0 0.842513)
(8.93572 0 0.851953)
(8.59109 0 0.949706)
(8.72973 0 0.962363)
(8.34986 0 1.06628)
(8.50382 0 1.08232)
(8.08707 0 1.19296)
(8.25729 0 1.21265)
(7.80193 0 1.33031)
(7.98938 0 1.35405)
(7.4936 0 1.4786)
(7.6993 0 1.50703)
(7.16119 0 1.63769)
(7.38617 0 1.67177)
(6.80372 0 1.80675)
(7.04903 0 1.84792)
(6.42011 0 1.98398)
(6.68675 0 2.03437)
(6.00913 0 2.16614)
(6.29801 0 2.22884)
(5.56941 0 2.34811)
(5.88119 0 2.42749)
(5.09946 0 2.52221)
(5.43434 0 2.62427)
(4.59774 0 2.67757)
(4.95511 0 2.8103)
(4.0627 0 2.7995)
(4.44084 0 2.97323)
(3.4927 0 2.86911)
(3.88852 0 3.09663)
(2.88583 0 2.86292)
(3.29523 0 3.1599)
(2.23802 0 2.75393)
(2.6569 0 3.13791)
(1.54244 0 2.52103)
(1.97484 0 3.00319)
(0.793648 0 2.13134)
(1.20724 0 2.7406)
(0.556736 0 2.29182)
(9.9825 0 0.110625)
(9.99302 0 0.0783602)
(9.94771 0 0.182321)
(9.96954 0 0.155035)
(9.89523 0 0.253813)
(9.92722 0 0.230882)
(9.82524 0 0.326762)
(9.86697 0 0.307504)
(9.73813 0 0.40255)
(9.78978 0 0.386517)
(9.63404 0 0.482228)
(9.69606 0 0.469142)
(9.51286 0 0.566751)
(9.5858 0 0.556391)
(9.37439 0 0.657087)
(9.45881 0 0.649264)
(9.21829 0 0.754207)
(9.31481 0 0.748781)
(9.04415 0 0.859079)
(9.15347 0 0.855956)
(8.85146 0 0.972658)
(8.97435 0 0.971796)
(8.63963 0 1.09588)
(8.77692 0 1.09729)
(8.40803 0 1.22964)
(8.56059 0 1.23341)
(8.15596 0 1.37475)
(8.3247 0 1.38108)
(7.88265 0 1.53187)
(8.06853 0 1.54108)
(7.58728 0 1.70139)
(7.79126 0 1.71405)
(7.2689 0 1.88331)
(7.49196 0 1.90031)
(6.92643 0 2.07698)
(7.16955 0 2.09971)
(6.55851 0 2.28087)
(6.82266 0 2.31141)
(6.16347 0 2.49207)
(6.44959 0 2.53351)
(5.73913 0 2.70585)
(6.0481 0 2.76266)
(5.28273 0 2.915)
(5.61524 0 2.99348)
(4.79083 0 3.10917)
(5.14724 0 3.21786)
(4.25929 0 3.27421)
(4.63938 0 3.42428)
(3.68339 0 3.39186)
(4.08605 0 3.59715)
(3.05804 0 3.43968)
(3.48131 0 3.71654)
(2.37773 0 3.39179)
(2.81836 0 3.75813)
(1.63791 0 3.22617)
(2.09915 0 3.69398)
(0.83913 0 2.90084)
(1.27892 0 3.50447)
(0.573359 0 3.1137)
(9.98273 0 0.123579)
(9.99316 0 0.086816)
(9.94873 0 0.204306)
(9.97027 0 0.17209)
(9.89794 0 0.285248)
(9.92927 0 0.256971)
(9.83051 0 0.36796)
(9.87124 0 0.342982)
(9.74671 0 0.453845)
(9.79716 0 0.431672)
(9.64669 0 0.54407)
(9.70735 0 0.524344)
(9.53039 0 0.6397)
(9.60181 0 0.622128)
(9.39763 0 0.741793)
(9.48039 0 0.726118)
(9.24814 0 0.851408)
(9.34287 0 0.837417)
(9.08154 0 0.969601)
(9.18895 0 0.957125)
(8.89737 0 1.09742)
(9.01825 0 1.08634)
(8.69511 0 1.23588)
(8.83031 0 1.22613)
(8.47414 0 1.38598)
(8.62456 0 1.37758)
(8.23377 0 1.54863)
(8.40038 0 1.54168)
(7.97323 0 1.7246)
(8.15703 0 1.71938)
(7.69162 0 1.91445)
(7.89365 0 1.91143)
(7.38786 0 2.11836)
(7.60921 0 2.11837)
(7.06063 0 2.33597)
(7.30243 0 2.3403)
(6.70821 0 2.56613)
(6.97166 0 2.57677)
(6.32837 0 2.8065)
(6.61472 0 2.82645)
(5.9181 0 3.05306)
(6.22872 0 3.08672)
(5.47346 0 3.29954)
(5.80975 0 3.35319)
(4.98931 0 3.53667)
(5.35265 0 3.619)
(4.45934 0 3.75142)
(4.85088 0 3.87401)
(3.87622 0 3.92647)
(4.29642 0 4.10395)
(3.23232 0 4.03986)
(3.68055 0 4.28969)
(2.52083 0 4.06498)
(2.99351 0 4.40677)
(1.73837 0 3.97613)
(2.23737 0 4.42457)
(0.88947 0 3.71875)
(1.36335 0 4.31628)
(0.59875 0 3.98488)
(9.98321 0 0.136201)
(9.99339 0 0.0950387)
(9.95032 0 0.225568)
(9.97131 0 0.188586)
(9.90151 0 0.315491)
(9.93193 0 0.282044)
(9.83694 0 0.407497)
(9.87643 0 0.376954)
(9.75684 0 0.503005)
(9.80579 0 0.474833)
(9.66136 0 0.603269)
(9.72031 0 0.577042)
(9.55047 0 0.70945)
(9.61996 0 0.684805)
(9.42404 0 0.822692)
(9.50466 0 0.799307)
(9.28185 0 0.944137)
(9.37423 0 0.921725)
(9.12357 0 1.07492)
(9.22844 0 1.05324)
(8.94881 0 1.21618)
(9.06697 0 1.19503)
(8.75707 0 1.36904)
(8.88939 0 1.34827)
(8.54778 0 1.53458)
(8.69522 0 1.51411)
(8.32026 0 1.71384)
(8.48384 0 1.6937)
(8.07371 0 1.90774)
(8.25452 0 1.8881)
(7.80715 0 2.11703)
(8.00638 0 2.09827)
(7.51934 0 2.34216)
(7.73827 0 2.32497)
(7.20869 0 2.58316)
(7.44874 0 2.56869)
(6.87312 0 2.8394)
(7.13586 0 2.82946)
(6.50979 0 3.10928)
(6.79702 0 3.10665)
(6.11489 0 3.38982)
(6.42869 0 3.39863)
(5.68332 0 3.67604)
(6.02605 0 3.70232)
(5.20839 0 3.96022)
(5.58269 0 4.0125)
(4.68165 0 4.231)
(5.09022 0 4.32098)
(4.09318 0 4.47232)
(4.53816 0 4.6154)
(3.43241 0 4.66254)
(3.91458 0 4.87787)
(2.69004 0 4.77314)
(3.20557 0 5.08357)
(1.86178 0 4.77237)
(2.41118 0 5.19794)
(0.954139 0 4.58968)
(1.47621 0 5.18426)
(0.639159 0 4.9194)
(9.98386 0 0.148366)
(9.99368 0 0.102942)
(9.95235 0 0.245967)
(9.97261 0 0.204391)
(9.90579 0 0.344394)
(9.9351 0 0.305964)
(9.84438 0 0.445191)
(9.88241 0 0.409264)
(9.76833 0 0.549803)
(9.81552 0 0.515808)
(9.67781 0 0.65955)
(9.73472 0 0.627002)
(9.57282 0 0.775678)
(9.64 0 0.744148)
(9.45329 0 0.899408)
(9.53131 0 0.868506)
(9.31903 0 1.03196)
(9.40854 0 1.00133)
(9.16979 0 1.17454)
(9.27153 0 1.14386)
(9.00524 0 1.32839)
(9.12001 0 1.29737)
(8.82494 0 1.49471)
(8.95363 0 1.46312)
(8.62836 0 1.6747)
(8.77196 0 1.64236)
(8.41486 0 1.86954)
(8.57445 0 1.83636)
(8.18363 0 2.08033)
(8.3604 0 2.04635)
(7.93362 0 2.30806)
(8.12891 0 2.2735)
(7.66349 0 2.55351)
(7.87882 0 2.51888)
(7.37145 0 2.81719)
(7.60856 0 2.7834)
(7.05506 0 3.09913)
(7.31599 0 3.0677)
(6.71102 0 3.39867)
(6.99821 0 3.37198)
(6.3348 0 3.7141)
(6.65119 0 3.6958)
(5.92024 0 4.04212)
(6.26939 0 4.03768)
(5.45914 0 4.37708)
(5.84528 0 4.39454)
(4.94092 0 4.7099)
(5.36874 0 4.76074)
(4.35255 0 5.02654)
(4.82663 0 5.12675)
(3.67941 0 5.30616)
(4.20299 0 5.47706)
(2.90734 0 5.51813)
(3.4777 0 5.78744)
(2.02752 0 5.62294)
(2.64485 0 6.01944)
(1.04502 0 5.52936)
(1.63758 0 6.12383)
(0.704404 0 5.94294)
(9.98465 0 0.159979)
(9.99402 0 0.110461)
(9.95473 0 0.265377)
(9.97409 0 0.219396)
(9.91065 0 0.371815)
(9.93868 0 0.328607)
(9.85267 0 0.480877)
(9.88905 0 0.439769)
(9.781 0 0.594037)
(9.82619 0 0.554425)
(9.69582 0 0.712672)
(9.75039 0 0.674016)
(9.59717 0 0.838098)
(9.66167 0 0.799907)
(9.48503 0 0.971605)
(9.56004 0 0.933424)
(9.35929 0 1.11448)
(9.44544 0 1.07588)
(9.21975 0 1.26802)
(9.31778 0 1.2286)
(9.06614 0 1.43351)
(9.17686 0 1.39291)
(8.89812 0 1.61227)
(9.02242 0 1.57014)
(8.71523 0 1.80563)
(8.85412 0 1.76168)
(8.51687 0 2.01489)
(8.67147 0 1.9689)
(8.30228 0 2.24136)
(8.47387 0 2.1932)
(8.07041 0 2.48631)
(8.26047 0 2.43601)
(7.8199 0 2.75091)
(8.03014 0 2.69871)
(7.54885 0 3.0362)
(7.78132 0 2.98269)
(7.25465 0 3.34299)
(7.51184 0 3.28923)
(6.93369 0 3.67173)
(7.21869 0 3.61951)
(6.58093 0 4.0222)
(6.89763 0 3.97443)
(6.18945 0 4.39318)
(6.54272 0 4.35438)
(5.74974 0 4.78166)
(6.14568 0 4.75886)
(5.24906 0 5.18177)
(5.69502 0 5.18562)
(4.67085 0 5.58284)
(5.17499 0 5.62928)
(3.99479 0 5.96656)
(4.56496 0 6.07885)
(3.19827 0 6.30168)
(3.83616 0 6.51359)
(2.26163 0 6.54059)
(2.97063 0 6.894)
(1.18051 0 6.56496)
(1.87896 0 7.1577)
(0.812712 0 7.09918)
(9.98554 0 0.17096)
(9.9944 0 0.117544)
(9.95739 0 0.283694)
(9.97572 0 0.233515)
(9.91601 0 0.397628)
(9.94259 0 0.349863)
(9.8617 0 0.514403)
(9.89624 0 0.468343)
(9.79469 0 0.635525)
(9.83765 0 0.590531)
(9.71518 0 0.762418)
(9.76714 0 0.717899)
(9.62326 0 0.896456)
(9.68476 0 0.851863)
(9.51895 0 1.03899)
(9.59057 0 0.993806)
(9.40222 0 1.19136)
(9.48457 0 1.14509)
(9.27295 0 1.35493)
(9.36675 0 1.3071)
(9.13096 0 1.53107)
(9.23701 0 1.48122)
(8.97598 0 1.72118)
(9.09517 0 1.66886)
(8.80765 0 1.92669)
(8.94098 0 1.87149)
(8.62548 0 2.14907)
(8.7741 0 2.09062)
(8.42879 0 2.38983)
(8.59403 0 2.32781)
(8.21664 0 2.65052)
(8.40004 0 2.58471)
(7.98771 0 2.93272)
(8.19116 0 2.86304)
(7.74019 0 3.23806)
(7.96597 0 3.16467)
(7.4715 0 3.56818)
(7.72245 0 3.49156)
(7.178 0 3.92472)
(7.45777 0 3.84586)
(6.85455 0 4.30917)
(7.16784 0 4.22991)
(6.49389 0 4.72268)
(6.84687 0 4.64615)
(6.08573 0 5.16557)
(6.48649 0 5.09704)
(5.61564 0 5.63635)
(6.07469 0 5.58453)
(5.06353 0 6.12985)
(5.59399 0 6.10912)
(4.40211 0 6.63377)
(5.01951 0 6.6676)
(3.59598 0 7.12115)
(4.3124 0 7.24852)
(2.60414 0 7.54048)
(3.43545 0 7.82009)
(1.39417 0 7.74019)
(2.25623 0 8.31481)
(1.00247 0 8.46468)
(9.9865 0 0.181249)
(9.9948 0 0.124153)
(9.96027 0 0.300826)
(9.97747 0 0.246675)
(9.92177 0 0.421725)
(9.94676 0 0.369639)
(9.87134 0 0.54564)
(9.90388 0 0.494876)
(9.80924 0 0.674111)
(9.84978 0 0.623993)
(9.73568 0 0.808601)
(9.78479 0 0.758493)
(9.65082 0 0.95053)
(9.70903 0 0.899832)
(9.55473 0 1.1013)
(9.62259 0 1.04943)
(9.44744 0 1.2623)
(9.52557 0 1.20871)
(9.32893 0 1.43494)
(9.41801 0 1.37907)
(9.1991 0 1.62066)
(9.29991 0 1.56196)
(9.05782 0 1.82093)
(9.17121 0 1.75886)
(8.90483 0 2.03728)
(9.03179 0 1.9713)
(8.73977 0 2.27134)
(8.88144 0 2.2009)
(8.56213 0 2.52478)
(8.71983 0 2.44938)
(8.37113 0 2.79944)
(8.54645 0 2.71858)
(8.16568 0 3.0973)
(8.36053 0 3.01053)
(7.94417 0 3.42055)
(8.16097 0 3.32752)
(7.70433 0 3.77165)
(7.94612 0 3.67215)
(7.44287 0 4.15343)
(7.71362 0 4.0475)
(7.15504 0 4.56915)
(7.46003 0 4.45725)
(6.83396 0 5.02253)
(7.18032 0 4.9059)
(6.46957 0 5.5177)
(6.8671 0 5.39895)
(6.047 0 6.05878)
(6.50932 0 5.94311)
(5.544 0 6.6488)
(6.09001 0 6.54628)
(4.92696 0 7.28703)
(5.58302 0 7.21686)
(4.14481 0 7.96138)
(4.94232 0 7.96158)
(3.12152 0 8.63339)
(4.109 0 8.77556)
(1.75604 0 9.12747)
(2.87809 0 9.62063)
(1.36448 0 10.1846)
(9.98754 0 0.190795)
(9.99523 0 0.130257)
(9.96332 0 0.3167)
(9.97932 0 0.258818)
(9.92786 0 0.444013)
(9.95115 0 0.38786)
(9.88148 0 0.574478)
(9.91188 0 0.519275)
(9.82449 0 0.709666)
(9.86244 0 0.654702)
(9.75713 0 0.851071)
(9.80318 0 0.795669)
(9.67959 0 1.00015)
(9.73426 0 0.943659)
(9.59202 0 1.15833)
(9.65584 0 1.10013)
(9.49453 0 1.32706)
(9.56807 0 1.26651)
(9.38717 0 1.50777)
(9.47109 0 1.44426)
(9.26998 0 1.70194)
(9.36501 0 1.63485)
(9.14292 0 1.91113)
(9.24989 0 1.83979)
(9.0059 0 2.13693)
(9.12574 0 2.06069)
(8.85873 0 2.38108)
(8.99253 0 2.29924)
(8.70111 0 2.64542)
(8.85014 0 2.55725)
(8.53251 0 2.93202)
(8.69831 0 2.83675)
(8.35215 0 3.24319)
(8.53661 0 3.14)
(8.15888 0 3.58162)
(8.36435 0 3.46962)
(7.95095 0 3.95048)
(8.18047 0 3.82873)
(7.72581 0 4.35367)
(7.98337 0 4.22113)
(7.47971 0 4.79604)
(7.77071 0 4.65164)
(7.20709 0 5.28378)
(7.53897 0 5.12644)
(6.89956 0 5.82487)
(7.28292 0 5.65375)
(6.54416 0 6.42966)
(6.99458 0 6.2447)
(6.12014 0 7.11155)
(6.6612 0 6.9148)
(5.59276 0 7.88769)
(6.26222 0 7.6863)
(4.90051 0 8.77788)
(5.75719 0 8.59267)
(3.92642 0 9.80133)
(5.08681 0 9.6851)
(2.43279 0 10.8561)
(3.97883 0 11.049)
(2.14571 0 12.5674)
(9.98862 0 0.199559)
(9.99567 0 0.135832)
(9.96652 0 0.331255)
(9.98124 0 0.2699)
(9.9342 0 0.464409)
(9.95571 0 0.404463)
(9.89202 0 0.600809)
(9.92017 0 0.541464)
(9.84031 0 0.742053)
(9.87553 0 0.682569)
(9.77933 0 0.889654)
(9.82217 0 0.829323)
(9.70933 0 1.04509)
(9.76029 0 0.983226)
(9.63052 0 1.20983)
(9.69011 0 1.14575)
(9.54309 0 1.38532)
(9.61187 0 1.31835)
(9.44719 0 1.57304)
(9.52579 0 1.50249)
(9.34297 0 1.77449)
(9.43208 0 1.69967)
(9.23054 0 1.99126)
(9.33094 0 1.91141)
(9.10997 0 2.225)
(9.22255 0 2.13935)
(8.98128 0 2.47753)
(9.10706 0 2.38522)
(8.8444 0 2.7508)
(8.98459 0 2.65092)
(8.69915 0 3.04704)
(8.85518 0 2.93855)
(8.54518 0 3.36881)
(8.71881 0 3.25052)
(8.38189 0 3.71914)
(8.57532 0 3.58968)
(8.20831 0 4.10174)
(8.42437 0 3.95943)
(8.02299 0 4.52127)
(8.26537 0 4.36406)
(7.82373 0 4.98378)
(8.09743 0 4.80902)
(7.60726 0 5.4973)
(7.91919 0 5.30156)
(7.36853 0 6.07289)
(7.72864 0 5.85154)
(7.09962 0 6.7262)
(7.52294 0 6.47289)
(6.78736 0 7.48041)
(7.29781 0 7.18619)
(6.4082 0 8.37226)
(7.04779 0 8.02381)
(5.91509 0 9.46615)
(6.76263 0 9.04223)
(5.19543 0 10.9083)
(6.46132 0 10.3571)
(3.88364 0 13.178)
(6.18864 0 12.3035)
(5.25699 0 16.3712)
(0.18402 0 -0.108546)
(0.107981 0 -0.180236)
(0.3577 0 -0.0913329)
(0.26239 0 -0.166091)
(0.498996 0 -0.0688697)
(0.414451 0 -0.131931)
(0.607841 0 -0.0491359)
(0.541008 0 -0.0992304)
(0.689295 0 -0.0334754)
(0.638641 0 -0.072505)
(0.748863 0 -0.0215398)
(0.712297 0 -0.0517714)
(0.791409 0 -0.0126838)
(0.767797 0 -0.0361035)
(0.821046 0 -0.00630132)
(0.809834 0 -0.024556)
(0.841188 0 -0.0018667)
(0.841954 0 -0.0162944)
(0.854592 0 0.0010704)
(0.866896 0 -0.0105872)
(0.863416 0 0.00288343)
(0.886803 0 -0.00680534)
(0.869316 0 0.00386831)
(0.903307 0 -0.00444271)
(0.873553 0 0.00425641)
(0.917623 0 -0.00311488)
(0.877076 0 0.00423484)
(0.930658 0 -0.00252864)
(0.880566 0 0.0039619)
(0.94308 0 -0.00244655)
(0.884448 0 0.00357587)
(0.955356 0 -0.00265635)
(0.88887 0 0.00320213)
(0.967761 0 -0.00295447)
(0.893698 0 0.00295621)
(0.980367 0 -0.00315032)
(0.898539 0 0.00293465)
(0.993044 0 -0.00308359)
(0.9028 0 0.0031927)
(1.00548 0 -0.00265007)
(0.905817 0 0.00371362)
(1.01724 0 -0.00183199)
(0.907053 0 0.00437529)
(1.02784 0 -0.000732836)
(0.906188 0 0.00501099)
(1.03685 0 0.000500811)
(0.903094 0 0.00553834)
(1.04396 0 0.00174855)
(0.897866 0 0.00594909)
(1.04906 0 0.00288529)
(0.890629 0 0.00624104)
(1.0522 0 0.00390004)
(0.881551 0 0.00642069)
(1.05354 0 0.00477604)
(0.870721 0 0.0064084)
(1.05298 0 0.00556316)
(0.858871 0 0.00561927)
(1.05061 0 0.00594367)
(1.04697 0 0.00452534)
(0.170838 0 -0.261265)
(0.0903908 0 -0.347561)
(0.333259 0 -0.226589)
(0.233523 0 -0.321416)
(0.468319 0 -0.177554)
(0.36647 0 -0.258039)
(0.576275 0 -0.133816)
(0.478197 0 -0.19765)
(0.661896 0 -0.0989112)
(0.566166 0 -0.148719)
(0.730016 0 -0.0721596)
(0.635132 0 -0.110975)
(0.7847 0 -0.0521374)
(0.689951 0 -0.0825072)
(0.829247 0 -0.0375005)
(0.734331 0 -0.0614655)
(0.866309 0 -0.027085)
(0.77102 0 -0.0462761)
(0.897963 0 -0.0198926)
(0.802132 0 -0.0355894)
(0.92577 0 -0.0150983)
(0.829292 0 -0.0282505)
(0.950879 0 -0.0120618)
(0.853672 0 -0.0233501)
(0.974143 0 -0.0102995)
(0.876104 0 -0.0202185)
(0.996195 0 -0.00943541)
(0.897193 0 -0.0183591)
(1.0175 0 -0.00915904)
(0.917387 0 -0.0173822)
(1.0384 0 -0.00919737)
(0.937015 0 -0.0169555)
(1.05908 0 -0.00929809)
(0.956307 0 -0.0167739)
(1.07962 0 -0.00922861)
(0.975388 0 -0.0165521)
(1.09997 0 -0.00879823)
(0.994284 0 -0.0160414)
(1.11993 0 -0.00789617)
(1.01292 0 -0.0150693)
(1.13928 0 -0.00652447)
(1.03112 0 -0.0135775)
(1.15763 0 -0.00480384)
(1.04869 0 -0.0116172)
(1.17456 0 -0.00291114)
(1.06536 0 -0.00930043)
(1.18978 0 -0.00100416)
(1.08083 0 -0.00685088)
(1.20322 0 0.000813582)
(1.09502 0 -0.00453132)
(1.21495 0 0.00253848)
(1.10799 0 -0.00242012)
(1.22488 0 0.00415128)
(1.11983 0 -0.000450521)
(1.23272 0 0.00540097)
(1.13062 0 0.00153397)
(1.23879 0 0.00545109)
(1.14014 0 0.00290339)
(1.14988 0 0.00275236)
(0.144605 0 -0.414116)
(0.0706033 0 -0.489193)
(0.277465 0 -0.359755)
(0.190811 0 -0.448471)
(0.385768 0 -0.284551)
(0.291212 0 -0.359163)
(0.471522 0 -0.218003)
(0.375604 0 -0.27583)
(0.539529 0 -0.165171)
(0.440704 0 -0.209255)
(0.593966 0 -0.124739)
(0.491702 0 -0.158287)
(0.638138 0 -0.0944316)
(0.532401 0 -0.119991)
(0.67462 0 -0.0721692)
(0.565456 0 -0.0916923)
(0.705463 0 -0.0561821)
(0.592806 0 -0.0712276)
(0.732282 0 -0.0449497)
(0.616018 0 -0.0567723)
(0.756227 0 -0.0372123)
(0.636327 0 -0.0467172)
(0.778105 0 -0.0320092)
(0.654523 0 -0.0398243)
(0.7985 0 -0.0286368)
(0.671119 0 -0.0352129)
(0.817843 0 -0.0265677)
(0.686484 0 -0.0322451)
(0.83646 0 -0.0253798)
(0.700906 0 -0.0304301)
(0.854585 0 -0.0247067)
(0.714614 0 -0.0293593)
(0.872378 0 -0.024211)
(0.727783 0 -0.0286632)
(0.889915 0 -0.0235847)
(0.740542 0 -0.0279929)
(0.907178 0 -0.0225822)
(0.752958 0 -0.0270376)
(0.924076 0 -0.021066)
(0.765028 0 -0.0255787)
(0.940489 0 -0.0190241)
(0.776697 0 -0.0235446)
(0.956305 0 -0.0165341)
(0.787891 0 -0.020995)
(0.971432 0 -0.0137517)
(0.79854 0 -0.0180576)
(0.985798 0 -0.010928)
(0.808573 0 -0.014971)
(0.99947 0 -0.00827614)
(0.81795 0 -0.0120764)
(1.01264 0 -0.00579925)
(0.826738 0 -0.00951665)
(1.02546 0 -0.0034455)
(0.835063 0 -0.00719342)
(1.038 0 -0.00137343)
(0.843283 0 -0.00490966)
(1.04968 0 0.000148765)
(0.850952 0 -0.00295547)
(0.859514 0 -0.00123503)
(0.115473 0 -0.532902)
(0.0505809 0 -0.602291)
(0.21325 0 -0.457605)
(0.142203 0 -0.541976)
(0.288916 0 -0.359947)
(0.203857 0 -0.429814)
(0.347295 0 -0.275654)
(0.257651 0 -0.329052)
(0.392979 0 -0.209687)
(0.296004 0 -0.249919)
(0.429239 0 -0.159577)
(0.325473 0 -0.189801)
(0.458422 0 -0.122138)
(0.348405 0 -0.144755)
(0.482212 0 -0.0946557)
(0.366306 0 -0.111403)
(0.501987 0 -0.0749198)
(0.38022 0 -0.0872254)
(0.518909 0 -0.0610034)
(0.391201 0 -0.0701385)
(0.533695 0 -0.0512972)
(0.400192 0 -0.0581198)
(0.54678 0 -0.0446185)
(0.407563 0 -0.0496779)
(0.558479 0 -0.0401217)
(0.413532 0 -0.0438135)
(0.569038 0 -0.0371837)
(0.418264 0 -0.0398254)
(0.578666 0 -0.0353132)
(0.421929 0 -0.0371785)
(0.587542 0 -0.0340903)
(0.424695 0 -0.0354334)
(0.595818 0 -0.0331299)
(0.426734 0 -0.0341926)
(0.603602 0 -0.0320767)
(0.428225 0 -0.0330716)
(0.610938 0 -0.0306422)
(0.429324 0 -0.0317105)
(0.617808 0 -0.0286681)
(0.430117 0 -0.0298514)
(0.624197 0 -0.0261466)
(0.430628 0 -0.0274244)
(0.630126 0 -0.0231646)
(0.430845 0 -0.0245098)
(0.63556 0 -0.0198973)
(0.430719 0 -0.0212038)
(0.640416 0 -0.0166645)
(0.43018 0 -0.0177159)
(0.644821 0 -0.0137252)
(0.429177 0 -0.0145073)
(0.648997 0 -0.0110371)
(0.427507 0 -0.0117669)
(0.652888 0 -0.00857538)
(0.425198 0 -0.00924026)
(0.65619 0 -0.00665549)
(0.42323 0 -0.00660629)
(0.659237 0 -0.00485599)
(0.419402 0 -0.00448348)
(0.412491 0 -0.00193176)
(0.0814195 0 -0.619185)
(0.0293771 0 -0.682036)
(0.139961 0 -0.522321)
(0.0869278 0 -0.597959)
(0.179682 0 -0.406785)
(0.105157 0 -0.466902)
(0.208013 0 -0.310342)
(0.126667 0 -0.35488)
(0.228706 0 -0.236008)
(0.135643 0 -0.268339)
(0.243973 0 -0.17993)
(0.140974 0 -0.20307)
(0.255104 0 -0.138048)
(0.14305 0 -0.1542)
(0.262843 0 -0.107201)
(0.142434 0 -0.117816)
(0.267932 0 -0.0850324)
(0.139336 0 -0.0913416)
(0.27126 0 -0.0693216)
(0.134495 0 -0.0727672)
(0.273083 0 -0.0581083)
(0.128634 0 -0.0595258)
(0.273521 0 -0.0501097)
(0.121713 0 -0.0500078)
(0.272662 0 -0.0444538)
(0.113857 0 -0.043182)
(0.270637 0 -0.0405067)
(0.105117 0 -0.0383715)
(0.267597 0 -0.037773)
(0.0956282 0 -0.0350478)
(0.263725 0 -0.0358366)
(0.0855535 0 -0.0327836)
(0.259231 0 -0.034314)
(0.0751019 0 -0.0311897)
(0.25431 0 -0.03283)
(0.064513 0 -0.0298612)
(0.249076 0 -0.0310508)
(0.0539592 0 -0.0283769)
(0.243537 0 -0.0287763)
(0.0434596 0 -0.026406)
(0.237686 0 -0.025989)
(0.0329163 0 -0.0238717)
(0.2316 0 -0.0227648)
(0.0221752 0 -0.020901)
(0.225266 0 -0.0192503)
(0.0110799 0 -0.0175375)
(0.218462 0 -0.0158538)
(-0.000373134 0 -0.0138699)
(0.211258 0 -0.0131498)
(-0.0121755 0 -0.0105315)
(0.203897 0 -0.0109886)
(-0.0259087 0 -0.00780031)
(0.195971 0 -0.00822792)
(-0.0412878 0 -0.0050701)
(0.185574 0 -0.00443455)
(-0.0548142 0 -0.00126548)
(0.171732 0 -0.00094875)
(-0.0661153 0 0.00245891)
(-0.0783025 0 0.00336838)
(0.0421037 0 -0.668053)
(0.00578847 0 -0.723274)
(0.0571564 0 -0.549748)
(0.02355 0 -0.612354)
(0.0587002 0 -0.421122)
(-0.00397563 0 -0.468344)
(0.0553711 0 -0.317552)
(-0.0173867 0 -0.351845)
(0.0485454 0 -0.238615)
(-0.0399428 0 -0.262263)
(0.0396978 0 -0.179456)
(-0.0618669 0 -0.195381)
(0.0293557 0 -0.13523)
(-0.0839596 0 -0.145423)
(0.0176875 0 -0.102502)
(-0.106097 0 -0.108148)
(0.00486572 0 -0.0789276)
(-0.12856 0 -0.0809692)
(-0.00923593 0 -0.0624221)
(-0.150959 0 -0.0616288)
(-0.0238027 0 -0.0507903)
(-0.172901 0 -0.0482918)
(-0.0388834 0 -0.0423566)
(-0.194418 0 -0.0386521)
(-0.054481 0 -0.0362892)
(-0.215436 0 -0.0317144)
(-0.0704992 0 -0.0320332)
(-0.236064 0 -0.0268729)
(-0.0867797 0 -0.0291424)
(-0.256343 0 -0.0236369)
(-0.10311 0 -0.027233)
(-0.276307 0 -0.021608)
(-0.119263 0 -0.0259112)
(-0.295927 0 -0.020397)
(-0.13509 0 -0.0247345)
(-0.31512 0 -0.0195354)
(-0.150628 0 -0.0232668)
(-0.333884 0 -0.0184796)
(-0.166141 0 -0.021251)
(-0.352407 0 -0.0167579)
(-0.181922 0 -0.0187324)
(-0.371064 0 -0.0142887)
(-0.198046 0 -0.0158219)
(-0.390585 0 -0.0113407)
(-0.214498 0 -0.0123794)
(-0.411065 0 -0.00801345)
(-0.231467 0 -0.00828807)
(-0.431051 0 -0.00427843)
(-0.250226 0 -0.00406681)
(-0.449258 0 -0.000178756)
(-0.270946 0 -0.000456701)
(-0.466224 0 0.00336482)
(-0.291098 0 0.00276096)
(-0.483046 0 0.00553219)
(-0.307103 0 0.0055427)
(-0.498024 0 0.00695654)
(-0.317459 0 0.00626343)
(-0.508404 0 0.00765277)
(-0.514247 0 0.00678508)
(-0.00597202 0 -0.672757)
(-0.0227479 0 -0.717425)
(-0.0355135 0 -0.534868)
(-0.0501736 0 -0.584104)
(-0.0731482 0 -0.399593)
(-0.123413 0 -0.433203)
(-0.111439 0 -0.294936)
(-0.176246 0 -0.316937)
(-0.149231 0 -0.216217)
(-0.232287 0 -0.228623)
(-0.185576 0 -0.157992)
(-0.283901 0 -0.163793)
(-0.220234 0 -0.114808)
(-0.331259 0 -0.116013)
(-0.253443 0 -0.0831467)
(-0.37443 0 -0.0806333)
(-0.285303 0 -0.0606338)
(-0.414325 0 -0.0551953)
(-0.31555 0 -0.0450646)
(-0.451756 0 -0.0377378)
(-0.344346 0 -0.0341975)
(-0.487454 0 -0.0260842)
(-0.371666 0 -0.0263963)
(-0.520726 0 -0.0180803)
(-0.39759 0 -0.0209357)
(-0.550944 0 -0.0126544)
(-0.422301 0 -0.0173459)
(-0.578808 0 -0.0091341)
(-0.446042 0 -0.0151879)
(-0.604941 0 -0.00699739)
(-0.469022 0 -0.0140605)
(-0.629919 0 -0.00588163)
(-0.491374 0 -0.0135117)
(-0.654144 0 -0.0054618)
(-0.513205 0 -0.0129596)
(-0.677824 0 -0.00529271)
(-0.534729 0 -0.0117474)
(-0.701031 0 -0.00476951)
(-0.556416 0 -0.0093978)
(-0.723758 0 -0.00326963)
(-0.579138 0 -0.00599725)
(-0.745925 0 -0.000490388)
(-0.603274 0 -0.00224427)
(-0.767536 0 0.00296958)
(-0.627353 0 0.00121308)
(-0.788596 0 0.00592615)
(-0.648889 0 0.00427735)
(-0.808234 0 0.00789424)
(-0.665827 0 0.006837)
(-0.825089 0 0.00916937)
(-0.678561 0 0.00849345)
(-0.838126 0 0.0102264)
(-0.689225 0 0.00927509)
(-0.848908 0 0.011143)
(-0.69871 0 0.00946014)
(-0.85867 0 0.0118288)
(-0.706847 0 0.00890999)
(-0.866805 0 0.0117342)
(-0.871356 0 0.0106492)
(-0.0564365 0 -0.627763)
(-0.0585894 0 -0.662149)
(-0.137294 0 -0.478044)
(-0.135383 0 -0.506779)
(-0.217981 0 -0.344511)
(-0.257506 0 -0.357865)
(-0.294896 0 -0.244232)
(-0.3547 0 -0.246816)
(-0.36573 0 -0.17069)
(-0.446869 0 -0.165571)
(-0.429525 0 -0.11782)
(-0.529967 0 -0.108348)
(-0.486011 0 -0.0793284)
(-0.603741 0 -0.0680796)
(-0.536298 0 -0.0509185)
(-0.668153 0 -0.0389684)
(-0.581949 0 -0.0304354)
(-0.721906 0 -0.0182651)
(-0.624525 0 -0.016504)
(-0.767755 0 -0.00410794)
(-0.66422 0 -0.00773985)
(-0.807806 0 0.00452918)
(-0.700181 0 -0.00261771)
(-0.843378 0 0.00899815)
(-0.7323 0 0.000320174)
(-0.875136 0 0.0109599)
(-0.761478 0 0.00200798)
(-0.903953 0 0.0118112)
(-0.788722 0 0.00289922)
(-0.930619 0 0.0120974)
(-0.814825 0 0.00325201)
(-0.955767 0 0.0119816)
(-0.840268 0 0.00332793)
(-0.979781 0 0.0115391)
(-0.865214 0 0.00351174)
(-1.00282 0 0.0109814)
(-0.88951 0 0.0042653)
(-1.02493 0 0.0107073)
(-0.912666 0 0.00589735)
(-1.04611 0 0.0111318)
(-0.933832 0 0.0082173)
(-1.06621 0 0.0123628)
(-0.952523 0 0.0104854)
(-1.08482 0 0.0140516)
(-0.969232 0 0.0120265)
(-1.10186 0 0.0155992)
(-0.984334 0 0.0127981)
(-1.1176 0 0.0164306)
(-0.997575 0 0.0132102)
(-1.13155 0 0.0164765)
(-1.00869 0 0.0136131)
(-1.14326 0 0.0162147)
(-1.01798 0 0.0139621)
(-1.15299 0 0.016033)
(-1.02592 0 0.0138589)
(-1.16141 0 0.0159048)
(-1.03309 0 0.0130836)
(-1.16833 0 0.0153309)