/*--------------------------------*- C++ -*----------------------------------*\
  =========                 |
  \\      /  F ield         | OpenFOAM: The Open Source CFD Toolbox
   \\    /   O peration     | Website:  https://openfoam.org
    \\  /    A nd           | Version:  dev
     \\/     M anipulation  |
\*---------------------------------------------------------------------------*/
FoamFile
{
    version     2.0;
    format      ascii;
    class       volScalarField;
    location    "1.7";
    object      p;
}
// * * * * * * * * * * * * * * * * * * * * * * * * * * * * * * * * * * * * * //

dimensions      [0 2 -2 0 0 0 0];

internalField   nonuniform List<scalar> 
2790
(
148.751
148.658
148.926
149.499
150.28
151.24
152.374
153.683
155.162
156.805
158.607
160.561
162.657
164.884
167.226
169.663
172.169
174.709
177.241
179.716
182.074
184.252
186.182
187.802
189.061
189.935
190.372
190.428
190.479
190.691
148.548
148.566
148.859
149.428
150.206
151.162
152.292
153.595
155.067
156.702
158.494
160.437
162.523
164.738
167.07
169.497
171.994
174.529
177.059
179.538
181.907
184.102
186.056
187.704
188.988
189.862
190.26
190.316
190.448
190.731
148.349
148.437
148.749
149.308
150.073
151.016
152.131
153.416
154.866
156.477
158.241
160.153
162.203
164.381
166.671
169.055
171.508
174
176.493
178.941
181.291
183.484
185.456
187.146
188.496
189.472
190.065
190.42
190.734
191.032
148.124
148.242
148.567
149.118
149.868
150.795
151.89
153.151
154.572
156.149
157.875
159.743
161.744
163.867
166.097
168.417
170.803
173.227
175.655
178.047
180.354
182.526
184.508
186.247
187.702
188.853
189.721
190.391
190.943
191.461
147.862
147.995
148.328
148.871
149.605
150.511
151.581
152.81
154.194
155.728
157.405
159.217
161.155
163.208
165.362
167.599
169.899
172.236
174.578
176.892
179.138
181.274
183.256
185.047
186.617
187.959
189.089
190.05
190.86
191.607
147.561
147.699
148.035
148.568
149.282
150.162
151.2
152.391
153.731
155.213
156.831
158.576
160.44
162.41
164.474
166.614
168.811
171.041
173.28
175.496
177.66
179.738
181.7
183.521
185.184
186.685
188.031
189.236
190.255
191.172
147.218
147.357
147.69
148.21
148.901
149.75
150.752
151.899
153.188
154.61
156.16
157.829
159.606
161.482
163.441
165.469
167.547
169.655
171.77
173.867
175.923
177.915
179.824
181.634
183.34
184.941
186.434
187.812
188.976
190.022
146.832
146.97
147.295
147.799
148.464
149.279
150.239
151.337
152.567
153.923
155.396
156.979
158.66
160.429
162.272
164.173
166.117
168.083
170.053
172.007
173.926
175.794
177.602
179.345
181.024
182.643
184.198
185.669
186.918
188.069
146.405
146.539
146.853
147.337
147.974
148.752
149.665
150.708
151.874
153.156
154.545
156.032
157.608
159.259
160.973
162.734
164.526
166.332
168.134
169.915
171.661
173.36
175.01
176.611
178.174
179.709
181.217
182.687
183.958
185.196
145.937
146.066
146.367
146.829
147.433
148.17
149.033
150.017
151.113
152.315
153.612
154.997
156.457
157.98
159.553
161.16
162.785
164.41
166.019
167.596
169.126
170.603
172.023
173.393
174.727
176.046
177.367
178.705
179.905
181.209
145.431
145.553
145.839
146.276
146.846
147.538
148.348
149.267
150.289
151.405
152.605
153.879
155.216
156.602
158.023
159.463
160.904
162.328
163.718
165.057
166.328
167.521
168.631
169.661
170.627
171.558
172.489
173.488
174.45
175.768
144.888
145.002
145.272
145.681
146.214
146.86
147.612
148.463
149.406
150.432
151.529
152.687
153.894
155.134
156.394
157.654
158.896
160.101
161.247
162.314
163.279
164.126
164.838
165.408
165.837
166.15
166.394
166.703
167.085
168.258
144.309
144.416
144.667
145.048
145.542
146.138
146.83
147.611
148.472
149.402
150.392
151.429
152.499
153.588
154.677
155.748
156.779
157.748
158.628
159.392
160.01
160.45
160.677
160.657
160.359
159.766
158.894
157.904
156.956
157.46
143.699
143.797
144.029
144.379
144.832
145.377
146.007
146.714
147.49
148.323
149.202
150.114
151.043
151.974
152.887
153.761
154.571
155.29
155.887
156.325
156.561
156.545
156.214
155.489
154.273
152.451
149.894
146.596
142.648
140.608
143.058
143.148
143.359
143.678
144.088
144.58
145.147
145.779
146.467
147.2
147.966
148.75
149.535
150.305
151.038
151.71
152.293
152.755
153.058
153.155
152.989
152.488
151.552
150.047
147.779
144.458
139.625
132.617
122.153
109.911
4.37767
4.2959
4.0739
3.77136
3.439
3.09739
2.75457
2.41741
2.09317
1.78827
1.50737
1.25356
1.03249
0.853443
0.716586
0.617599
0.556741
0.527815
0.520693
0.525399
0.539538
0.565496
0.602384
0.64404
0.683033
0.711777
0.719248
0.683729
0.552623
0.285695
4.19807
4.10868
3.90889
3.63519
3.32702
3.00392
2.67582
2.35075
2.03647
1.73991
1.46587
1.21659
0.997283
0.817016
0.674697
0.584118
0.53616
0.522282
0.523292
0.529258
0.541814
0.565716
0.601369
0.642418
0.682095
0.715715
0.730474
0.690696
0.552816
0.282277
4.0558
3.95977
3.77379
3.52079
3.23276
2.92588
2.61079
2.29621
1.99047
1.70191
1.43586
1.18565
0.964928
0.812932
0.686091
0.580996
0.523071
0.506908
0.509148
0.518005
0.531751
0.554582
0.5886
0.627371
0.665678
0.699778
0.709511
0.664876
0.521463
0.253714
3.97218
3.86829
3.69021
3.44983
3.17688
2.88322
2.57943
2.27393
1.97464
1.69232
1.44465
1.2302
0.986786
0.803525
0.678972
0.585169
0.526955
0.501917
0.494475
0.494798
0.501105
0.516574
0.5424
0.574658
0.609817
0.640445
0.646636
0.603837
0.470801
0.207586
3.98367
3.8705
3.69816
3.4618
3.19734
2.91165
2.61626
2.31993
2.03052
1.75531
1.49787
1.26458
1.0475
0.864092
0.72147
0.614238
0.540177
0.494475
0.466724
0.449596
0.441484
0.444365
0.458937
0.482557
0.511842
0.535503
0.540685
0.505964
0.392734
0.160465
4.10099
3.97514
3.79622
3.55969
3.29268
3.00686
2.71303
2.41854
2.12997
1.85022
1.58588
1.34412
1.1242
0.933121
0.774146
0.6463
0.547923
0.474829
0.420313
0.379575
0.351602
0.337746
0.338504
0.351766
0.373907
0.394067
0.402478
0.380075
0.293052
0.112754
4.30409
4.15891
3.96203
3.71267
3.43431
3.1401
2.84062
2.54139
2.24527
1.96044
1.69176
1.44137
1.21103
1.00493
0.82521
0.671857
0.544012
0.439089
0.35338
0.284476
0.232391
0.198527
0.183525
0.185777
0.201887
0.222163
0.239159
0.233659
0.178944
0.0649791
4.53323
4.36171
4.13955
3.87182
3.57945
3.27813
2.96998
2.66469
2.3663
2.07718
1.80137
1.54064
1.29659
1.07173
0.867797
0.685446
0.524757
0.384963
0.264975
0.164687
0.0854923
0.0294387
-0.00228745
-0.0106418
-0.000263565
0.0262646
0.0570313
0.0730933
0.0566957
0.0174462
4.7179
4.52269
4.28843
4.00958
3.70955
3.39903
3.0882
2.77978
2.47808
2.18504
1.90242
1.6312
1.37231
1.12722
0.897394
0.684108
0.488585
0.311953
0.155584
0.0216902
-0.0866247
-0.166169
-0.214874
-0.232733
-0.222714
-0.187383
-0.138695
-0.0964221
-0.0692195
-0.0297214
4.85369
4.65168
4.399
4.10904
3.80132
3.48694
3.17501
2.86814
2.5676
2.27384
1.98697
1.70691
1.43383
1.16854
0.912437
0.667438
0.436038
0.221315
0.0270665
-0.142084
-0.280984
-0.384825
-0.450262
-0.476085
-0.463402
-0.415059
-0.344118
-0.271009
-0.195983
-0.0763724
4.91216
4.69288
4.42763
4.13086
3.82483
3.51869
3.21698
2.92033
2.62795
2.33876
2.05169
1.76572
1.48031
1.19588
0.91395
0.637163
0.369372
0.115655
-0.117721
-0.323564
-0.494338
-0.623152
-0.704965
-0.737146
-0.719236
-0.654138
-0.556515
-0.447996
-0.32191
-0.122264
4.81592
4.58406
4.32802
4.04962
3.76755
3.48728
3.21031
2.93495
2.65889
2.38036
2.09771
1.80927
1.51396
1.21196
0.905069
0.596739
0.292222
-0.00136661
-0.2752
-0.519295
-0.723391
-0.87807
-0.976169
-1.01347
-0.988214
-0.903083
-0.774271
-0.625694
-0.445954
-0.167161
4.52686
4.29427
4.08188
3.8602
3.63186
3.39848
3.16192
2.919
2.66668
2.40408
2.13
1.84236
1.5395
1.22153
0.890601
0.551026
0.209417
-0.125096
-0.441029
-0.725363
-0.964756
-1.14681
-1.26176
-1.30358
-1.26951
-1.16156
-0.996939
-0.803279
-0.56745
-0.210819
3.98499
3.77031
3.67682
3.5778
3.43888
3.27142
3.08894
2.88729
2.66303
2.41921
2.15649
1.87212
1.56357
1.23087
0.876682
0.506077
0.126857
-0.249958
-0.610188
-0.937508
-1.2151
-1.42708
-1.5604
-1.60702
-1.56344
-1.43049
-1.22527
-0.980605
-0.685797
-0.2529
3.06583
2.8924
3.10074
3.25044
3.23304
3.1362
3.01615
2.86085
2.66297
2.43679
2.18647
1.90692
1.59367
1.24687
0.869875
0.468319
0.0508272
-0.369954
-0.777185
-1.15099
-1.47068
-1.71646
-1.87107
-1.92395
-1.87123
-1.7118
-1.46098
-1.15783
-0.800065
-0.293049
142.377
142.458
142.647
142.933
143.3
143.737
144.237
144.792
145.39
146.02
146.669
147.321
147.959
148.563
149.111
149.575
149.925
150.123
150.124
149.872
149.295
148.296
146.744
144.444
141.097
136.208
128.856
117.122
94.9613
35.0356
141.648
141.719
141.886
142.137
142.458
142.838
143.269
143.743
144.248
144.771
145.299
145.816
146.302
146.737
147.095
147.348
147.461
147.392
147.089
146.489
145.506
144.028
141.897
138.882
134.626
128.546
119.611
106.094
86.6434
58.364
140.876
140.938
141.081
141.296
141.57
141.891
142.251
142.642
143.052
143.466
143.872
144.25
144.583
144.847
145.015
145.057
144.935
144.603
144.006
143.074
141.716
139.811
137.195
133.641
128.824
122.292
113.463
101.709
87.6092
71.2411
140.063
140.115
140.234
140.413
140.637
140.898
141.187
141.494
141.806
142.111
142.393
142.634
142.814
142.908
142.889
142.724
142.374
141.792
140.919
139.685
137.998
135.74
132.762
128.869
123.815
117.312
109.07
98.7669
86.3532
71.4055
139.211
139.252
139.347
139.488
139.663
139.863
140.08
140.302
140.517
140.713
140.872
140.976
141.005
140.933
140.733
140.37
139.805
138.991
137.87
136.372
134.412
131.884
128.661
124.587
119.485
113.158
105.411
96.0056
84.7813
71.9489
138.321
138.352
138.423
138.526
138.651
138.79
138.934
139.072
139.191
139.278
139.316
139.287
139.17
138.939
138.566
138.017
137.254
136.23
134.892
133.174
131
128.28
124.909
120.771
115.735
109.671
102.458
94.0003
84.2933
73.7512
137.398
137.418
137.463
137.529
137.605
137.683
137.755
137.809
137.834
137.815
137.736
137.578
137.32
136.938
136.404
135.685
134.743
133.537
132.015
130.121
127.79
124.946
121.51
117.394
112.514
106.792
100.176
92.656
84.2784
75.3778
136.442
136.452
136.473
136.501
136.528
136.547
136.548
136.521
136.453
136.332
136.14
135.859
135.469
134.947
134.264
133.392
132.294
130.932
129.262
127.235
124.796
121.888
118.451
114.426
109.76
104.416
98.3794
91.6722
84.3449
76.6676
135.459
135.459
135.456
135.447
135.426
135.386
135.319
135.213
135.057
134.837
134.538
134.142
133.63
132.978
132.162
131.154
129.923
128.433
126.648
124.526
122.025
119.101
115.713
111.822
107.4
102.434
96.9289
90.9201
84.4609
77.7771
134.453
134.442
134.416
134.371
134.304
134.207
134.073
133.892
133.651
133.339
132.94
132.437
131.812
131.044
130.111
128.987
127.644
126.053
124.183
122.001
119.475
116.573
113.268
109.538
105.37
100.767
95.745
90.3439
84.6165
78.7459
133.427
133.407
133.358
133.279
133.167
133.016
132.819
132.566
132.245
131.846
131.354
130.754
130.028
129.158
128.122
126.9
125.468
123.8
121.872
119.66
117.138
114.286
111.088
107.532
103.618
99.3559
94.7682
89.8942
84.7814
79.5769
132.387
132.358
132.287
132.175
132.02
131.818
131.561
131.241
130.847
130.368
129.791
129.103
128.287
127.328
126.206
124.904
123.402
121.68
119.718
117.498
115.004
112.222
109.145
105.768
102.099
98.1517
93.9504
89.5315
84.9362
80.2829
131.339
131.3
131.209
131.066
130.871
130.621
130.308
129.925
129.463
128.912
128.259
127.492
126.598
125.563
124.37
123.005
121.451
119.693
117.717
115.51
113.06
110.362
107.412
104.213
100.775
97.1146
93.2553
89.2295
85.0724
80.8796
130.287
130.24
130.13
129.957
129.725
129.43
129.066
128.626
128.102
127.485
126.765
125.93
124.969
123.87
122.62
121.207
119.617
117.841
115.866
113.686
111.293
108.686
105.865
102.838
99.6153
96.2138
92.6561
88.9702
85.186
81.3807
129.239
129.184
129.056
128.856
128.589
128.253
127.842
127.351
126.771
126.096
125.317
124.423
123.406
122.256
120.961
119.513
117.902
116.12
114.16
112.017
109.689
107.176
104.484
101.619
98.5936
95.4248
92.1327
88.7412
85.2754
81.7984
128.2
128.138
127.993
127.769
127.47
127.097
126.644
126.106
125.477
124.752
123.921
122.978
121.915
120.724
119.396
117.925
116.304
114.527
112.591
110.493
108.234
105.817
103.247
100.534
97.6894
94.7286
91.6699
88.5337
85.3411
82.1436
127.177
127.109
126.949
126.702
126.375
125.968
125.477
124.899
124.227
123.458
122.584
121.601
120.501
119.278
117.927
116.443
114.821
113.058
111.153
109.105
106.917
104.593
102.14
99.567
96.8859
94.1104
91.2567
88.3421
85.3845
82.4262
126.177
126.104
125.93
125.663
125.311
124.874
124.35
123.736
123.028
122.221
121.312
120.295
119.167
117.922
116.556
115.067
113.452
111.709
109.839
107.844
105.726
103.492
101.148
98.7035
96.1696
93.5586
90.8847
88.1628
85.4078
82.6548
125.208
125.129
124.944
124.659
124.284
123.821
123.269
122.624
121.884
121.047
120.109
119.066
117.916
116.656
115.283
113.796
112.193
110.475
108.643
106.701
104.652
102.503
100.26
97.9319
95.5297
93.0644
90.548
87.9935
85.4136
82.8372
124.277
124.193
123.997
123.697
123.303
122.817
122.24
121.569
120.804
119.941
118.98
117.918
116.753
115.483
114.109
112.628
111.041
109.351
107.559
105.669
103.686
101.615
99.4648
97.2426
94.9579
92.621
90.2425
87.8334
85.4047
82.9805
123.391
123.304
123.099
122.784
122.373
121.868
121.271
120.578
119.792
118.909
117.93
116.853
115.679
114.405
113.033
111.562
109.995
108.334
106.581
104.742
102.82
100.823
98.756
96.6282
94.4477
92.2236
89.9653
87.6823
85.3841
83.0908
122.559
122.468
122.255
121.929
121.503
120.982
120.367
119.657
118.853
117.955
116.963
115.876
114.696
113.422
112.056
110.598
109.052
107.42
105.706
103.914
102.049
100.118
98.1269
96.0831
93.9943
91.8688
89.7149
87.5409
85.3551
83.1742
121.788
121.694
121.474
121.138
120.7
120.165
119.536
118.812
117.994
117.085
116.083
114.99
113.808
112.536
111.178
109.735
108.21
106.607
104.929
103.181
101.368
99.4967
97.5726
95.6026
93.594
91.5541
89.4902
87.4099
85.3202
83.2354
121.087
120.99
120.764
120.419
119.971
119.425
118.784
118.049
117.221
116.302
115.294
114.198
113.016
111.75
110.401
108.973
107.469
105.893
104.248
102.541
100.774
98.9556
97.0902
95.1846
93.2452
91.2788
89.292
87.2915
85.2837
83.2804
120.464
120.365
120.133
119.78
119.323
118.768
118.118
117.374
116.538
115.613
114.601
113.504
112.324
111.063
109.725
108.312
106.827
105.276
103.662
101.989
100.264
98.491
96.6763
94.8257
92.9453
91.0411
89.1193
87.1859
85.2465
83.3113
119.929
119.827
119.589
119.229
118.764
118.202
117.545
116.794
115.953
115.024
114.01
112.913
111.736
110.482
109.153
107.754
106.287
104.758
103.17
101.529
99.8383
98.1044
96.3325
94.5281
92.6969
90.8445
88.9766
87.0987
85.2161
83.3373
119.491
119.386
119.14
118.773
118.301
117.732
117.069
116.313
115.468
114.537
113.522
112.426
111.253
110.004
108.685
107.298
105.847
104.337
102.771
101.155
99.4932
97.7911
96.0538
94.2867
92.4949
90.6839
88.8589
87.025
85.187
83.3519
119.163
119.052
118.797
118.423
117.946
117.373
116.705
115.946
115.098
114.165
113.15
112.056
110.885
109.643
108.331
106.954
105.516
104.021
102.473
100.877
99.238
97.561
95.8508
94.1127
92.3517
90.5728
88.7811
86.9814
85.1784
83.3784
118.96
118.824
118.553
118.173
117.694
117.118
116.447
115.686
114.837
113.904
112.889
111.797
110.63
109.391
108.086
106.716
105.287
103.802
102.267
100.685
99.0613
97.4011
95.7091
93.9902
92.2495
90.4917
88.7216
86.944
85.1631
83.3841
118.941
118.741
118.442
118.055
117.573
116.994
116.32
115.557
114.707
113.774
112.76
111.669
110.505
109.27
107.968
106.604
105.182
103.705
102.178
100.605
98.9917
97.3425
95.6621
93.9555
92.2275
90.4829
88.7262
86.9621
85.1948
83.4287
-49.4234
-29.3877
-9.58128
38.3112
31.3593
20.2926
54.118
42.3523
31.5443
55.3622
45.1111
37.2539
59.5715
51.4189
44.7956
63.8584
57.0555
51.2604
67.0207
61.2161
56.2334
69.506
64.5359
60.2726
71.5907
67.2969
63.6188
73.3415
69.5883
66.3808
74.8049
71.4902
68.6642
76.0303
73.0755
70.5614
77.058
74.4017
72.1449
77.9199
75.5134
73.471
78.6421
76.4467
74.5845
79.2464
77.2306
75.5212
79.7507
77.8886
76.3096
80.1698
78.44
76.9726
80.5165
78.9009
77.5294
80.8016
79.2848
77.9958
81.0343
79.6029
78.3849
81.2233
79.8655
78.7084
81.3749
80.0803
78.9753
81.4971
80.2564
79.1955
81.5924
80.397
79.3732
81.6726
80.5146
79.5208
81.7288
80.6008
79.6318
81.79
80.6848
79.7331
81.8161
80.7272
79.7895
81.8818
80.8071
79.8759
0.501044
0.785704
2.15525
2.99201
3.09951
3.02443
2.96812
2.86453
2.6817
2.46745
2.23003
1.9565
1.63854
1.27732
0.877495
0.444756
-0.0120829
-0.47923
-0.937444
-1.36319
-1.73146
-2.01776
-2.19914
-2.26169
-2.20114
-2.014
-1.71178
-1.33964
-0.911978
-0.331851
6.89884
3.58818
3.91546
3.67699
3.0361
2.81752
2.93792
2.9389
2.73486
2.51922
2.29691
2.03106
1.70677
1.32978
0.907027
0.443078
-0.0541659
-0.570437
-1.08457
-1.56941
-1.99466
-2.33028
-2.54675
-2.62538
-2.56094
-2.34597
-1.98586
-1.53101
-1.02162
-0.369114
17.5507
9.09295
6.04595
4.33203
3.68455
3.55114
3.48673
3.15518
2.76087
2.55274
2.38414
2.13754
1.8034
1.4085
0.96385
0.469897
-0.0675986
-0.63425
-1.20728
-1.75642
-2.24622
-2.64342
-2.91071
-3.01398
-2.94939
-2.70648
-2.28674
-1.73335
-1.12332
-0.404079
26.7371
17.0384
11.3361
7.77634
5.73108
4.57294
3.87509
3.41124
3.15426
2.93466
2.65637
2.3058
1.91591
1.50211
1.04453
0.525943
-0.0491077
-0.664074
-1.2951
-1.91208
-2.47275
-2.93916
-3.26039
-3.39932
-3.36464
-3.12659
-2.65889
-1.95301
-1.21886
-0.437516
35.6279
26.0326
18.8322
13.5841
9.89836
7.37208
5.67806
4.57359
3.863
3.34106
2.92229
2.55533
2.17617
1.73391
1.21492
0.632386
0.00158889
-0.666506
-1.35545
-2.03561
-2.66352
-3.19417
-3.57733
-3.77467
-3.7756
-3.50701
-2.8693
-2.12851
-1.33423
-0.47362
43.38
34.5706
26.7768
20.4119
15.5174
11.8543
9.14949
7.16712
5.70936
4.61814
3.78925
3.1327
2.55917
2.00057
1.41969
0.796812
0.120579
-0.607616
-1.36716
-2.11939
-2.81585
-3.4089
-3.85029
-4.09588
-4.10675
-3.82348
-3.22923
-2.44752
-1.47896
-0.498039
49.6778
41.9545
34.261
27.4375
21.8404
17.3592
13.7947
10.9773
8.76251
7.02086
5.63926
4.51739
3.56741
2.71948
1.92283
1.14035
0.346184
-0.471287
-1.30481
-2.1271
-2.89582
-3.56188
-4.07026
-4.36305
-4.38759
-4.09684
-3.48232
-2.61949
-1.59237
-0.593232
54.7977
48.1206
40.9217
34.1379
28.2722
23.3122
19.1371
15.6518
12.7694
10.3952
8.43254
6.79142
5.39081
4.16097
3.0453
2.00021
0.994373
0.00998638
-0.954186
-1.88099
-2.73699
-3.47731
-4.04821
-4.39207
-4.45648
-4.19927
-3.61039
-2.74337
-1.70171
-0.763876
58.9672
53.1818
46.6317
40.1827
34.3691
29.2378
24.7253
20.7912
17.3977
14.4895
11.9992
9.85712
7.99575
6.35285
4.87445
3.5167
2.24663
1.04367
-0.0978003
-1.16682
-2.13684
-2.9689
-3.61492
-4.02268
-4.14389
-3.94398
-3.42229
-2.63632
-1.71109
-0.961145
62.3612
57.308
51.4198
45.441
39.8769
34.8011
30.1827
26.0144
22.2929
18.9968
16.0877
13.5187
11.2405
9.20423
7.36472
5.68331
4.12959
2.68347
1.33759
0.0987992
-1.0121
-1.96255
-2.71146
-3.21445
-3.43204
-3.34117
-2.95231
-2.32948
-1.60738
-1.09328
65.1404
60.6831
55.4023
49.9251
44.7056
39.8232
35.2627
31.0328
27.1506
23.6177
20.4185
17.5272
14.9125
12.5405
10.378
8.39482
6.56621
4.87529
3.31516
1.89038
0.617129
-0.478335
-1.36275
-2.00098
-2.36388
-2.43915
-2.24579
-1.85075
-1.38312
-1.11664
67.4351
63.4648
58.7149
53.7154
48.8675
44.2464
39.8425
35.6702
31.7559
28.1145
24.7461
21.6407
18.7822
16.1507
13.7248
11.4836
9.40964
7.49071
5.72186
4.10681
2.65829
1.39686
0.348241
-0.461363
-1.01222
-1.30049
-1.35
-1.22485
-1.03717
-1.01645
69.3432
65.7746
61.4794
56.9115
52.4247
48.0868
43.8889
39.8456
35.9858
32.331
28.8905
25.6652
22.65
19.836
17.212
14.7659
12.4872
10.3686
8.40796
6.60895
4.98192
3.54276
2.31074
1.30452
0.536376
0.00447377
-0.316037
-0.48165
-0.583015
-0.8032
70.9382
67.7046
63.797
59.6095
55.4564
51.3973
47.4224
43.5441
39.7904
36.1849
32.742
29.4689
26.3681
23.4387
20.6769
18.0781
15.6375
13.3525
11.2233
9.2544
7.45436
5.83557
4.41223
3.19721
2.19745
1.40808
0.805981
0.344463
-0.0460388
-0.50452
72.277
69.3249
65.7481
61.8927
58.0399
54.2425
50.489
46.7888
43.1675
39.6486
36.2486
32.9782
29.8445
26.8519
24.0021
21.2956
18.7324
16.3134
14.0411
11.9205
9.95921
8.16701
6.55436
5.13
3.8974
2.85051
1.96939
1.21711
0.542081
-0.155662
73.4037
70.6899
67.3962
63.8296
60.2439
56.6856
53.1422
49.6199
46.1411
42.7283
39.3981
36.163
33.0328
30.0149
27.1148
24.3366
21.6836
19.1592
16.7679
14.515
12.4076
10.4535
8.6607
7.03496
5.57771
4.28281
3.13375
2.102
1.14975
0.209307
74.3532
71.8421
68.7914
65.4758
62.1259
58.7833
55.4342
52.0821
48.7464
45.4475
42.2015
39.0215
35.9183
32.9013
29.9781
27.1552
24.4382
21.8324
19.3433
16.9768
14.7394
12.6378
10.678
8.86398
7.19593
5.66811
4.26697
2.97045
1.75022
0.563438
75.1536
72.8152
69.9737
66.8763
63.7337
60.5838
57.4118
54.2186
51.0207
47.8365
44.681
41.5668
38.5053
35.5065
32.5794
29.7317
26.9706
24.3026
21.7338
19.2706
16.9191
14.685
12.5732
10.5864
8.72415
6.98107
5.34591
3.80101
2.32392
0.889462
75.8276
73.6368
70.9755
68.0677
65.107
62.1281
59.1156
56.0683
53
49.9269
46.8628
43.8194
40.8078
37.8383
34.9203
32.0624
29.2723
26.5573
23.9241
21.3792
18.9283
16.5767
14.3282
12.185
10.1459
8.20598
6.35549
4.57946
2.85862
1.1793
76.3941
74.3294
71.8235
69.0801
66.2786
63.4506
60.5805
57.6654
54.7167
51.7486
48.7733
45.8017
42.8441
39.9105
37.0103
34.1524
31.3449
28.5952
25.9104
23.2969
20.7602
18.3052
15.9351
13.6514
11.4527
9.33426
7.28706
5.29766
3.34818
1.43175
76.8688
74.9118
72.5395
69.9386
67.2756
64.5801
61.8362
59.0397
56.1998
53.3288
50.4376
47.5359
44.6331
41.7388
38.862
36.0113
33.195
30.4205
27.6948
25.0242
22.4141
19.8689
17.3915
14.9828
12.6412
10.3619
8.13631
5.95165
3.79045
1.64937
77.2652
75.3998
73.1422
70.6642
68.1214
65.5414
62.9084
60.217
57.4748
54.6922
51.8788
49.0433
46.194
43.3399
40.4894
37.6508
34.832
32.0404
29.2828
26.5652
23.8928
21.2697
18.6984
16.1794
13.7109
11.288
8.90204
6.54054
4.18599
1.83642
77.5941
75.8064
73.6467
71.2741
68.8347
66.3546
63.8182
61.219
58.5632
55.8598
53.1171
50.3426
47.5439
44.7291
41.9059
39.0822
36.2654
33.4627
30.6805
27.9246
25.2
22.5103
19.8577
17.2424
14.6623
12.1123
9.58372
7.06399
4.53544
1.9962
77.8663
76.1438
74.0671
71.7841
69.4329
67.0383
64.5849
62.0656
59.4851
56.8514
54.1715
51.4521
48.6998
45.9219
43.1256
40.318
37.5062
34.6969
31.8962
29.1095
26.3415
23.5955
20.8734
18.1751
15.4981
12.8371
10.1835
7.52421
4.8416
2.13275
78.0876
76.4194
74.412
72.2043
69.9272
67.6046
65.2215
62.7701
60.2541
57.6804
55.0552
52.3841
49.6732
46.9289
44.1576
41.3661
38.5608
35.7481
32.9336
30.1225
27.319
24.5261
21.7455
18.9767
16.217
13.4608
10.6992
7.91919
5.10287
2.2459
78.27
76.6458
74.6955
72.5496
70.3336
68.0705
65.7455
63.3506
60.8885
58.3652
55.7862
53.1564
50.4811
47.7661
45.0173
42.2407
39.4426
36.6285
33.804
30.9738
28.1418
25.3108
22.482
19.6547
16.8259
13.9899
11.1375
8.25537
5.32561
2.34129
78.4101
76.8207
74.9154
72.8187
70.6512
68.4354
66.1569
63.8073
61.3885
58.9058
56.3642
53.7681
51.1221
48.4314
45.7014
42.9378
40.1463
37.3321
34.5004
31.6557
28.8014
25.9402
23.0729
20.1987
17.3143
14.4137
11.4874
8.52218
5.49995
2.41187
78.5303
76.9665
75.0955
73.0361
70.9053
68.7254
66.4821
64.1668
61.781
59.3294
56.8165
54.2462
51.6228
48.9509
46.2357
43.4825
40.6964
37.8825
35.0457
32.1902
29.3192
26.4351
23.5386
20.6285
17.7014
14.7511
11.7678
8.7379
5.64322
2.47105
78.6034
77.0558
75.2073
73.1732
71.0672
68.9112
66.6914
64.3992
62.0355
59.6048
57.1111
54.5583
51.9501
49.2911
46.586
43.8398
41.0575
38.2441
35.4041
32.5414
29.6593
26.7599
23.8437
20.9094
17.9534
14.9691
11.9467
8.87208
5.72697
2.49708
78.689
77.1424
75.3063
73.2874
71.1953
69.0521
66.8449
64.5647
62.2125
59.7925
57.3085
54.7642
52.1633
49.5102
46.8094
44.0659
41.2845
38.47
35.627
32.7593
29.8701
26.9613
24.0335
21.0852
18.1128
15.1096
12.0653
8.9649
5.78777
2.50837
)
;

boundaryField
{
    inlet
    {
        type            zeroGradient;
    }
    outlet
    {
        type            fixedValue;
        value           uniform 0;
    }
    flap
    {
        type            zeroGradient;
    }
    upperWall
    {
        type            zeroGradient;
    }
    lowerWall
    {
        type            zeroGradient;
    }
    frontAndBack
    {
        type            empty;
    }
}


// ************************************************************************* //
