/*--------------------------------*- C++ -*----------------------------------*\
  =========                 |
  \\      /  F ield         | OpenFOAM: The Open Source CFD Toolbox
   \\    /   O peration     | Website:  https://openfoam.org
    \\  /    A nd           | Version:  dev
     \\/     M anipulation  |
\*---------------------------------------------------------------------------*/
FoamFile
{
    version     2.0;
    format      ascii;
    class       surfaceScalarField;
    location    "1.7";
    object      phi;
}
// * * * * * * * * * * * * * * * * * * * * * * * * * * * * * * * * * * * * * //

dimensions      [0 3 -1 0 0 0 0];

internalField   nonuniform List<scalar> 
5457
(
0.198417
0.00158328
0.196478
0.00193905
0.194187
0.00229044
0.191501
0.00268649
0.188416
0.00308454
0.184936
0.00348044
0.181053
0.00388247
0.176755
0.00429802
0.172023
0.00473223
0.166834
0.00518913
0.161162
0.00567221
0.154977
0.00618443
0.148249
0.00672797
0.140945
0.00730385
0.133034
0.00791144
0.124486
0.00854773
0.11528
0.00920646
0.105403
0.00987698
0.0948598
0.0105431
0.0836781
0.0111817
0.0719162
0.0117619
0.0596716
0.0122447
0.0470875
0.012584
0.0343532
0.0127343
0.021666
0.0126872
0.00902869
0.0126374
-0.00290263
0.0119313
-0.00845471
0.00555208
-0.00802992
-0.000424784
-0.00802992
0.199927
0.00165603
0.199173
0.00269319
0.19796
0.00350375
0.196324
0.0043226
0.19426
0.00514797
0.191766
0.00597422
0.188836
0.00681337
0.185455
0.00767892
0.181606
0.00858118
0.177266
0.00952847
0.172411
0.0105281
0.167009
0.0115862
0.161029
0.0127078
0.154437
0.0138954
0.1472
0.0151485
0.139286
0.0164622
0.130667
0.017825
0.121327
0.0192171
0.111263
0.020607
0.100495
0.0219499
0.089073
0.023184
0.0770885
0.0242291
0.0646864
0.0249861
0.0520835
0.0253372
0.0396282
0.0251425
0.0280812
0.0241844
0.0185636
0.0214489
0.00876274
0.015353
0.00116552
0.00717244
-0.00686441
0.19978
0.00187637
0.199084
0.00338871
0.197941
0.00464701
0.196401
0.0058621
0.194472
0.00707742
0.192149
0.00829691
0.189428
0.00953467
0.186298
0.0108084
0.182747
0.0121331
0.178754
0.0135213
0.174298
0.0149839
0.169353
0.0165307
0.163892
0.0181694
0.157882
0.0199052
0.151292
0.0217389
0.144088
0.0236655
0.136242
0.0256714
0.127728
0.0277311
0.118532
0.0298033
0.108655
0.0318264
0.0981255
0.0337137
0.0870059
0.0353487
0.0754125
0.0365795
0.0635389
0.0372108
0.0517003
0.0369812
0.0403666
0.035518
0.0297097
0.0321058
0.019148
0.0259146
0.00957891
0.0167415
0.0027145
0.199702
0.0021742
0.199005
0.0040857
0.197882
0.00576989
0.196369
0.0073759
0.194477
0.00896886
0.192207
0.0105666
0.189556
0.0121862
0.186516
0.0138483
0.183077
0.0155715
0.179227
0.0173717
0.174948
0.0192627
0.170222
0.0212568
0.165027
0.0233643
0.15934
0.0255921
0.153136
0.0279428
0.14639
0.0304123
0.139074
0.0329867
0.131167
0.0356386
0.122648
0.038322
0.113508
0.0409661
0.103753
0.0434687
0.0934132
0.0456887
0.082555
0.0474377
0.0712956
0.0484702
0.0598071
0.0484697
0.0482865
0.0470386
0.0367852
0.0436071
0.0251699
0.0375299
0.0133268
0.0285847
0.0160413
0.199667
0.00250769
0.198962
0.00479065
0.197858
0.00687356
0.196373
0.00886049
0.194521
0.010821
0.192303
0.0127849
0.189715
0.0147739
0.186753
0.016811
0.183407
0.0189173
0.179667
0.0211114
0.17552
0.0234095
0.170952
0.0258256
0.165944
0.0283713
0.160481
0.0310552
0.154543
0.0338807
0.148111
0.0368446
0.141164
0.0399337
0.133682
0.0431206
0.125646
0.0463586
0.117037
0.0495744
0.107846
0.0526604
0.0980692
0.0554652
0.0877224
0.0577845
0.07684
0.0593526
0.065474
0.0598356
0.0536779
0.0588348
0.0414294
0.0558556
0.0285706
0.0503887
0.0148444
0.0423109
0.0308857
0.199652
0.00285579
0.198946
0.00549641
0.197866
0.00795387
0.196419
0.0103076
0.194615
0.0126243
0.192458
0.0149421
0.189945
0.0172876
0.18707
0.0196859
0.183826
0.0221608
0.180205
0.0247328
0.176194
0.02742
0.171782
0.030238
0.166954
0.0331996
0.161695
0.0363142
0.155989
0.0395862
0.14982
0.0430132
0.143171
0.0465832
0.136021
0.0502706
0.128349
0.0540307
0.12013
0.0577931
0.111337
0.061453
0.101941
0.0648615
0.0919103
0.0678154
0.0812135
0.0700493
0.0698184
0.0712307
0.0576864
0.0709667
0.0447365
0.0688055
0.0308327
0.0642925
0.0158655
0.0572781
0.0467512
0.199649
0.00320665
0.198951
0.00619409
0.197899
0.00900587
0.196497
0.0117103
0.194751
0.01437
0.192665
0.0170279
0.190238
0.0197152
0.187464
0.0224597
0.184338
0.0252871
0.18085
0.02822
0.176992
0.0312781
0.172752
0.0344785
0.168116
0.0378354
0.163071
0.0413591
0.157602
0.0450553
0.151692
0.048923
0.145323
0.0529524
0.138472
0.0571211
0.131114
0.0613891
0.123214
0.0656932
0.114729
0.0699381
0.105604
0.0739867
0.0957695
0.0776497
0.0851434
0.0806754
0.0736308
0.0827433
0.0611302
0.0834673
0.047531
0.0824047
0.0327424
0.0790811
0.0167752
0.0732453
0.0635264
0.199654
0.00355291
0.198972
0.00687591
0.197954
0.010024
0.196602
0.0130619
0.194923
0.0160495
0.192918
0.0190323
0.190588
0.0220454
0.187929
0.0251193
0.184934
0.0282815
0.181598
0.0315565
0.17791
0.0349658
0.17386
0.0385281
0.169437
0.0422588
0.164626
0.0461701
0.159412
0.0502693
0.153777
0.054558
0.1477
0.0590297
0.141154
0.0636671
0.134105
0.0684379
0.126509
0.0732895
0.118305
0.0781417
0.109415
0.0828769
0.0997357
0.0873287
0.0891414
0.0912697
0.0774852
0.0943995
0.0646144
0.0963381
0.0503923
0.0966268
0.0347515
0.0947219
0.0177819
0.0902149
0.0813083
0.199663
0.00388965
0.199004
0.00753544
0.198025
0.0110027
0.196731
0.0143564
0.195125
0.017655
0.193211
0.0209459
0.190989
0.0242674
0.188456
0.0276523
0.185608
0.03113
0.182438
0.0347267
0.178938
0.0384658
0.175098
0.0423674
0.170908
0.046449
0.166354
0.0507244
0.161419
0.0552039
0.156085
0.0598924
0.150326
0.0647885
0.144111
0.0698817
0.137399
0.0751503
0.130133
0.0805559
0.122236
0.0860382
0.113608
0.0915055
0.104113
0.0968233
0.0935839
0.101799
0.0818213
0.106162
0.0686139
0.109546
0.0537752
0.111465
0.0372191
0.111278
0.0190751
0.108359
0.100383
0.199676
0.00421335
0.199044
0.0081674
0.198111
0.0119364
0.196879
0.0155877
0.195355
0.0191794
0.19354
0.0227605
0.191436
0.0263715
0.189041
0.0300475
0.186351
0.0338198
0.183362
0.0377163
0.180066
0.0417618
0.176455
0.0459783
0.172519
0.0503851
0.168244
0.0549989
0.163615
0.0598327
0.158611
0.0648962
0.153206
0.0701941
0.147363
0.0757249
0.141034
0.0814794
0.134153
0.087437
0.126629
0.0935616
0.11834
0.0997941
0.109123
0.106041
0.0987641
0.112157
0.0870045
0.117922
0.0735508
0.122999
0.0581194
0.126897
0.0405333
0.128864
0.0208927
0.127999
0.121276
0.199692
0.00452134
0.199092
0.00876751
0.198208
0.0128204
0.197045
0.0167504
0.195608
0.0206163
0.1939
0.0244683
0.191923
0.0283488
0.189676
0.032295
0.187156
0.0363397
0.18436
0.0405122
0.181283
0.044839
0.177917
0.0493438
0.174254
0.054048
0.170282
0.0589709
0.165986
0.0641293
0.161344
0.0695377
0.15633
0.075208
0.150906
0.0811489
0.14502
0.0873654
0.1386
0.0938572
0.131545
0.100616
0.123718
0.107622
0.114928
0.114831
0.104921
0.122165
0.093365
0.129477
0.0798542
0.13651
0.0639358
0.142815
0.0452149
0.147585
0.0236028
0.149611
0.144879
0.19971
0.00481157
0.199145
0.00933225
0.198315
0.0136505
0.197226
0.0178397
0.195882
0.0219601
0.194288
0.0260627
0.192445
0.0301917
0.190354
0.0343859
0.188014
0.0386793
0.185423
0.0431029
0.182578
0.0476842
0.179473
0.0524488
0.176101
0.05742
0.172452
0.0626197
0.168513
0.0680683
0.164265
0.0737857
0.159682
0.0797909
0.154728
0.0861031
0.149351
0.0927422
0.14348
0.0997291
0.13701
0.107086
0.129799
0.114833
0.121639
0.12299
0.112244
0.13156
0.101211
0.14051
0.0879952
0.149726
0.0718871
0.158923
0.0520652
0.167407
0.0278775
0.173799
0.172756
0.199729
0.00508242
0.199203
0.00985875
0.19843
0.0144229
0.197418
0.0188514
0.196173
0.0232057
0.194698
0.0275379
0.192996
0.0318936
0.191069
0.0363126
0.188918
0.0408303
0.186542
0.0454786
0.18394
0.0502863
0.181109
0.0552803
0.178043
0.0604857
0.174736
0.0659266
0.171177
0.071627
0.167352
0.0776113
0.163237
0.0839053
0.158802
0.090538
0.154002
0.0975431
0.148769
0.104961
0.143011
0.112844
0.13659
0.121255
0.129305
0.130275
0.12086
0.140005
0.110811
0.150559
0.0984848
0.162052
0.0828605
0.174548
0.0624146
0.187853
0.03512
0.201094
0.207876
0.19975
0.00533263
0.199264
0.0103447
0.198552
0.0151348
0.197621
0.019782
0.196478
0.0243492
0.195126
0.0288893
0.193571
0.033449
0.191815
0.0380689
0.189859
0.0427855
0.187707
0.0476313
0.185357
0.0526361
0.18281
0.0578276
0.180063
0.0632324
0.177113
0.0688764
0.173954
0.0747861
0.170576
0.0809897
0.166962
0.0875186
0.163091
0.0944094
0.158927
0.101707
0.15442
0.109469
0.149495
0.117769
0.144041
0.126708
0.137892
0.136424
0.13079
0.147107
0.12232
0.159029
0.11179
0.172583
0.0979702
0.188368
0.0785184
0.207305
0.0486704
0.230942
0.256547
0.199771
0.00556123
0.199328
0.0107883
0.198679
0.0157837
0.197832
0.0206286
0.196794
0.0253872
0.19557
0.0301131
0.194166
0.0348536
0.192585
0.0396502
0.19083
0.0445397
0.188907
0.0495551
0.186816
0.0547267
0.184561
0.0600828
0.182143
0.0656506
0.179562
0.0714572
0.176817
0.0775308
0.173905
0.083902
0.170818
0.0906054
0.167545
0.0976826
0.164067
0.105186
0.160354
0.113181
0.156364
0.121759
0.152031
0.131041
0.147256
0.141199
0.141881
0.152482
0.135646
0.165264
0.128083
0.180146
0.118254
0.198197
0.103911
0.221647
0.0777336
0.257119
0.33428
0.00761386
-0.00761386
0.0142066
-0.00659272
0.019804
-0.00559744
0.0246477
-0.00484365
0.0288983
-0.00425066
0.0326449
-0.00374656
0.0359438
-0.00329888
0.0388346
-0.00289085
0.0413457
-0.00251114
0.0435004
-0.00215461
0.0453131
-0.00181271
0.0467647
-0.00145164
0.0478537
-0.00108897
0.0486185
-0.000764784
0.0490828
-0.000464316
0.0492884
-0.000205617
0.0493045
-1.61e-05
0.0491887
0.000115775
0.0489166
0.000272145
0.0483833
0.000533244
0.0475295
0.000853828
0.0463967
0.00113281
0.0451239
0.00127276
0.0438999
0.00122403
0.0429239
0.000975983
0.0423668
0.000557127
0.0422716
9.51959e-05
0.0429151
-0.000643529
0.0446002
-0.00168508
-0.00299061
0.00556145
-0.0131753
0.0109488
-0.0119801
0.01568
-0.0103286
0.0198008
-0.00896445
0.0234276
-0.00787745
0.0266319
-0.00695083
0.0294529
-0.00611994
0.0319133
-0.00535126
0.0340279
-0.00462573
0.0358179
-0.00394454
0.0373126
-0.00330751
0.0384643
-0.00260332
0.0392917
-0.0019164
0.0398084
-0.00128143
0.0395928
-0.000248722
0.038426
0.000961144
0.0362866
0.00212337
0.0334954
0.0029069
0.0303812
0.00338636
0.0272132
0.00370124
0.0241767
0.00389039
0.0214378
0.00387169
0.0191636
0.00354689
0.0174708
0.00291684
0.0163974
0.00204939
0.015945
0.00100953
0.0163193
-0.000279038
0.0178056
-0.00212986
0.0207442
-0.00462368
-0.007193
0.00373435
-0.0169097
0.00738131
-0.015627
0.0105819
-0.0135292
0.0133474
-0.01173
0.0157178
-0.0102478
0.0177234
-0.0089564
0.0193816
-0.00777817
0.0206903
-0.00665994
0.0216278
-0.00556327
0.0221972
-0.00451395
0.0225421
-0.00365244
0.0223978
-0.00245895
0.0210233
-0.000541913
0.0183767
0.00136515
0.0153468
0.00278121
0.012435
0.00387295
0.00956154
0.00499679
0.00660935
0.00585909
0.003645
0.00635072
0.00084423
0.00650201
-0.00160337
0.006338
-0.00360671
0.00587503
-0.00513312
0.00507331
-0.00611156
0.00389528
-0.00644467
0.0023825
-0.00602162
0.000586482
-0.00462636
-0.00167429
-0.00220537
-0.00455085
0.00119987
-0.00802891
-0.0105591
0.00202959
-0.0189393
0.00380246
-0.0173999
0.00527456
-0.0150013
0.00644283
-0.0128982
0.00728973
-0.0110947
0.00780804
-0.00947471
0.00799831
-0.00796843
0.00784783
-0.00650946
0.00729419
-0.00500963
0.00611523
-0.003335
0.00373694
-0.00127415
0.00049401
0.000783984
-0.00225959
0.00221169
-0.00454704
0.0036526
-0.006899
0.00513317
-0.00940772
0.00638168
-0.0118516
0.00744063
-0.014172
0.00817958
-0.0163203
0.008499
-0.0182101
0.00839179
-0.0197573
0.00788514
-0.0208857
0.00700347
-0.0215508
0.00573837
-0.0217324
0.0040769
-0.0213954
0.00204555
-0.0204824
-0.000326534
-0.0190332
-0.00312348
-0.0172107
-0.00637333
-0.0154148
-0.00982482
-0.0124782
0.000189023
-0.0191283
0.000118661
-0.0173295
-0.000233168
-0.0146495
-0.000766296
-0.0123651
-0.00161248
-0.0102485
-0.00279679
-0.0082904
-0.00435954
-0.00640569
-0.00634495
-0.00452405
-0.00878972
-0.00256487
-0.0116074
-0.000517343
-0.014199
0.00131745
-0.0163583
0.00294327
-0.0186269
0.00448031
-0.0209453
0.00597105
-0.0231811
0.00736895
-0.0253452
0.00854581
-0.0273495
0.00944485
-0.0291386
0.00996868
-0.0306818
0.0100423
-0.0319393
0.00964928
-0.0328645
0.00881034
-0.0334166
0.00755556
-0.0335827
0.00590444
-0.0333806
0.00387483
-0.0328344
0.00149936
-0.0319754
-0.00118557
-0.030887
-0.0042119
-0.0297411
-0.00751916
-0.028693
-0.0108729
-0.0135828
-0.00155853
-0.0175697
-0.00355339
-0.0153347
-0.00565366
-0.0125492
-0.00793902
-0.0100798
-0.0103877
-0.00779978
-0.0130088
-0.00566936
-0.0157943
-0.00362019
-0.0187027
-0.00161568
-0.0215418
0.000274261
-0.0240526
0.00199353
-0.0263413
0.00360607
-0.0286002
0.00520218
-0.03084
0.0067201
-0.0330093
0.00814037
-0.0350401
0.00939973
-0.0369008
0.0104066
-0.0385435
0.0110875
-0.0399362
0.0113614
-0.0410639
0.01117
-0.0419122
0.0104976
-0.0424653
0.0093634
-0.0427136
0.00780383
-0.0426672
0.00585804
-0.042359
0.00356669
-0.041831
0.000971297
-0.0411423
-0.00187426
-0.0403869
-0.00496728
-0.0396712
-0.00823487
-0.0390449
-0.0114992
-0.014157
-0.00334251
-0.0142272
-0.00703468
-0.0116425
-0.010715
-0.00886894
-0.014358
-0.00643677
-0.0179341
-0.00422363
-0.0214014
-0.00220204
-0.0246994
-0.000322188
-0.0276711
0.00135596
-0.0303234
0.00292661
-0.0327995
0.00446963
-0.0351931
0.00599969
-0.0374797
0.00748873
-0.0396499
0.00889028
-0.0416699
0.0101604
-0.0435032
0.011233
-0.045124
0.0120274
-0.0465056
0.012469
-0.0476325
0.0124883
-0.048501
0.0120386
-0.0491118
0.0111083
-0.0494672
0.00971881
-0.0495761
0.00791271
-0.0494601
0.00574211
-0.0491587
0.00326531
-0.0487191
0.000531669
-0.0482083
-0.00238502
-0.0477087
-0.0054669
-0.0472894
-0.00865418
-0.0469789
-0.0118097
-0.0143493
-0.00502486
-0.00920238
-0.0101694
-0.00649802
-0.0150779
-0.00396036
-0.0196368
-0.00187794
-0.0237922
-6.82104e-05
-0.0274772
0.00148302
-0.0307168
0.00291735
-0.0336516
0.00429075
-0.0363987
0.00567375
-0.0389814
0.00705234
-0.0414001
0.00841833
-0.0436505
0.00973918
-0.0457272
0.010967
-0.0476132
0.0120464
-0.0492891
0.0129088
-0.0507394
0.0134778
-0.0519513
0.0136808
-0.0529188
0.0134559
-0.053644
0.0127638
-0.0541335
0.0115978
-0.0543978
0.00998306
-0.0544546
0.00796953
-0.0543342
0.00562169
-0.0540801
0.00301127
-0.0537502
0.000201774
-0.0534003
-0.00273493
-0.0531065
-0.00576074
-0.0529197
-0.00884099
-0.0528681
-0.0118613
-0.0142501
-0.00664614
-0.00255624
-0.0129521
-0.000192012
-0.018419
0.00150646
-0.0232169
0.00292
-0.0274039
0.00411875
-0.0311313
0.00521046
-0.0345054
0.00629142
-0.0375939
0.00737932
-0.040422
0.00850177
-0.0430198
0.00965014
-0.0454032
0.0108018
-0.0475812
0.0119171
-0.0495572
0.012943
-0.0513271
0.0138164
-0.0528835
0.0144652
-0.0542194
0.0148136
-0.0553292
0.0147906
-0.0562116
0.0143383
-0.0568703
0.0134225
-0.0573135
0.012041
-0.0575545
0.0102241
-0.0576152
0.00803016
-0.0575298
0.00553628
-0.0573457
0.00282719
-0.0571235
-2.0464e-05
-0.0569215
-0.00293688
-0.0568022
-0.00588008
-0.0568124
-0.0088308
-0.0569799
-0.0116937
-0.0139289
-0.00749158
0.00493534
-0.0141497
0.00646607
-0.0199285
0.00728531
-0.0249737
0.00796515
-0.0294023
0.00854738
-0.0333162
0.00912441
-0.0367888
0.00976394
-0.0398987
0.0104892
-0.0426998
0.0113029
-0.0452339
0.0121842
-0.0475298
0.0130976
-0.0496069
0.0139943
-0.0514775
0.0148136
-0.0531465
0.0154854
-0.0546142
0.0159329
-0.0558788
0.0160782
-0.056938
0.0158498
-0.0577909
0.0151913
-0.0584398
0.0140714
-0.0588908
0.012492
-0.0591565
0.0104897
-0.059259
0.00813268
-0.0592344
0.0055117
-0.0591333
0.00272613
-0.0590179
-0.000135845
-0.0589482
-0.00300663
-0.058981
-0.00584732
-0.0591639
-0.00864788
-0.0595218
-0.0113358
-0.013425
-0.0076496
0.0125849
-0.0146783
0.0134948
-0.0207989
0.0134059
-0.0260358
0.013202
-0.0305283
0.0130399
-0.0344142
0.0130103
-0.0378048
0.0131545
-0.0407964
0.0134809
-0.0434625
0.013969
-0.0458556
0.0145773
-0.0480127
0.0152548
-0.0499606
0.0159422
-0.051718
0.016571
-0.0532957
0.0170631
-0.0546985
0.0173357
-0.0559266
0.0173063
-0.0569776
0.0169008
-0.0578481
0.0160618
-0.0585354
0.0147587
-0.0590402
0.0129968
-0.0593709
0.0108204
-0.0595475
0.00830928
-0.0596054
0.00556959
-0.0595977
0.00271842
-0.0595882
-0.000145336
-0.0596387
-0.00295614
-0.0598056
-0.00568042
-0.0601415
-0.00831198
-0.0606707
-0.0108065
-0.0127512
-0.00804225
0.0206272
-0.0154038
0.0208564
-0.0215971
0.0195991
-0.0267165
0.0183214
-0.0309906
0.017314
-0.0346131
0.0166328
-0.0377277
0.0162691
-0.0404514
0.0162046
-0.0428711
0.0163887
-0.0450436
0.0167498
-0.0470077
0.0172188
-0.0487933
0.0177279
-0.0504234
0.0182011
-0.0519125
0.0185522
-0.0532671
0.0186903
-0.0544876
0.0185268
-0.055569
0.0179823
-0.0565026
0.0169954
-0.0572776
0.0155337
-0.0578856
0.0136047
-0.0583266
0.0112614
-0.0586146
0.00859729
-0.0587814
0.00573637
-0.0588809
0.00281795
-0.0589799
-4.63934e-05
-0.0591425
-0.00279348
-0.0594273
-0.00539564
-0.0598972
-0.00784205
-0.0605849
-0.0101189
-0.0119081
-0.00885874
0.0294859
-0.0166143
0.0286119
-0.0226059
0.0255908
-0.0272181
0.0229336
-0.030938
0.0210339
-0.0340392
0.019734
-0.0366725
0.0189024
-0.0389702
0.0185023
-0.0410293
0.0184479
-0.0428991
0.0186196
-0.0446103
0.01893
-0.0461925
0.0193101
-0.0476719
0.0196804
-0.0490653
0.0199456
-0.0503801
0.0200051
-0.0516156
0.0197623
-0.0527637
0.0191304
-0.0538088
0.0180405
-0.054729
0.0164539
-0.0555019
0.0143777
-0.0561138
0.0118733
-0.0565666
0.00905007
-0.0568843
0.00605405
-0.0571161
0.00304971
-0.0573337
0.000171245
-0.0576053
-0.00252189
-0.0579917
-0.00500922
-0.0585734
-0.0072603
-0.0594087
-0.00928363
-0.0108915
-0.0104099
0.0398958
-0.018829
0.037031
-0.0241782
0.03094
-0.027689
0.0264444
-0.0304436
0.0237885
-0.0327615
0.0220519
-0.0347033
0.0208442
-0.0364098
0.0202088
-0.0379971
0.0200351
-0.0394836
0.0201061
-0.0408759
0.0203223
-0.0422017
0.020636
-0.0434931
0.0209718
-0.0447696
0.0212222
-0.0460391
0.0212746
-0.047301
0.0210242
-0.0485458
0.0203752
-0.0497519
0.0192465
-0.0508848
0.0175868
-0.0519033
0.0153962
-0.0527714
0.0127414
-0.0534707
0.00974938
-0.0540058
0.00658916
-0.0544179
0.00346175
-0.054781
0.000534368
-0.0551683
-0.00213463
-0.0556406
-0.00453689
-0.0563035
-0.0065974
-0.0572716
-0.00831553
-0.00969774
-0.0134858
0.0533817
-0.0230243
0.0465695
-0.0268592
0.0347749
-0.0281587
0.0277439
-0.0294452
0.025075
-0.0307922
0.0233989
-0.0318449
0.0218969
-0.0327816
0.0211455
-0.0338036
0.0210571
-0.0348391
0.0211416
-0.0358394
0.0213225
-0.0368379
0.0216346
-0.0378827
0.0220165
-0.0389969
0.0223364
-0.0401877
0.0224654
-0.0414581
0.0222947
-0.0428041
0.0217212
-0.0442045
0.020647
-0.0456166
0.0189989
-0.0469783
0.0167579
-0.0482227
0.0139858
-0.0492965
0.0108232
-0.0501668
0.00745939
-0.0508496
0.00414456
-0.0514202
0.00110499
-0.0519545
-0.00160038
-0.0525053
-0.00398609
-0.0532078
-0.00589488
-0.0542808
-0.00724251
-0.0083171
0.207446
0.00577493
0.207032
0.0112027
0.206427
0.0163887
0.205639
0.0214162
0.204676
0.0263502
0.203544
0.0312449
0.20225
0.0361479
0.200799
0.0411012
0.199197
0.0461417
0.197449
0.0513025
0.195562
0.0566141
0.19354
0.0621045
0.191389
0.0678014
0.189115
0.0737318
0.186721
0.0799245
0.184213
0.0864105
0.181592
0.0932256
0.178862
0.100413
0.176023
0.108025
0.173072
0.116132
0.170006
0.124824
0.166822
0.134225
0.163515
0.144506
0.160087
0.155909
0.156566
0.168786
0.153048
0.183664
0.14991
0.201335
0.14885
0.222707
0.160737
0.245233
0.258107
0.23691
0.212489
0.00596829
0.212115
0.0115773
0.211569
0.0169348
0.21086
0.0221253
0.209995
0.0272145
0.208983
0.0322568
0.207831
0.0373
0.206547
0.0423859
0.205137
0.0475513
0.203611
0.0528291
0.201976
0.058249
0.200241
0.0638389
0.198417
0.0696254
0.196514
0.075635
0.194543
0.0818952
0.192518
0.088436
0.190452
0.0952912
0.188364
0.102501
0.186275
0.110115
0.184212
0.118194
0.182218
0.126819
0.180353
0.136091
0.178717
0.146143
0.177482
0.157144
0.176973
0.169295
0.177848
0.182789
0.181531
0.197652
0.190642
0.213596
0.206194
0.229681
0.244947
0.219354
0.217657
0.00613918
0.217326
0.0119081
0.216845
0.017416
0.216222
0.0227483
0.215465
0.0279707
0.214584
0.0331379
0.213587
0.0382972
0.212483
0.0434901
0.211281
0.0487528
0.209993
0.0541174
0.208629
0.0596125
0.207203
0.0652649
0.205729
0.0710997
0.204223
0.0771414
0.202703
0.0834151
0.201191
0.0899477
0.199714
0.0967685
0.198303
0.103911
0.197002
0.111416
0.195865
0.119331
0.194971
0.127713
0.194433
0.136629
0.194421
0.146154
0.195199
0.156366
0.197178
0.167316
0.200967
0.178999
0.207334
0.191284
0.216929
0.204002
0.229443
0.217167
0.228199
0.246191
0.22295
0.00628558
0.222667
0.0121912
0.222256
0.0178267
0.221727
0.0232779
0.221087
0.0286102
0.220347
0.033878
0.219517
0.039128
0.218606
0.0444009
0.217627
0.0497318
0.216592
0.0551517
0.215517
0.0606877
0.214418
0.0663645
0.213313
0.072205
0.212223
0.0782308
0.211175
0.0844636
0.210197
0.0909249
0.209328
0.097638
0.208612
0.104628
0.208107
0.111921
0.20789
0.119548
0.208064
0.127539
0.208767
0.135925
0.210194
0.144728
0.212605
0.153954
0.216346
0.163575
0.221832
0.173513
0.229507
0.18361
0.239929
0.19358
0.254003
0.203093
0.209892
0.27231
0.228373
0.00640563
0.228141
0.012423
0.227806
0.0181618
0.227377
0.0237074
0.226862
0.0291249
0.226272
0.0344677
0.225619
0.0397817
0.224913
0.0451064
0.224169
0.0504757
0.223403
0.0559185
0.22263
0.0614602
0.221872
0.067123
0.22115
0.0729267
0.220491
0.0788894
0.219927
0.0850279
0.219494
0.091358
0.219237
0.097895
0.219211
0.104653
0.219486
0.111646
0.220149
0.118885
0.221313
0.126376
0.223121
0.134117
0.225757
0.142092
0.229451
0.15026
0.234479
0.158547
0.241167
0.166825
0.249887
0.17489
0.261079
0.182388
0.275207
0.188965
0.193538
0.291562
0.233928
0.00649765
0.233751
0.0126002
0.233497
0.0184165
0.233173
0.0240309
0.23279
0.0295075
0.232359
0.0348988
0.231892
0.0402493
0.231401
0.0455969
0.230903
0.0509738
0.230415
0.0564069
0.229956
0.0619192
0.229549
0.06753
0.22922
0.0732556
0.228999
0.0791099
0.228923
0.0851043
0.229033
0.0912483
0.229379
0.0975486
0.230023
0.104009
0.231038
0.110631
0.232516
0.117407
0.234566
0.124325
0.237325
0.131358
0.240955
0.138462
0.245646
0.145569
0.251616
0.152577
0.259104
0.159337
0.268347
0.165646
0.27952
0.171215
0.292709
0.175775
0.178817
0.307429
0.239619
0.00656012
0.239499
0.01272
0.239329
0.0185867
0.239117
0.0242431
0.238872
0.029752
0.238607
0.0351643
0.238333
0.040523
0.238065
0.0458643
0.237821
0.0512181
0.237619
0.0566092
0.23748
0.0620577
0.237431
0.0675798
0.237498
0.0731881
0.237716
0.0788919
0.238123
0.0846974
0.238764
0.0906073
0.239692
0.0966206
0.240969
0.102732
0.24267
0.10893
0.244882
0.115196
0.247706
0.121501
0.251261
0.127803
0.255681
0.134042
0.261115
0.140136
0.267716
0.145976
0.275631
0.151422
0.284978
0.1563
0.295797
0.160396
0.308075
0.163498
0.165343
0.321549
0.245447
0.00659177
0.245388
0.0127799
0.245305
0.018669
0.245209
0.0243397
0.245107
0.0298533
0.245013
0.0352587
0.244939
0.0405972
0.2449
0.0459028
0.244915
0.0512033
0.245004
0.0565207
0.245189
0.0618725
0.245497
0.0672714
0.245959
0.0727263
0.246609
0.078242
0.247487
0.0838196
0.248638
0.0894559
0.250116
0.0951428
0.251981
0.100867
0.254302
0.106609
0.257159
0.112339
0.26064
0.11802
0.264842
0.1236
0.26987
0.129014
0.275827
0.134179
0.282813
0.138991
0.290906
0.143329
0.300151
0.147054
0.310537
0.150011
0.321993
0.152042
0.153018
0.334317
0.251417
0.00659158
0.251419
0.0127779
0.251428
0.0186605
0.25145
0.0243173
0.251496
0.0298075
0.251577
0.0351781
0.251706
0.040468
0.2519
0.0457091
0.252176
0.0509267
0.252556
0.0561404
0.253064
0.0613645
0.253727
0.0666085
0.254576
0.0718778
0.255645
0.077173
0.256974
0.0824907
0.258607
0.0878224
0.260595
0.0931548
0.262994
0.0984683
0.265866
0.103737
0.269278
0.108927
0.273303
0.113994
0.278017
0.118886
0.283494
0.123537
0.289802
0.12787
0.296997
0.131796
0.305112
0.135214
0.314147
0.138019
0.324056
0.140102
0.334741
0.141357
0.141729
0.34603
0.257532
0.00655878
0.257597
0.0127126
0.257698
0.0185592
0.257842
0.0241736
0.258037
0.0296122
0.258295
0.03492
0.25863
0.0401335
0.259057
0.0452822
0.259595
0.0503888
0.260265
0.0554704
0.261091
0.0605384
0.2621
0.0655993
0.263322
0.0706552
0.264792
0.0757032
0.266547
0.0807359
0.268629
0.085741
0.271082
0.0907011
0.273958
0.0955929
0.277308
0.100387
0.281188
0.105047
0.285654
0.109528
0.290761
0.113779
0.296558
0.117741
0.303084
0.121345
0.310362
0.124517
0.318395
0.127181
0.327155
0.129259
0.336578
0.130679
0.34656
0.131375
0.131329
0.35696
0.263793
0.00649288
0.263923
0.0125832
0.264118
0.0183641
0.264384
0.0239072
0.26473
0.0292664
0.265166
0.0344839
0.265706
0.0395939
0.266365
0.0446234
0.267161
0.0495927
0.268115
0.0545161
0.269251
0.0594026
0.270594
0.064256
0.272174
0.0690754
0.274022
0.0738551
0.276173
0.0785849
0.278664
0.0832498
0.281536
0.0878296
0.28483
0.0922993
0.288588
0.0966281
0.292855
0.10078
0.29767
0.104713
0.303069
0.10838
0.309081
0.111728
0.315724
0.114703
0.322996
0.117244
0.330882
0.119296
0.339336
0.120805
0.348291
0.121724
0.357649
0.122018
0.121686
0.367291
0.270206
0.00639369
0.2704
0.0123892
0.27069
0.0180747
0.271079
0.0235182
0.271575
0.0287703
0.272188
0.0338709
0.27293
0.0388514
0.273817
0.0437364
0.274866
0.0485439
0.276096
0.0532859
0.27753
0.0579688
0.279192
0.0625941
0.281108
0.0671588
0.283309
0.0716551
0.285823
0.0760706
0.288684
0.0803888
0.291925
0.0845887
0.295579
0.0886446
0.299681
0.0925267
0.30426
0.0962011
0.309343
0.0996298
0.314951
0.102772
0.321097
0.105583
0.32778
0.10802
0.334986
0.110038
0.342685
0.111597
0.350829
0.112661
0.359347
0.113205
0.368153
0.113211
0.112691
0.377148
0.276773
0.0062613
0.277032
0.0121308
0.277415
0.0176916
0.277926
0.0230073
0.27857
0.0281256
0.279358
0.0330835
0.280299
0.03791
0.281408
0.0426272
0.282701
0.0472508
0.284196
0.0517906
0.285914
0.0562512
0.287876
0.0606321
0.290106
0.0649286
0.29263
0.0691314
0.295473
0.0732274
0.298663
0.0771992
0.302226
0.081026
0.306187
0.0846833
0.31057
0.0881432
0.315396
0.0913752
0.32068
0.0943464
0.326429
0.0970225
0.332643
0.0993686
0.339312
0.101351
0.346412
0.102938
0.353907
0.104102
0.361745
0.104823
0.369862
0.105088
0.378183
0.104891
0.104251
0.386623
0.283498
0.00609607
0.28382
0.0118089
0.284295
0.017216
0.284926
0.0223766
0.285716
0.0273353
0.286674
0.0321261
0.287808
0.0367756
0.289132
0.0413035
0.290659
0.0457235
0.292407
0.0500435
0.294391
0.0542663
0.296633
0.0583903
0.299152
0.0624094
0.30197
0.0663139
0.305107
0.0700901
0.308585
0.0737212
0.312424
0.0771872
0.316642
0.0804657
0.321253
0.0835319
0.326269
0.0863591
0.331695
0.0889201
0.337531
0.0911871
0.343766
0.0931335
0.350382
0.0947346
0.357351
0.0959689
0.364634
0.0968198
0.37218
0.0972764
0.379933
0.097335
0.387826
0.0969989
0.0962884
0.395788
0.290384
0.00589861
0.290768
0.0114247
0.291334
0.0166498
0.292082
0.021629
0.293014
0.0264033
0.294136
0.0310041
0.295456
0.0354553
0.296985
0.0397747
0.298735
0.0439738
0.300719
0.0480591
0.302953
0.0520322
0.305453
0.0558904
0.308235
0.0596271
0.311317
0.0632324
0.314714
0.066693
0.318442
0.0699932
0.322514
0.0731147
0.326942
0.0760376
0.331734
0.0787404
0.336892
0.0812011
0.342414
0.0833975
0.348293
0.0853083
0.354513
0.0869139
0.36105
0.0881973
0.367874
0.089145
0.374946
0.0897482
0.382219
0.0900033
0.389641
0.0899126
0.397156
0.0894841
0.0887388
0.404706
0.297435
0.00566978
0.29788
0.0109799
0.298534
0.0159958
0.299394
0.0207682
0.300463
0.0253348
0.301743
0.0297241
0.30324
0.0339577
0.304964
0.0380513
0.306923
0.0420149
0.309128
0.0458535
0.311593
0.0495679
0.314328
0.0531548
0.317348
0.0566074
0.320664
0.0599163
0.324288
0.063069
0.32823
0.0660513
0.332498
0.0688471
0.337096
0.0714392
0.342026
0.0738099
0.347286
0.0759412
0.352868
0.0778162
0.358757
0.0794189
0.364935
0.0807358
0.371376
0.0817561
0.378049
0.0824724
0.384916
0.0828815
0.391934
0.0829848
0.399058
0.0827884
0.406239
0.0823031
0.0815492
0.413429
0.304654
0.00541061
0.305158
0.0104764
0.305896
0.0152571
0.306866
0.0197987
0.308065
0.0241356
0.309496
0.0282937
0.311161
0.0322922
0.313067
0.036145
0.315221
0.0398607
0.317632
0.0434432
0.320307
0.0468927
0.323256
0.0502056
0.326488
0.0533755
0.330011
0.0563935
0.333831
0.0592486
0.337954
0.0619283
0.342383
0.0644187
0.347116
0.0667057
0.352151
0.0687748
0.35748
0.0706124
0.363091
0.0722056
0.368966
0.0735435
0.375085
0.0746173
0.38142
0.0754209
0.387941
0.0759516
0.394612
0.0762102
0.401396
0.0762012
0.408251
0.0759331
0.415136
0.0754178
0.0746745
0.422011
0.312047
0.00512231
0.312606
0.00991681
0.313426
0.0144372
0.314499
0.0187254
0.315823
0.0228122
0.317395
0.026721
0.319219
0.0304689
0.321296
0.0340679
0.323631
0.0375255
0.326229
0.0408449
0.329096
0.0440256
0.332238
0.0470644
0.335658
0.0499552
0.339361
0.0526903
0.34335
0.0552598
0.347625
0.0576533
0.352184
0.0598593
0.357024
0.0618665
0.362135
0.0636636
0.367507
0.0652405
0.373124
0.0665881
0.378968
0.0676994
0.385016
0.0685694
0.391241
0.0691958
0.397614
0.069579
0.404101
0.0697225
0.41067
0.0696328
0.417283
0.0693196
0.423906
0.0687949
0.0680765
0.430504
0.319616
0.00480618
0.320229
0.00930356
0.321126
0.0135402
0.322298
0.0175536
0.323738
0.0213715
0.325445
0.0250146
0.327416
0.028498
0.329651
0.0318322
0.332153
0.0350236
0.334924
0.0380747
0.337964
0.040985
0.341277
0.0437515
0.344863
0.0463688
0.348724
0.04883
0.352856
0.0511273
0.357258
0.0532517
0.361923
0.0551942
0.366844
0.0569459
0.372008
0.0584987
0.377404
0.0598452
0.383012
0.0609797
0.388814
0.061898
0.394785
0.0625982
0.4009
0.0630806
0.407131
0.0633478
0.413449
0.0634051
0.419821
0.06326
0.426219
0.0629224
0.432609
0.0624042
0.0617215
0.438964
0.327366
0.00446357
0.32803
0.00863935
0.329
0.01257
0.330265
0.0162888
0.331816
0.0198204
0.333648
0.023183
0.335756
0.0263899
0.338138
0.02945
0.340793
0.0323688
0.343719
0.0351483
0.346916
0.0377882
0.350382
0.0402855
0.354115
0.0426359
0.358111
0.0448337
0.362366
0.0468722
0.366873
0.0487446
0.371624
0.0504438
0.376606
0.0519633
0.381808
0.0532972
0.387212
0.0544407
0.392801
0.0553907
0.398554
0.0561454
0.404447
0.0567048
0.410457
0.0570712
0.416556
0.0572486
0.422718
0.0572432
0.428915
0.057063
0.435119
0.0567176
0.441305
0.0562183
0.0555796
0.447447
0.335302
0.00409582
0.336014
0.00792681
0.337054
0.0115306
0.338406
0.0149364
0.34006
0.018166
0.342009
0.0212349
0.344244
0.0241545