/*--------------------------------*- C++ -*----------------------------------*\
  =========                 |
  \\      /  F ield         | OpenFOAM: The Open Source CFD Toolbox
   \\    /   O peration     | Website:  https://openfoam.org
    \\  /    A nd           | Version:  dev
     \\/     M anipulation  |
\*---------------------------------------------------------------------------*/
FoamFile
{
    version     2.0;
    format      ascii;
    class       surfaceVectorField;
    location    "1.7";
    object      Uf;
}
// * * * * * * * * * * * * * * * * * * * * * * * * * * * * * * * * * * * * * //

dimensions      [0 1 -1 0 0 0 0];

internalField   nonuniform List<vector> 
5457
(
(9.92084 0 0.0251257)
(9.97123 0 0.0387682)
(9.82388 0 0.032853)
(9.92851 0 0.048628)
(9.70936 0 0.0393472)
(9.85529 0 0.0588296)
(9.57504 0 0.0460547)
(9.75648 0 0.0706713)
(9.42081 0 0.0529989)
(9.63705 0 0.0831054)
(9.24679 0 0.0602218)
(9.49795 0 0.0960402)
(9.05266 0 0.0678708)
(9.33845 0 0.109725)
(8.83776 0 0.0760973)
(9.15768 0 0.124408)
(8.60115 0 0.0850343)
(8.95483 0 0.14029)
(8.3417 0 0.0948087)
(8.72891 0 0.157556)
(8.05808 0 0.105549)
(8.47873 0 0.17639)
(7.74886 0 0.117386)
(8.20291 0 0.19697)
(7.41246 0 0.130448)
(7.89992 0 0.219465)
(7.04727 0 0.144855)
(7.56813 0 0.244013)
(6.6517 0 0.160707)
(7.20589 0 0.270706)
(6.22431 0 0.178068)
(6.81161 0 0.299553)
(5.76399 0 0.196938)
(6.38389 0 0.330442)
(5.27014 0 0.217227)
(5.92171 0 0.363084)
(4.74299 0 0.238711)
(5.42467 0 0.396945)
(4.18391 0 0.260987)
(4.89328 0 0.431171)
(3.59581 0 0.28342)
(4.32937 0 0.464516)
(2.98358 0 0.305107)
(3.73649 0 0.49528)
(2.35438 0 0.324939)
(3.12035 0 0.52132)
(1.71766 0 0.342363)
(2.48938 0 0.540307)
(1.0833 0 0.361566)
(1.85446 0 0.551329)
(0.451435 0 0.348188)
(1.2443 0 0.562447)
(-0.145131 0 0.102859)
(0.608332 0 0.543869)
(-0.422735 0 -0.204998)
(0.0949044 0 0.259204)
(-0.401496 0 -0.358853)
(-0.134991 0 -0.0203112)
(-0.118971 0 -0.393241)
(9.99636 0 0.0517213)
(9.99703 0 0.0405496)
(9.95866 0 0.0709398)
(9.97843 0 0.0675406)
(9.89799 0 0.0880913)
(9.93359 0 0.0899934)
(9.81618 0 0.106112)
(9.86421 0 0.113711)
(9.71301 0 0.125068)
(9.7739 0 0.138699)
(9.58832 0 0.145016)
(9.66369 0 0.164854)
(9.44178 0 0.166263)
(9.53312 0 0.192558)
(9.27273 0 0.189147)
(9.38144 0 0.222269)
(9.08029 0 0.213966)
(9.20793 0 0.254394)
(8.86332 0 0.240996)
(9.01169 0 0.28931)
(8.62053 0 0.27051)
(8.79165 0 0.327393)
(8.35044 0 0.302768)
(8.5465 0 0.369014)
(8.05145 0 0.338001)
(8.27481 0 0.414525)
(7.72187 0 0.376383)
(7.975 0 0.464228)
(7.36002 0 0.417995)
(7.64542 0 0.518336)
(6.9643 0 0.462767)
(7.28444 0 0.576913)
(6.53337 0 0.510407)
(6.8905 0 0.639784)
(6.06636 0 0.56031)
(6.46234 0 0.706431)
(5.56316 0 0.61145)
(5.99913 0 0.775852)
(5.02475 0 0.662262)
(5.50085 0 0.846401)
(4.45365 0 0.710529)
(4.96857 0 0.915612)
(3.85442 0 0.753299)
(4.40499 0 0.980036)
(3.23432 0 0.786885)
(3.81502 0 1.0351)
(2.60418 0 0.8071)
(3.20663 0 1.07504)
(1.98141 0 0.809928)
(2.59178 0 1.09258)
(1.40406 0 0.776194)
(1.99475 0 1.07637)
(0.928182 0 0.645651)
(1.41817 0 0.977711)
(0.438137 0 0.382942)
(0.93635 0 0.716769)
(0.0582758 0 -0.119868)
(0.441862 0 0.342952)
(0.174584 0 -0.336163)
(9.98898 0 0.0595131)
(9.99479 0 0.0459447)
(9.95421 0 0.0896077)
(9.97361 0 0.084983)
(9.89704 0 0.118207)
(9.92966 0 0.119358)
(9.82007 0 0.148111)
(9.86326 0 0.15421)
(9.7236 0 0.179667)
(9.77688 0 0.190684)
(9.60746 0 0.213046)
(9.67161 0 0.228947)
(9.4714 0 0.248683)
(9.54725 0 0.269467)
(9.31492 0 0.287077)
(9.40327 0 0.312853)
(9.13733 0 0.328704)
(9.23909 0 0.359692)
(8.93769 0 0.374025)
(9.05403 0 0.410542)
(8.7149 0 0.423498)
(8.84724 0 0.465957)
(8.46767 0 0.477567)
(8.61767 0 0.526493)
(8.19459 0 0.53664)
(8.36414 0 0.592684)
(7.8941 0 0.601045)
(8.08535 0 0.665009)
(7.56458 0 0.670966)
(7.7799 0 0.743838)
(7.20442 0 0.746356)
(7.44634 0 0.829349)
(6.8121 0 0.826817)
(7.08322 0 0.921407)
(6.3864 0 0.911446)
(6.68921 0 1.01941)
(5.92659 0 0.998644)
(6.26323 0 1.12209)
(5.43276 0 1.0859)
(5.80467 0 1.22725)
(4.90627 0 1.16954)
(5.31371 0 1.33147)
(4.3503 0 1.24451)
(4.79173 0 1.42981)
(3.77062 0 1.30407)
(4.24188 0 1.51538)
(3.17695 0 1.33926)
(3.66989 0 1.57882)
(2.58501 0 1.33743)
(3.08458 0 1.60704)
(2.01833 0 1.27222)
(2.50135 0 1.58079)
(1.48548 0 1.09485)
(1.92731 0 1.46349)
(0.9574 0 0.768971)
(1.38403 0 1.20985)
(0.478946 0 0.201888)
(0.828661 0 0.800502)
(0.433082 0 0.132934)
(9.98511 0 0.0717285)
(9.99365 0 0.0532373)
(9.95026 0 0.113813)
(9.9708 0 0.102462)
(9.89412 0 0.154377)
(9.92673 0 0.148199)
(9.81843 0 0.19587)
(9.86154 0 0.194032)
(9.72385 0 0.239152)
(9.77699 0 0.241644)
(9.61037 0 0.284701)
(9.67401 0 0.291576)
(9.47779 0 0.333124)
(9.55258 0 0.344404)
(9.32579 0 0.385095)
(9.41231 0 0.400846)
(9.15387 0 0.441274)
(9.25274 0 0.461627)
(8.96135 0 0.502306)
(9.07337 0 0.527451)
(8.74741 0 0.568835)
(8.87353 0 0.599015)
(8.51111 0 0.641492)
(8.65244 0 0.677017)
(8.25136 0 0.72087)
(8.40919 0 0.762138)
(7.96702 0 0.807478)
(8.14281 0 0.855002)
(7.65682 0 0.90166)
(7.85222 0 0.956118)
(7.31948 0 1.00349)
(7.53632 0 1.06579)
(6.95371 0 1.11263)
(7.19396 0 1.18397)
(6.55833 0 1.22809)
(6.82399 0 1.3101)
(6.1324 0 1.34802)
(6.42534 0 1.44282)
(5.67541 0 1.46934)
(5.99715 0 1.57968)
(5.18766 0 1.58739)
(5.53891 0 1.71673)
(4.67066 0 1.69553)
(5.05073 0 1.84805)
(4.12775 0 1.78453)
(4.53379 0 1.96521)
(3.56478 0 1.84179)
(3.99073 0 2.05655)
(2.99035 0 1.8499)
(3.42579 0 2.10628)
(2.41432 0 1.78162)
(2.84602 0 2.09354)
(1.83926 0 1.59969)
(2.25483 0 1.98776)
(1.2585 0 1.27777)
(1.6592 0 1.75212)
(0.666339 0 0.788567)
(1.02324 0 1.36679)
(0.522882 0 0.785572)
(9.98333 0 0.0845546)
(9.99315 0 0.0614031)
(9.94808 0 0.137072)
(9.96951 0 0.120141)
(9.89289 0 0.188345)
(9.92557 0 0.176547)
(9.81867 0 0.24055)
(9.86168 0 0.233086)
(9.72606 0 0.294905)
(9.77916 0 0.291545)
(9.61514 0 0.352143)
(9.67874 0 0.352789)
(9.48576 0 0.412989)
(9.56042 0 0.417538)
(9.33763 0 0.478217)
(9.42391 0 0.486601)
(9.17034 0 0.5486)
(9.26882 0 0.560814)
(8.98335 0 0.624898)
(9.09472 0 0.641)
(8.77601 0 0.707868)
(8.90106 0 0.727968)
(8.54758 0 0.798255)
(8.68718 0 0.822528)
(8.29722 0 0.896767)
(8.45238 0 0.925467)
(8.02407 0 1.00403)
(8.19584 0 1.03752)
(7.72717 0 1.1205)
(7.91674 0 1.1593)
(7.40556 0 1.24636)
(7.6142 0 1.29121)
(7.05821 0 1.38136)
(7.28728 0 1.43332)
(6.68411 0 1.52455)
(6.935 0 1.58514)
(6.28228 0 1.67401)
(6.55635 0 1.74539)
(5.85187 0 1.82647)
(6.15026 0 1.91162)
(5.39228 0 1.97679)
(5.71568 0 2.07974)
(4.90346 0 2.11743)
(5.25165 0 2.24349)
(4.38612 0 2.23785)
(4.75746 0 2.39385)
(3.842 0 2.32365)
(4.23286 0 2.51828)
(3.2737 0 2.35595)
(3.67801 0 2.60019)
(2.6839 0 2.30952)
(3.09409 0 2.61854)
(2.07147 0 2.15392)
(2.48032 0 2.54608)
(1.42853 0 1.86626)
(1.83887 0 2.35245)
(0.742222 0 1.41809)
(1.13071 0 2.02311)
(0.54317 0 1.51253)
(9.98259 0 0.0976775)
(9.99297 0 0.0699269)
(9.94731 0 0.160062)
(9.96917 0 0.13784)
(9.89329 0 0.22173)
(9.92579 0 0.204294)
(9.82094 0 0.284557)
(9.86349 0 0.271154)
(9.73077 0 0.349883)
(9.78338 0 0.340132)
(9.62291 0 0.418611)
(9.68598 0 0.412316)
(9.49723 0 0.491572)
(9.57132 0 0.488577)
(9.35348 0 0.569636)
(9.43915 0 0.569817)
(9.19131 0 0.653678)
(9.28915 0 0.656969)
(9.01024 0 0.744566)
(9.12092 0 0.750954)
(8.80971 0 0.843163)
(8.934 0 0.852684)
(8.58909 0 0.950316)
(8.72781 0 0.963061)
(8.34768 0 1.06683)
(8.5017 0 1.08296)
(8.08473 0 1.19343)
(8.255 0 1.21321)
(7.79945 0 1.33068)
(7.98694 0 1.35452)
(7.49102 0 1.47885)
(7.69673 0 1.50738)
(7.15854 0 1.63781)
(7.3835 0 1.67198)
(6.80104 0 1.80672)
(7.0463 0 1.84798)
(6.41744 0 1.98377)
(6.684 0 2.03425)
(6.0065 0 2.16576)
(6.29528 0 2.22854)
(5.56687 0 2.34755)
(5.87853 0 2.42699)
(5.09706 0 2.52147)
(5.43179 0 2.62356)
(4.59551 0 2.67666)
(4.95272 0 2.8094)
(4.06067 0 2.79842)
(4.43865 0 2.97214)
(3.49092 0 2.8679)
(3.88656 0 3.09537)
(2.88432 0 2.8616)
(3.29355 0 3.1585)
(2.23683 0 2.75252)
(2.65553 0 3.13638)
(1.54163 0 2.51949)
(1.97382 0 3.00156)
(0.793274 0 2.12945)
(1.20663 0 2.73877)
(0.556601 0 2.2895)
(9.98246 0 0.110839)
(9.993 0 0.0785179)
(9.94757 0 0.182663)
(9.96946 0 0.155337)
(9.89497 0 0.254269)
(9.92704 0 0.231315)
(9.82484 0 0.327317)
(9.86665 0 0.308052)
(9.73756 0 0.403189)
(9.78929 0 0.387164)
(9.63327 0 0.482935)
(9.69539 0 0.469872)
(9.51188 0 0.56751)
(9.58492 0 0.557186)
(9.37319 0 0.657879)
(9.45772 0 0.650106)
(9.21688 0 0.755015)
(9.31351 0 0.749651)
(9.04252 0 0.859883)
(9.15194 0 0.856834)
(8.84962 0 0.973437)
(8.9726 0 0.972659)
(8.63759 0 1.09661)
(8.77495 0 1.09812)
(8.4058 0 1.23031)
(8.55842 0 1.23418)
(8.15355 0 1.37532)
(8.32235 0 1.38176)
(7.8801 0 1.53233)
(8.06601 0 1.54166)
(7.58461 0 1.70171)
(7.78859 0 1.71449)
(7.26615 0 1.88346)
(7.48918 0 1.90059)
(6.92362 0 2.07696)
(7.16669 0 2.09981)
(6.5557 0 2.28065)
(6.81977 0 2.31129)
(6.1607 0 2.49163)
(6.44671 0 2.53317)
(5.73645 0 2.7052)
(6.04527 0 2.76209)
(5.28019 0 2.91413)
(5.61253 0 2.99266)
(4.78847 0 3.10808)
(5.14469 0 3.2168)
(4.25717 0 3.27293)
(4.63705 0 3.42299)
(3.68154 0 3.39041)
(4.08399 0 3.59566)
(3.05651 0 3.43808)
(3.47956 0 3.71486)
(2.37655 0 3.39005)
(2.81696 0 3.75628)
(1.63712 0 3.22425)
(2.09814 0 3.69198)
(0.838758 0 2.89857)
(1.27832 0 3.50224)
(0.573218 0 3.11101)
(9.98269 0 0.123827)
(9.99314 0 0.0869964)
(9.9486 0 0.204701)
(9.97019 0 0.172436)
(9.89769 0 0.285774)
(9.92908 0 0.257466)
(9.8301 0 0.368602)
(9.87091 0 0.34361)
(9.74613 0 0.454585)
(9.79667 0 0.432414)
(9.64591 0 0.54489)
(9.70668 0 0.525181)
(9.5294 0 0.64058)
(9.60093 0 0.623041)
(9.39643 0 0.742713)
(9.47929 0 0.727087)
(9.24671 0 0.852348)
(9.34154 0 0.83842)
(9.07988 0 0.970539)
(9.1874 0 0.95814)
(8.89549 0 1.09833)
(9.01647 0 1.08734)
(8.69302 0 1.23674)
(8.8283 0 1.2271)
(8.47184 0 1.38677)
(8.62233 0 1.37847)
(8.23129 0 1.54931)
(8.39795 0 1.54249)
(7.97059 0 1.72516)
(8.15441 0 1.72007)
(7.68884 0 1.91485)
(7.89087 0 1.91197)
(7.38498 0 2.11857)
(7.6063 0 2.11872)
(7.05768 0 2.33598)
(7.29942 0 2.34044)
(6.70524 0 2.5659)
(6.9686 0 2.57668)
(6.32543 0 2.80602)
(6.61166 0 2.82609)
(5.91524 0 3.05232)
(6.2257 0 3.08608)
(5.47073 0 3.29854)
(5.80683 0 3.35226)
(4.98678 0 3.5354)
(5.34991 0 3.61778)
(4.45707 0 3.74991)
(4.84836 0 3.8725)
(3.87426 0 3.92474)
(4.2942 0 4.10218)
(3.23072 0 4.03793)
(3.67868 0 4.28769)
(2.51962 0 4.06288)
(2.99204 0 4.40457)
(1.73758 0 3.97382)
(2.23634 0 4.42218)
(0.889095 0 3.71609)
(1.36276 0 4.31365)
(0.598605 0 3.98182)
(9.98316 0 0.136482)
(9.99337 0 0.0952419)
(9.95019 0 0.226016)
(9.97123 0 0.188976)
(9.90125 0 0.316089)
(9.93175 0 0.282602)
(9.83653 0 0.408226)
(9.87611 0 0.377662)
(9.75626 0 0.503846)
(9.8053 0 0.475671)
(9.66057 0 0.604202)
(9.71963 0 0.577988)
(9.54947 0 0.710454)
(9.61907 0 0.685839)
(9.42282 0 0.823745)
(9.50355 0 0.800406)
(9.2804 0 0.945215)
(9.37289 0 0.922865)
(9.12189 0 1.076)
(9.22686 0 1.0544)
(8.94689 0 1.21724)
(9.06515 0 1.19618)
(8.75492 0 1.37004)
(8.88734 0 1.34938)
(8.54541 0 1.5355)
(8.69293 0 1.51516)
(8.3177 0 1.71465)
(8.48133 0 1.69465)
(8.07097 0 1.90841)
(8.25181 0 1.88891)
(7.80424 0 2.11752)
(8.00348 0 2.09891)
(7.51631 0 2.34244)
(7.73522 0 2.32541)
(7.20557 0 2.5832)
(7.44557 0 2.5689)
(6.86995 0 2.83917)
(7.13261 0 2.8294)
(6.50664 0 3.10876)
(6.79374 0 3.10628)
(6.11181 0 3.38899)
(6.42543 0 3.39794)
(5.68038 0 3.67489)
(6.02289 0 3.70128)
(5.20565 0 3.95876)
(5.57969 0 4.01111)
(4.67919 0 4.22923)
(5.08747 0 4.31924)
(4.09106 0 4.47028)
(4.53574 0 4.61333)
(3.43069 0 4.66026)
(3.91256 0 4.87551)
(2.68876 0 4.77064)
(3.204 0 5.08097)
(1.86096 0 4.76965)
(2.41009 0 5.19512)
(0.953756 0 4.58664)
(1.4756 0 5.18121)
(0.639013 0 4.91597)
(9.98382 0 0.148681)
(9.99366 0 0.103168)
(9.95222 0 0.246468)
(9.97252 0 0.204824)
(9.90553 0 0.345063)
(9.93492 0 0.306586)
(9.84397 0 0.446009)
(9.88209 0 0.410052)
(9.76774 0 0.550747)
(9.81503 0 0.516742)
(9.67702 0 0.660599)
(9.73403 0 0.628059)
(9.57181 0 0.776808)
(9.6391 0 0.745304)
(9.45205 0 0.900596)
(9.53018 0 0.869738)
(9.31756 0 1.03318)
(9.40718 0 1.00261)
(9.16808 0 1.17577)
(9.26992 0 1.14517)
(9.00328 0 1.32959)
(9.11815 0 1.29867)
(8.82274 0 1.49586)
(8.95152 0 1.46438)
(8.62593 0 1.67576)
(8.7696 0 1.64355)
(8.4122 0 1.87048)
(8.57185 0 1.83745)
(8.18076 0 2.08112)
(8.35757 0 2.0473)
(7.93057 0 2.30865)
(8.12588 0 2.27427)
(7.66029 0 2.55388)
(7.87561 0 2.51943)
(7.36813 0 2.81729)
(7.60519 0 2.7837)
(7.05168 0 3.09892)
(7.31251 0 3.06769)
(6.70763 0 3.39812)
(6.99467 0 3.37162)
(6.33145 0 3.71319)
(6.64765 0 3.69506)
(5.91702 0 4.04083)
(6.26593 0 4.03654)
(5.45614 0 4.37541)
(5.84197 0 4.39297)
(4.93821 0 4.70785)
(5.36569 0 4.75875)
(4.35023 0 5.02415)
(4.82393 0 5.12435)
(3.67754 0 5.30348)
(4.20075 0 5.4743)
(2.90597 0 5.5152)
(3.47599 0 5.78438)
(2.02666 0 5.61979)
(2.6437 0 6.01615)
(1.04464 0 5.52592)
(1.63697 0 6.12033)
(0.704273 0 5.93912)
(9.9846 0 0.160326)
(9.994 0 0.110709)
(9.95459 0 0.265933)
(9.97401 0 0.219874)
(9.91039 0 0.372557)
(9.93849 0 0.329292)
(9.85226 0 0.481783)
(9.88872 0 0.440639)
(9.78041 0 0.595085)
(9.82569 0 0.555456)
(9.69502 0 0.713838)
(9.7497 0 0.675184)
(9.59616 0 0.839357)
(9.66077 0 0.801188)
(9.48378 0 0.972932)
(9.55891 0 0.934792)
(9.35779 0 1.11585)
(9.44407 0 1.07731)
(9.218 0 1.26939)
(9.31615 0 1.23006)
(9.06414 0 1.43487)
(9.17497 0 1.39436)
(8.89586 0 1.61358)
(9.02027 0 1.57157)
(8.71272 0 1.80685)
(8.8517 0 1.76304)
(8.51412 0 2.01598)
(8.66879 0 1.97015)
(8.29929 0 2.24229)
(8.47093 0 2.19431)
(8.06721 0 2.48703)
(8.25729 0 2.43693)
(7.81652 0 2.75138)
(8.02675 0 2.6994)
(7.54532 0 3.03637)
(7.77774 0 2.98309)
(7.25101 0 3.34283)
(7.50811 0 3.2893)
(6.93 0 3.67118)
(7.21486 0 3.61919)
(6.57727 0 4.02123)
(6.89376 0 3.97367)
(6.1859 0 4.39175)
(6.5389 0 4.35315)
(5.7464 0 4.77977)
(6.142 0 4.75712)
(5.24603 0 5.17942)
(5.69159 0 5.18335)
(4.66825 0 5.58006)
(5.17194 0 5.62651)
(3.99271 0 5.96341)
(4.56243 0 6.07562)
(3.19679 0 6.29825)
(3.83426 0 6.50999)
(2.26074 0 6.53695)
(2.96941 0 6.89015)
(1.18014 0 6.5611)
(1.87838 0 7.15372)
(0.812634 0 7.095)
(9.98549 0 0.171341)
(9.99438 0 0.117816)
(9.95725 0 0.284303)
(9.97564 0 0.234037)
(9.91575 0 0.398443)
(9.9424 0 0.350611)
(9.86128 0 0.5154)
(9.89591 0 0.469294)
(9.7941 0 0.636679)
(9.83716 0 0.59166)
(9.71438 0 0.763703)
(9.76645 0 0.71918)
(9.62223 0 0.897847)
(9.68385 0 0.853271)
(9.51769 0 1.04046)
(9.58942 0 0.995313)
(9.40071 0 1.19288)
(9.48318 0 1.14667)
(9.27117 0 1.35647)
(9.36509 0 1.30872)
(9.12891 0 1.5326)
(9.23508 0 1.48284)
(8.97366 0 1.72266)
(9.09296 0 1.67046)
(8.80506 0 1.92809)
(8.93849 0 1.87303)
(8.62262 0 2.15034)
(8.77133 0 2.09205)
(8.42567 0 2.39093)
(8.59097 0 2.32909)
(8.21327 0 2.6514)
(8.39672 0 2.5858)
(7.98412 0 2.93333)
(8.18758 0 2.86389)
(7.73641 0 3.23835)
(7.96215 0 3.16521)
(7.46757 0 3.56809)
(7.71844 0 3.49173)
(7.17398 0 3.92419)
(7.4536 0 3.84561)
(6.85052 0 4.30815)
(7.16359 0 4.22917)
(6.48993 0 4.72113)
(6.84261 0 4.64486)
(6.08196 0 5.16345)
(6.48234 0 5.09514)
(5.61219 0 5.63366)
(6.07078 0 5.58199)
(5.06056 0 6.12661)
(5.59048 0 6.10594)
(4.39976 0 6.63006)
(5.01659 0 6.66382)
(3.59435 0 7.11711)
(4.31024 0 7.24426)
(2.60326 0 7.53627)
(3.43418 0 7.81556)
(1.39387 0 7.73592)
(2.25577 0 8.31026)
(1.00255 0 8.46021)
(9.98646 0 0.181664)
(9.99478 0 0.124448)
(9.96013 0 0.301489)
(9.97739 0 0.24724)
(9.92151 0 0.422613)
(9.94658 0 0.370451)
(9.87092 0 0.546727)
(9.90355 0 0.495909)
(9.80864 0 0.675371)
(9.84928 0 0.62522)
(9.73488 0 0.810007)
(9.7841 0 0.759889)
(9.64979 0 0.952055)
(9.70812 0 0.901369)
(9.55345 0 1.10291)
(9.62144 0 1.05108)
(9.4459 0 1.26397)
(9.52416 0 1.21044)
(9.32712 0 1.43664)
(9.41633 0 1.38085)
(9.19701 0 1.62236)
(9.29794 0 1.56376)
(9.05544 0 1.82259)
(9.16895 0 1.76064)
(8.90215 0 2.03886)
(9.02923 0 1.97303)
(8.73681 0 2.27279)
(8.87858 0 2.20253)
(8.55887 0 2.52606)
(8.71666 0 2.45086)
(8.36759 0 2.8005)
(8.54297 0 2.71986)
(8.16187 0 3.09808)
(8.35675 0 3.01156)
(7.94012 0 3.42098)
(8.15691 0 3.32824)
(7.70008 0 3.77167)
(7.94181 0 3.67248)
(7.43847 0 4.15297)
(7.70909 0 4.04737)
(7.15056 0 4.56813)
(7.45535 0 4.45657)
(6.82951 0 5.02088)
(7.17557 0 4.90459)
(6.46527 0 5.51537)
(6.86239 0 5.39692)
(6.04302 0 6.05573)
(6.5048 0 5.9403)
(5.54055 0 6.64505)
(6.0859 0 6.54264)
(4.92424 0 7.28264)
(5.57958 0 7.21242)
(4.14302 0 7.95657)
(4.93983 0 7.95646)
(3.12073 0 8.62848)
(4.10772 0 8.77009)
(1.756 0 9.12282)
(2.87801 0 9.61536)
(1.365 0 10.1801)
(9.98749 0 0.191243)
(9.99521 0 0.130575)
(9.96319 0 0.317417)
(9.97924 0 0.259428)
(9.9276 0 0.444973)
(9.95097 0 0.388735)
(9.88107 0 0.575655)
(9.91155 0 0.520389)
(9.8239 0 0.711033)
(9.86194 0 0.656028)
(9.75632 0 0.8526)
(9.80249 0 0.79718)
(9.67856 0 1.00181)
(9.73335 0 0.945327)
(9.59074 0 1.1601)
(9.65468 0 1.10192)
(9.49297 0 1.3289)
(9.56665 0 1.2684)
(9.38534 0 1.50965)
(9.46939 0 1.44622)
(9.26785 0 1.70383)
(9.36302 0 1.63683)
(9.14048 0 1.91298)
(9.24758 0 1.84177)
(9.00315 0 2.13871)
(9.12312 0 2.06263)
(8.85566 0 2.38274)
(8.98958 0 2.30108)
(8.69771 0 2.64692)
(8.84684 0 2.55896)
(8.52878 0 2.93329)
(8.69467 0 2.83826)
(8.34812 0 3.24417)
(8.53262 0 3.14125)
(8.15455 0 3.58223)
(8.36003 0 3.47055)
(7.94635 0 3.95066)
(8.17583 0 3.82926)
(7.72099 0 4.35332)
(7.97844 0 4.22117)
(7.47474 0 4.79507)
(7.76553 0 4.65108)
(7.20206 0 5.28209)
(7.53363 0 5.12517)
(6.89462 0 5.82235)
(7.27753 0 5.65165)
(6.5395 0 6.42624)
(6.9893 0 6.24165)
(6.11602 0 7.1072)
(6.65629 0 6.9107)
(5.58951 0 7.88245)
(6.25802 0 7.68108)
(4.89851 0 8.772)
(5.75417 0 8.58643)
(3.92592 0 9.79541)
(5.08557 0 9.67822)
(2.43352 0 10.8513)
(3.9798 0 11.0426)
(2.14751 0 12.5636)
(9.98857 0 0.20004)
(9.99565 0 0.136172)
(9.96639 0 0.332025)
(9.98116 0 0.270553)
(9.93395 0 0.465442)
(9.95552 0 0.405401)
(9.89161 0 0.602077)
(9.91985 0 0.542661)
(9.83971 0 0.743526)
(9.87503 0 0.683995)
(9.77852 0 0.891306)
(9.82148 0 0.83095)
(9.70829 0 1.0469)
(9.75938 0 0.985025)
(9.62923 0 1.21175)
(9.68895 0 1.14769)
(9.54152 0 1.38733)
(9.61044 0 1.3204)
(9.44533 0 1.5751)
(9.52407 0 1.50463)
(9.3408 0 1.77657)
(9.43006 0 1.70184)
(9.22805 0 1.99332)
(9.3286 0 1.9136)
(9.10714 0 2.227)
(9.21987 0 2.14151)
(8.9781 0 2.47942)
(9.10402 0 2.3873)
(8.84086 0 2.75253)
(8.98118 0 2.65287)
(8.69525 0 3.04855)
(8.85139 0 2.94032)
(8.54091 0 3.37003)
(8.71463 0 3.25204)
(8.37726 0 3.71999)
(8.57073 0 3.59087)
(8.20333 0 4.10213)
(8.41939 0 3.96022)
(8.0177 0 4.5211)
(8.26001 0 4.36433)
(7.81819 0 4.98292)
(8.09172 0 4.80866)
(7.60155 0 5.49563)
(7.91318 0 5.30043)
(7.36279 0 6.07025)
(7.72245 0 5.84947)
(7.09407 0 6.72244)
(7.51671 0 6.46969)
(6.78232 0 7.47541)
(7.2918 0 7.18164)
(6.40413 0 8.36594)
(7.04243 0 8.01772)
(5.91269 0 9.45869)
(6.75862 0 9.03446)
(5.19555 0 10.9005)
(6.45994 0 10.3478)
(3.88668 0 13.1737)
(6.19295 0 12.2942)
(5.27157 0 16.3704)
(0.380693 0 -0.271816)
(0.196901 0 -0.372865)
(0.710329 0 -0.22074)
(0.478761 0 -0.315233)
(0.990201 0 -0.180252)
(0.755077 0 -0.261322)
(1.23238 0 -0.150326)
(1.00221 0 -0.220789)
(1.44492 0 -0.127174)
(1.21516 0 -0.189183)
(1.63224 0 -0.108272)
(1.40039 0 -0.162809)
(1.79719 0 -0.0923184)
(1.56329 0 -0.139969)
(1.94173 0 -0.0785629)
(1.70648 0 -0.11976)
(2.06729 0 -0.0664942)
(1.83111 0 -0.101572)
(2.17502 0 -0.0556886)
(1.93809 0 -0.0850929)
(2.26565 0 -0.045644)
(2.02848 0 -0.0698993)
(2.33824 0 -0.0360501)
(2.10284 0 -0.0546541)
(2.39268 0 -0.0264186)
(2.15918 0 -0.0400314)
(2.43092 0 -0.0164995)
(2.19842 0 -0.0274499)
(2.45414 0 -0.0095984)
(2.22263 0 -0.0162718)
(2.46442 0 -0.00931624)
(2.21413 0 -0.00703558)
(2.46523 0 -0.0147716)
(2.1737 0 -0.000537884)
(2.45944 0 -0.0218697)
(2.10793 0 0.00377656)
(2.44583 0 -0.0259868)
(2.02683 0 0.00866765)
(2.41917 0 -0.0250116)
(1.93721 0 0.0165824)
(2.37648 0 -0.0195135)
(1.84185 0 0.0259245)
(2.31983 0 -0.011586)
(1.74377 0 0.0335829)
(2.2562 0 -0.00368621)
(1.64915 0 0.0368407)
(2.195 0 0.00204762)
(1.56604 0 0.0345931)
(2.1462 0 0.00379284)
(1.50359 0 0.0269315)
(2.11834 0 0.00125659)
(1.46705 0 0.0150104)
(2.11358 0 -0.00216484)
(1.45714 0 0.00250424)
(2.14576 0 -0.00555486)
(1.48505 0 -0.016529)
(2.23001 0 -0.0133107)
(1.56222 0 -0.0422589)
(1.7499 0 -0.073228)
(0.278072 0 -0.496767)
(0.116313 0 -0.64522)
(0.54744 0 -0.422231)
(0.348161 0 -0.57283)
(0.783999 0 -0.35326)
(0.554776 0 -0.482202)
(0.99004 0 -0.299424)
(0.744426 0 -0.40863)
(1.17138 0 -0.256469)
(0.907253 0 -0.3506)
(1.33159 0 -0.220311)
(1.04755 0 -0.302052)
(1.47265 0 -0.188764)
(1.16863 0 -0.259664)
(1.59567 0 -0.160635)
(1.27186 0 -0.221687)
(1.7014 0 -0.135343)
(1.35741 0 -0.187105)
(1.79089 0 -0.112457)
(1.42521 0 -0.155783)
(1.86563 0 -0.0900232)
(1.4761 0 -0.12754)
(1.92322 0 -0.0681297)
(1.51336 0 -0.0980145)
(1.96459 0 -0.0516034)
(1.53054 0 -0.070448)
(1.99042 0 -0.0392996)
(1.48967 0 -0.0459935)
(1.97964 0 -0.0232475)
(1.41658 0 -0.00871638)
(1.9213 0 -0.00272108)
(1.33062 0 0.0328875)
(1.81433 0 0.0175927)
(1.21807 0 0.0709393)
(1.67477 0 0.0366672)
(1.07919 0 0.0948227)
(1.51906 0 0.0549498)
(0.927033 0 0.107854)
(1.36066 0 0.0711757)
(0.773014 0 0.115098)
(1.20883 0 0.0825612)
(0.628813 0 0.118123)
(1.07189 0 0.0859628)
(0.500919 0 0.114778)
(0.958182 0 0.0797172)
(0.393028 0 0.102666)
(0.873542 0 0.0645374)
(0.3108 0 0.082435)
(0.819871 0 0.0436373)
(0.26037 0 0.0565515)
(0.797251 0 0.0207138)
(0.245952 0 0.0271994)
(0.815963 0 -0.00588576)
(0.263593 0 -0.00734044)
(0.890279 0 -0.0437014)
(0.336952 0 -0.0547052)
(1.03721 0 -0.0932398)
(0.454571 0 -0.115954)
(0.68181 0 -0.176127)
(0.186718 0 -0.732266)
(0.0610615 0 -0.828099)
(0.369066 0 -0.643085)
(0.218101 0 -0.747211)
(0.529096 0 -0.547828)
(0.333297 0 -0.631626)
(0.667372 0 -0.469385)
(0.446387 0 -0.534691)
(0.78589 0 -0.405008)
(0.536677 0 -0.456096)
(0.886168 0 -0.349783)
(0.608822 0 -0.389205)
(0.969079 0 -0.300755)
(0.663726 0 -0.330022)
(1.03451 0 -0.256123)
(0.701625 0 -0.275902)
(1.08139 0 -0.215427)
(0.721354 0 -0.225027)
(1.10986 0 -0.180586)
(0.721594 0 -0.178271)
(1.12711 0 -0.150552)
(0.698655 0 -0.14084)
(1.11989 0 -0.113677)
(0.614602 0 -0.0925789)
(1.05116 0 -0.0631807)
(0.527025 0 -0.019921)
(0.918835 0 -0.00648836)
(0.41879 0 0.0489987)
(0.767339 0 0.0514255)
(0.275409 0 0.0974667)
(0.621748 0 0.103546)
(0.14471 0 0.132521)
(0.478077 0 0.140432)
(0.013156 0 0.166937)
(0.330467 0 0.161523)
(-0.121753 0 0.191122)
(0.18225 0 0.170196)
(-0.254374 0 0.202266)
(0.0422115 0 0.169505)
(-0.379835 0 0.202194)
(-0.0801686 0 0.160684)
(-0.489117 0 0.192439)
(-0.180336 0 0.143358)
(-0.577592 0 0.174169)
(-0.256656 0 0.117661)
(-0.644341 0 0.146849)
(-0.305578 0 0.085818)
(-0.686773 0 0.110087)
(-0.322233 0 0.0491932)
(-0.701231 0 0.0657434)
(-0.301081 0 0.00448153)
(-0.683161 0 0.0158013)
(-0.231318 0 -0.0541471)
(-0.630588 0 -0.0440443)
(-0.110269 0 -0.129505)
(-0.537185 0 -0.116888)
(0.0599933 0 -0.204852)
(-0.422298 0 -0.201351)
(-0.267519 0 -0.25855)
(0.10148 0 -0.860652)
(0.0142401 0 -0.927492)
(0.190123 0 -0.754512)
(0.0875652 0 -0.831981)
(0.263728 0 -0.638201)
(0.105959 0 -0.700352)
(0.322141 0 -0.540789)
(0.135093 0 -0.587945)
(0.364487 0 -0.458851)
(0.142223 0 -0.493789)
(0.390402 0 -0.387343)
(0.134545 0 -0.411729)
(0.399915 0 -0.323047)
(0.109683 0 -0.338094)
(0.392391 0 -0.263331)
(0.0666872 0 -0.269668)
(0.36471 0 -0.205125)
(0.00331632 0 -0.202633)
(0.305762 0 -0.142957)
(-0.0821883 0 -0.13171)
(0.186847 0 -0.0684526)
(-0.189897 0 -0.0491318)
(0.0247005 0 0.0128279)
(-0.33114 0 0.0295169)
(-0.11298 0 0.0813198)
(-0.467122 0 0.0813032)
(-0.227352 0 0.130687)
(-0.575313 0 0.1311)
(-0.34495 0 0.16838)
(-0.693722 0 0.17989)
(-0.470386 0 0.200833)
(-0.810413 0 0.218362)
(-0.592578 0 0.226456)
(-0.924474 0 0.248583)
(-0.708602 0 0.240167)
(-1.03272 0 0.266816)
(-0.816016 0 0.240973)
(-1.13176 0 0.270688)
(-0.910505 0 0.230256)
(-1.21858 0 0.260961)
(-0.987863 0 0.209429)
(-1.28938 0 0.239414)
(-1.04428 0 0.179092)
(-1.34116 0 0.207622)
(-1.07754 0 0.139166)
(-1.37219 0 0.166099)
(-1.08662 0 0.090029)
(-1.38222 0 0.11522)
(-1.06977 0 0.0326028)
(-1.3703 0 0.0564454)
(-1.02412 0 -0.033451)
(-1.33708 0 -0.00879767)
(-0.951661 0 -0.108684)
(-1.27851 0 -0.0821669)
(-0.860537 0 -0.18973)
(-1.20608 0 -0.163698)
(-0.770742 0 -0.260605)
(-1.12973 0 -0.246389)
(-1.07094 0 -0.305541)
(0.00945113 0 -0.901919)
(-0.033802 0 -0.936748)
(0.00593307 0 -0.780098)
(-0.048938 0 -0.828617)
(-0.0116584 0 -0.649537)
(-0.123155 0 -0.683926)
(-0.0383148 0 -0.538739)
(-0.182748 0 -0.563643)
(-0.0806242 0 -0.441784)
(-0.259801 0 -0.456128)
(-0.139839 0 -0.354854)
(-0.347789 0 -0.360264)
(-0.217977 0 -0.273726)
(-0.448937 0 -0.271788)
(-0.317248 0 -0.193954)
(-0.563629 0 -0.187418)
(-0.439486 0 -0.11198)
(-0.692256 0 -0.103745)
(-0.580369 0 -0.0291183)
(-0.827586 0 -0.0204316)
(-0.709949 0 0.0432577)
(-0.958755 0 0.0508017)
(-0.817913 0 0.0992623)
(-1.0691 0 0.110814)
(-0.931344 0 0.149825)
(-1.18142 0 0.164699)
(-1.04727 0 0.199601)
(-1.29373 0 0.214316)
(-1.15906 0 0.24172)
(-1.40344 0 0.258243)
(-1.26726 0 0.273228)
(-1.50765 0 0.292412)
(-1.36747 0 0.293417)
(-1.60386 0 0.315542)
(-1.45693 0 0.299874)
(-1.68975 0 0.325176)
(-1.53409 0 0.291885)
(-1.7636 0 0.319841)
(-1.59697 0 0.270577)
(-1.82391 0 0.300065)
(-1.64323 0 0.237644)
(-1.86894 0 0.267506)
(-1.67083 0 0.1944)
(-1.89713 0 0.223989)
(-1.67913 0 0.141724)
(-1.90799 0 0.170906)
(-1.66903 0 0.0808503)
(-1.90253 0 0.10951)
(-1.64172 0 0.0128469)
(-1.8821 0 0.0413738)
(-1.59877 0 -0.0618466)
(-1.84825 0 -0.0319422)
(-1.54435 0 -0.142187)
(-1.80262 0 -0.110799)
(-1.48706 0 -0.223799)
(-1.75361 0 -0.193129)
(-1.43465 0 -0.293454)
(-1.70978 0 -0.272674)
(-1.68584 0 -0.332589)
(-0.0779267 0 -0.850236)
(-0.0863585 0 -0.860424)
(-0.177669 0 -0.716571)
(-0.186893 0 -0.733233)
(-0.282683 0 -0.580393)
(-0.34508 0 -0.585873)
(-0.396951 0 -0.462403)
(-0.487416 0 -0.459469)
(-0.519387 0 -0.356807)
(-0.636038 0 -0.347143)
(-0.650439 0 -0.260424)
(-0.786868 0 -0.246365)
(-0.789714 0 -0.170071)
(-0.93873 0 -0.153602)
(-0.935133 0 -0.0843335)
(-1.08956 0 -0.0669328)
(-1.07709 0 -0.00524487)
(-1.23239 0 0.0110935)
(-1.20263 0 0.0642082)
(-1.3639 0 0.0787311)
(-1.31706 0 0.125891)
(-1.48121 0 0.139052)
(-1.43001 0 0.181759)
(-1.59667 0 0.195861)
(-1.542 0 0.231853)
(-1.70901 0 0.247035)
(-1.65046 0 0.276139)
(-1.81681 0 0.292178)
(-1.752 0 0.311977)
(-1.91773 0 0.329411)
(-1.84504 0 0.33668)
(-2.00983 0 0.356082)
(-1.92717 0 0.348467)
(-2.09133 0 0.37042)
(-1.99681 0 0.34573)
(-2.16084 0 0.370607)
(-2.0532 0 0.328126)
(-2.21754 0 0.355757)
(-2.09561 0 0.296725)
(-2.2609 0 0.326445)
(-2.12326 0 0.253323)
(-2.29041 0 0.284298)
(-2.13568 0 0.199754)
(-2.30577 0 0.231349)
(-2.13336 0 0.13768)
(-2.3075 0 0.169563)
(-2.11795 0 0.0688609)
(-2.29715 0 0.100801)
(-2.09155 0 -0.00528046)
(-2.27689 0 0.0268022)
(-2.05711 0 -0.0836329)
(-2.24807 0 -0.0504972)
(-2.01934 0 -0.164611)
(-2.21545 0 -0.13067)
(-1.98356 0 -0.244627)
(-2.18427 0 -0.211512)
(-1.95225 0 -0.312941)
(-2.16073 0 -0.28838)
(-2.15134 0 -0.346647)
(-0.167125 0 -0.715683)
(-0.142157 0 -0.696735)
(-0.351734 0 -0.576718)
(-0.317829 0 -0.55669)
(-0.535749 0 -0.442096)
(-0.54828 0 -0.414055)
(-0.717898 0 -0.325367)
(-0.755054 0 -0.293409)
(-0.896705 0 -0.221787)
(-0.953187 0 -0.18798)
(-1.07007 0 -0.12817)
(-1.13894 0 -0.0956908)
(-1.23497 0 -0.0428413)
(-1.30937 0 -0.0136702)
(-1.38355 0 0.0322537)
(-1.46463 0 0.0561735)
(-1.51617 0 0.0975669)
(-1.60443 0 0.118377)
(-1.63998 0 0.157386)
(-1.73376 0 0.176521)
(-1.75966 0 0.213418)
(-1.85711 0 0.231352)
(-1.87398 0 0.264656)
(-1.97402 0 0.28195)
(-1.98249 0 0.309635)
(-2.08399 0 0.326812)
(-2.0835 0 0.347013)
(-2.18608 0 0.364682)
(-2.17516 0 0.37473)
(-2.27893 0 0.393657)
(-2.2562 0 0.390664)
(-2.36131 0 0.411541)
(-2.32528 0 0.393125)
(-2.43218 0 0.416575)
(-2.38162 0 0.380985)
(-2.49082 0 0.407367)
(-2.42505 0 0.354207)
(-2.53694 0 0.383421)
(-2.45559 0 0.313915)
(-2.57055 0 0.345436)
(-2.47336 0 0.26198)
(-2.59177 0 0.295089)
(-2.4788 0 0.200544)
(-2.60104 0 0.234577)
(-2.47301 0 0.131764)
(-2.59945 0 0.166208)
(-2.45794 0 0.057759)
(-2.58879 0 0.0922834)
(-2.43596 0 -0.0197424)
(-2.57156 0 0.014671)
(-2.41042 0 -0.0992728)
(-2.54934 0 -0.0642586)
(-2.38544 0 -0.179244)
(-2.52751 0 -0.143813)
(-2.36447 0 -0.256858)
(-2.51007 0 -0.222282)
(-2.34894 0 -0.322688)
(-2.50098 0 -0.296167)
(-2.50013 0 -0.351358)
(-0.251243 0 -0.509452)
(-0.20078 0 -0.450658)
(-0.508468 0 -0.375161)
(-0.441174 0 -0.310705)
(-0.753897 0 -0.253246)
(-0.722875 0 -0.184893)
(-0.981838 0 -0.14736)
(-0.965768 0 -0.085603)
(-1.18961 0 -0.0553086)
(-1.18475 0 -0.00303582)
(-1.37386 0 0.0221966)
(-1.38005 0 0.0644456)
(-1.53584 0 0.087381)
(-1.55412 0 0.123781)
(-1.68258 0 0.145956)
(-1.70993 0 0.177753)
(-1.81994 0 0.201311)
(-1.85444 0 0.229496)
(-1.94907 0 0.253614)
(-1.98853 0 0.278521)
(-2.07 0 0.302225)
(-2.11314 0 0.324616)
(-2.18253 0 0.345905)
(-2.22846 0 0.366679)
(-2.28636 0 0.38311)
(-2.3345 0 0.403154)
(-2.38066 0 0.412129)
(-2.43093 0 0.432376)
(-2.46445 0 0.430976)
(-2.51709 0 0.452386)
(-2.53697 0 0.437759)
(-2.59236 0 0.461169)
(-2.59756 0 0.431008)
(-2.65621 0 0.457061)
(-2.64594 0 0.409918)
(-2.70831 0 0.438928)
(-2.6822 0 0.374679)
(-2.74865 0 0.406519)
(-2.70668 0 0.326517)
(-2.77742 0 0.360658)
(-2.71989 0 0.267419)
(-2.79502 0 0.303113)
(-2.72273 0 0.199763)
(-2.80221 0 0.236261)
(-2.71671 0 0.126039)
(-2.80038 0 0.162722)
(-2.70401 0 0.0485954)
(-2.79152 0 0.0851038)
(-2.68751 0 -0.0305652)
(-2.7782 0 0.00556781)
(-2.67002 0 -0.109792)
(-2.76269 0 -0.073686)
(-2.65532 0 -0.187794)
(-2.74999 0 -0.151543)
(-2.64598 0 -0.262414)
(-2.74387 0 -0.22708)
(-2.64341 0 -0.324999)
(-2.74627 0 -0.29746)
(-2.75157 0 -0.348928)
(-0.332307 0 -0.253307)
(-0.247283 0 -0.125184)
(-0.647607 0 -0.118215)
(-0.528967 0 -0.00918111)
(-0.920948 0 -0.0129043)
(-0.835746 0 0.0703306)
(-1.16085 0 0.0618177)
(-1.09459 0 0.133103)
(-1.37019 0 0.120013)
(-1.32219 0 0.183312)
(-1.55657 0 0.170822)
(-1.52274 0 0.226424)
(-1.72527 0 0.218721)
(-1.70256 0 0.26694)
(-1.8797 0 0.264678)
(-1.86466 0 0.305704)
(-2.0211 0 0.30893)
(-2.01184 0 0.343885)
(-2.15099 0 0.351031)
(-2.1459 0 0.381117)
(-2.27016 0 0.390054)
(-2.26824 0 0.416523)
(-2.37906 0 0.424538)
(-2.37976 0 0.448679)
(-2.47786 0 0.452738)
(-2.48096 0 0.475793)
(-2.56636 0 0.472745)