/*--------------------------------*- C++ -*----------------------------------*\
  =========                 |
  \\      /  F ield         | OpenFOAM: The Open Source CFD Toolbox
   \\    /   O peration     | Website:  https://openfoam.org
    \\  /    A nd           | Version:  dev
     \\/     M anipulation  |
\*---------------------------------------------------------------------------*/
FoamFile
{
    version     2.0;
    format      ascii;
    class       surfaceScalarField;
    location    "1.6";
    object      phi;
}
// * * * * * * * * * * * * * * * * * * * * * * * * * * * * * * * * * * * * * //

dimensions      [0 3 -1 0 0 0 0];

internalField   nonuniform List<scalar> 
5457
(
0.198417
0.00158278
0.196479
0.00193805
0.19419
0.00228895
0.191506
0.00268453
0.188424
0.00308217
0.184946
0.00347769
0.181066
0.0038794
0.176772
0.0042947
0.172043
0.00472875
0.166857
0.00518556
0.161189
0.00566866
0.155008
0.006181
0.148283
0.00672477
0.140982
0.007301
0.133073
0.00790907
0.124527
0.00854596
0.115322
0.0092054
0.105445
0.00987674
0.0949011
0.0105437
0.0837178
0.0111833
0.0719534
0.0117645
0.0597052
0.0122482
0.0471168
0.0125884
0.0343774
0.0127394
0.0216845
0.0126929
0.00904052
0.0126439
-0.00288355
0.0119241
-0.00843229
0.00554874
-0.00801413
-0.000418162
-0.00801413
0.199928
0.00165502
0.199175
0.00269117
0.197963
0.00350075
0.196329
0.00431867
0.194268
0.0051432
0.191777
0.00596869
0.188849
0.00680721
0.185471
0.00767226
0.181626
0.00857419
0.17729
0.00952132
0.172438
0.010521
0.167039
0.0115794
0.161063
0.0127014
0.154474
0.0138897
0.147239
0.0151438
0.139327
0.0164588
0.130709
0.0178231
0.121369
0.0192168
0.111304
0.0206087
0.100534
0.0219535
0.0891085
0.0231896
0.07712
0.0242367
0.0647128
0.0249955
0.0521041
0.0253481
0.0396424
0.0251546
0.0280896
0.0241968
0.0185569
0.0214568
0.00873773
0.0153679
0.00114811
0.00717146
-0.00686602
0.19978
0.00187485
0.199086
0.0033857
0.197944
0.00464254
0.196406
0.00585625
0.194479
0.00707032
0.192159
0.00828869
0.189441
0.00952551
0.186315
0.0107985
0.182766
0.0121227
0.178777
0.0135106
0.174324
0.0149733
0.169383
0.0165205
0.163925
0.0181599
0.157918
0.0198966
0.15133
0.0217318
0.144129
0.0236602
0.136283
0.0256682
0.12777
0.0277305
0.118573
0.0298055
0.108695
0.0318317
0.0981622
0.0337221
0.0870388
0.0353601
0.0754405
0.0365938
0.0635613
0.0372274
0.0517163
0.0369996
0.0403758
0.0355372
0.0297095
0.0321232
0.0191468
0.0259305
0.00956873
0.0167496
0.00270271
0.199703
0.00217219
0.199007
0.00408169
0.197885
0.00576394
0.196373
0.00736814
0.194484
0.00895944
0.192217
0.0105557
0.189569
0.0121741
0.186532
0.0138352
0.183097
0.0155578
0.17925
0.0173576
0.174975
0.0192486
0.170252
0.0212432
0.16506
0.0233515
0.159376
0.0255806
0.153175
0.0279331
0.14643
0.0304049
0.139116
0.0329821
0.131209
0.0356373
0.122691
0.0383244
0.11355
0.0409725
0.103793
0.0434792
0.0934494
0.0457034
0.082587
0.0474563
0.0713224
0.048492
0.0598281
0.0484939
0.0483015
0.0470638
0.0367942
0.0436304
0.0251756
0.0375492
0.0133305
0.0285946
0.0160333
0.199667
0.00250518
0.198963
0.00478564
0.197861
0.00686614
0.196378
0.0088508
0.194528
0.0108092
0.192313
0.0127713
0.189728
0.0147588
0.186769
0.0167946
0.183426
0.0189001
0.17969
0.0210938
0.175547
0.0233919
0.170982
0.0258084
0.165978
0.0283552
0.160518
0.0310407
0.154583
0.0338683
0.148153
0.0368349
0.141207
0.0399273
0.133727
0.0431182
0.12569
0.0463606
0.117082
0.0495813
0.107888
0.0526724
0.0981095
0.0554824
0.0877591
0.0578066
0.0768723
0.0593789
0.0655012
0.059865
0.0536995
0.0588655
0.0414452
0.0558847
0.0285813
0.0504131
0.0148505
0.0423253
0.0308838
0.199652
0.00285278
0.198948
0.0054904
0.197869
0.00794497
0.196424
0.010296
0.194623
0.0126102
0.192468
0.0149258
0.189958
0.0172694
0.187086
0.0196663
0.183846
0.0221401
0.180228
0.0247116
0.176221
0.0273988
0.171812
0.0302173
0.166987
0.0331801
0.161732
0.0362964
0.156029
0.0395708
0.149863
0.043001
0.143216
0.0465748
0.136067
0.0502667
0.128396
0.0540319
0.120177
0.0577999
0.111384
0.0614658
0.101986
0.0648804
0.0919521
0.0678403
0.0812516
0.0700794
0.0698517
0.0712649
0.0577142
0.071003
0.044758
0.0688409
0.0308477
0.0643234
0.0158736
0.0572994
0.0467574
0.19965
0.00320313
0.198953
0.00618708
0.197902
0.00899549
0.196502
0.0116967
0.194758
0.0143535
0.192675
0.0170089
0.190251
0.019694
0.18748
0.0224368
0.184357
0.0252629
0.180874
0.0281951
0.17702
0.0312532
0.172783
0.0344542
0.168151
0.0378122
0.163109
0.0413379
0.157643
0.0450368
0.151736
0.048908
0.145369
0.0529416
0.138521
0.0571152
0.131164
0.061389
0.123264
0.0656994
0.114779
0.069951
0.105653
0.0740067
0.0958164
0.0776766
0.0851871
0.0807088
0.0736701
0.0827819
0.0611639
0.0835092
0.0475578
0.0824469
0.0327614
0.0791198
0.0167853
0.0732755
0.0635428
0.199654
0.00354889
0.198973
0.0068679
0.197957
0.0100122
0.196607
0.0130464
0.19493
0.0160307
0.192928
0.0190105
0.190601
0.0220211
0.187945
0.0250929
0.184954
0.0282537
0.181621
0.0315279
0.177938
0.0349371
0.173892
0.0384999
0.169472
0.0422319
0.164665
0.0461453
0.159454
0.0502474
0.153822
0.0545398
0.147748
0.0590161
0.141204
0.0636589
0.134157
0.0684359
0.126562
0.0732945
0.118359
0.0781542
0.109468
0.0828973
0.0997878
0.0873571
0.0891908
0.0913058
0.0775304
0.0944422
0.064654
0.0963857
0.0504244
0.0966765
0.0347745
0.0947697
0.0177941
0.0902559
0.0813369
0.199664
0.00388513
0.199005
0.00752642
0.198028
0.0109893
0.196736
0.0143389
0.195132
0.0176338
0.193222
0.0209214
0.191003
0.02424
0.188473
0.0276225
0.185628
0.0310985
0.182462
0.0346943
0.178966
0.0384331
0.17513
0.0423352
0.170944
0.0464181
0.166394
0.0506958
0.161463
0.0551783
0.156132
0.0598708
0.150376
0.0647717
0.144164
0.0698707
0.137454
0.0751459
0.13019
0.0805591
0.122294
0.0860496
0.113666
0.0915257
0.10417
0.0968526
0.0936391
0.101837
0.0818727
0.106209
0.0686595
0.109599
0.0538128
0.111523
0.0372463
0.111336
0.0190896
0.108413
0.100426
0.199677
0.00420832
0.199046
0.00815737
0.198114
0.0119216
0.196884
0.0155682
0.195362
0.0191558
0.193551
0.0227331
0.19145
0.0263409
0.189058
0.0300143
0.186372
0.0337847
0.183386
0.03768
0.180094
0.041725
0.176487
0.045942
0.172555
0.0503501
0.168285
0.0549661
0.16366
0.0598031
0.15866
0.0648708
0.153258
0.0701737
0.147418
0.0757107
0.141092
0.0814722
0.134213
0.0874378
0.126691
0.0935714
0.118404
0.0998135
0.109186
0.106071
0.0988254
0.112197
0.0870625
0.117972
0.073603
0.123058
0.0581632
0.126963
0.0405654
0.128934
0.02091
0.128068
0.121336
0.199693
0.0045158
0.199093
0.00875647
0.198211
0.0128041
0.19705
0.016729
0.195616
0.0205903
0.193911
0.0244381
0.191936
0.0283151
0.189693
0.0322583
0.187176
0.0363008
0.184385
0.0404719
0.181312
0.0447981
0.17795
0.0493032
0.174292
0.0540087
0.170324
0.0589338
0.166032
0.0640954
0.161394
0.0695081
0.156384
0.0751837
0.150964
0.081131
0.145081
0.0873549
0.138664
0.0938551
0.131612
0.100624
0.123786
0.107639
0.114997
0.11486
0.104989
0.122205
0.0934303
0.12953
0.0799143
0.136574
0.0639872
0.14289
0.0452534
0.147668
0.023624
0.149698
0.14496
0.19971
0.00480552
0.199147
0.0093202
0.198318
0.0136326
0.197231
0.0178163
0.195889
0.0219316
0.194298
0.0260297
0.192458
0.0301548
0.190371
0.0343456
0.188035
0.0386366
0.185448
0.0430585
0.182607
0.0476391
0.179507
0.0524038
0.176139
0.0573762
0.172495
0.062578
0.168561
0.0680299
0.164317
0.0737516
0.159739
0.0797622
0.154789
0.086081
0.149416
0.0927277
0.143548
0.0997233
0.137081
0.10709
0.129872
0.114849
0.121714
0.123018
0.112319
0.1316
0.101285
0.140564
0.0880648
0.149795
0.0719484
0.159006
0.0521128
0.167503
0.0279045
0.173906
0.172865
0.19973
0.00507587
0.199204
0.0098457
0.198433
0.0144036
0.197423
0.0188261
0.19618
0.0231748
0.194708
0.0275021
0.193009
0.0318534
0.191086
0.0362688
0.188939
0.0407837
0.186567
0.04543
0.18397
0.0502368
0.181143
0.0552308
0.178082
0.0604372
0.17478
0.0658802
0.171226
0.0715838
0.167405
0.0775724
0.163295
0.0838718
0.158865
0.0905112
0.154069
0.097524
0.148841
0.104951
0.143087
0.112844
0.136669
0.121266
0.129388
0.130299
0.120944
0.140044
0.110895
0.150614
0.0985662
0.162124
0.0829351
0.174638
0.0624755
0.187963
0.0351569
0.201224
0.208022
0.19975
0.00532557
0.199265
0.0103307
0.198555
0.0151139
0.197626
0.0197547
0.196485
0.0243159
0.195137
0.0288507
0.193585
0.0334055
0.191832
0.0380215
0.18988
0.042735
0.187732
0.0475786
0.185387
0.0525821
0.182844
0.0577734
0.180102
0.063179
0.177157
0.0688249
0.174003
0.0747377
0.17063
0.0809456
0.167022
0.0874799
0.163156
0.0943774
0.158997
0.101683
0.154495
0.109453
0.149575
0.117764
0.144126
0.126715
0.137982
0.136444
0.130883
0.147142
0.122416
0.159081
0.111886
0.172653
0.0980629
0.188461
0.0786003
0.207425
0.0487263
0.231098
0.256748
0.199772
0.00555368
0.199329
0.0107733
0.198682
0.0157613
0.197837
0.0205994
0.196802
0.0253515
0.195581
0.0300716
0.194179
0.034807
0.192602
0.0395992
0.190851
0.0444852
0.188932
0.0494981
0.186846
0.0546681
0.184596
0.0600237
0.182182
0.0655921
0.179607
0.0714006
0.176867
0.0774771
0.173961
0.0838523
0.17088
0.090561
0.167612
0.0976448
0.16414
0.105155
0.160433
0.11316
0.156449
0.121748
0.152122
0.131042
0.147353
0.141213
0.141984
0.152511
0.135755
0.16531
0.128196
0.180212
0.11837
0.198287
0.104026
0.221769
0.077832
0.257293
0.33458
0.00830732
-0.00830732
0.0153232
-0.00701585
0.0212232
-0.00590007
0.0263136
-0.0050904
0.0307722
-0.00445855
0.0346918
-0.0039196
0.0381332
-0.00344144
0.0411426
-0.00300932
0.0437528
-0.00261025
0.0459837
-0.00223095
0.0478404
-0.00185665
0.0493446
-0.00150419
0.0505253
-0.00118072
0.0514068
-0.000881477
0.0520478
-0.000640982
0.0525188
-0.000471055
0.0527912
-0.000272404
0.0527208
7.0411e-05
0.0522109
0.000509898
0.0512978
0.000913098
0.0500999
0.00119787
0.0487969
0.00130303
0.0475943
0.00120259
0.0466924
0.00090195
0.0462145
0.000477891
0.0461434
7.11036e-05
0.0466485
-0.000505091
0.0480122
-0.00136376
0.0506139
-0.00260171
-0.00395681
0.00583888
-0.0141462
0.0114368
-0.0126137
0.0163173
-0.0107806
0.0205443
-0.00931739
0.0242418
-0.00815602
0.0274804
-0.00715827
0.030299
-0.00625999
0.0327245
-0.00543483
0.0347788
-0.0046645
0.0364736
-0.00392577
0.0377811
-0.00316419
0.0387273
-0.00245037
0.0392795
-0.00173296
0.0390814
-0.000683327
0.0378378
0.000602574
0.0356027
0.00176403
0.0327959
0.00253441
0.0298363
0.00303003
0.0269589
0.00338726
0.0242745
0.00359756
0.0218842
0.00358811
0.0199108
0.00327651
0.0184715
0.00264186
0.0176667
0.00170676
0.0174202
0.000724353
0.0178431
-0.00035179
0.0191663
-0.0018283
0.0216739
-0.00387136
0.0254979
-0.00642571
-0.00887424
0.0036858
-0.017832
0.00729658
-0.0162245
0.0104449
-0.013929
0.0131348
-0.0120073
0.0153932
-0.0104144
0.017239
-0.00900405
0.0186785
-0.00769943
0.019707
-0.00646336
0.0203256
-0.00528315
0.020564
-0.00416419
0.0202679
-0.002868
0.0189367
-0.00111916
0.0164318
0.000771868
0.0134682
0.00228026
0.0106764
0.00339437
0.00798663
0.00445385
0.00526462
0.00525642
0.0025709
0.00572376
7.59389e-05
0.00588222
-0.00205999
0.00573349
-0.00373788
0.00526599
-0.00493483
0.00447346
-0.00563051
0.00333753
-0.00580228
0.00187854
-0.00528511
0.00020718
-0.00393554
-0.00170135
-0.00169236
-0.00407148
0.00122036
-0.00678408
0.00488781
-0.0100932
-0.0127401
0.00172398
-0.019556
0.00323942
-0.0177399
0.00445594
-0.0151455
0.00537167
-0.012923
0.00592683
-0.0109696
0.00610497
-0.00918219
0.00588016
-0.00747462
0.00519892
-0.00578211
0.0039521
-0.00403633
0.00187038
-0.00208246
-0.00101544
1.78134e-05
-0.00388543
0.00175084
-0.00629333
0.00317977
-0.00861395
0.00460088
-0.0110421
0.00582248
-0.013405
0.00681676
-0.0156358
0.00748725
-0.0176713
0.00775931
-0.0194155
0.00762642
-0.0207778
0.00709573
-0.0216882
0.00617644
-0.0221009
0.0048861
-0.0220251
0.00326179
-0.0214893
0.0013427
-0.0204053
-0.000876826
-0.0187413
-0.00336531
-0.0167323
-0.00608053
-0.0144472
-0.00906918
-0.0122517
-0.0122887
-0.0149138
-0.000274127
-0.0192819
-0.000781353
-0.0172327
-0.00151424
-0.0144126
-0.00248125
-0.011956
-0.00376764
-0.00968319
-0.00539746
-0.00755237
-0.00738976
-0.00548232
-0.00975323
-0.00341864
-0.0125003
-0.00128926
-0.0153104
0.000727599
-0.0177766
0.00248403
-0.0200781
0.00405234
-0.0224411
0.0055428
-0.0247375
0.0068973
-0.0269367
0.00802161
-0.0289646
0.00884472
-0.0307613
0.00928391
-0.0322806
0.0092786
-0.0334675
0.00881333
-0.0342703
0.00789857
-0.0346538
0.00655985
-0.0346024
0.00483471
-0.0341111
0.00277051
-0.0331842
0.000415801
-0.0319038
-0.00215721
-0.0303674
-0.00490169
-0.0287256
-0.00772233
-0.0271322
-0.0106626
-0.0257558
-0.0136651
-0.0162556
-0.00214735
-0.0171345
-0.0046363
-0.0147438
-0.00719391
-0.011855
-0.00988339
-0.00926652
-0.0127005
-0.00686607
-0.0156338
-0.00461911
-0.0186795
-0.00243661
-0.0217842
-0.000313933
-0.0246541
0.00158062
-0.0272152
0.00328872
-0.0296475
0.00491632
-0.0320442
0.00644908
-0.0343527
0.00785128
-0.0365161
0.00906069
-0.0384901
0.00999562
-0.040225
0.0105797
-0.04168
0.0107389
-0.0428232
0.0104218
-0.043623
0.0096131
-0.0440525
0.00832803
-0.0440989
0.0066063
-0.0437697
0.00450547
-0.0430809
0.00208174
-0.0420644
-0.000600713
-0.0408105
-0.00341111
-0.0394778
-0.0062344
-0.0381872
-0.00901292
-0.0370728
-0.011777
-0.0361946
-0.0145433
-0.0169782
-0.00393015
-0.0132044
-0.00810215
-0.0105718
-0.0121773
-0.0077799
-0.016154
-0.00528975
-0.0200324
-0.00298766
-0.0237729
-0.000878637
-0.0272281
0.00101853
-0.0302821
0.00274007
-0.0330574
0.00435592
-0.03571
0.00594136
-0.0382432
0.00744951
-0.0406391
0.00884502
-0.0428663
0.0100784
-0.0448885
0.0110829
-0.0466729
0.01178
-0.0481862
0.012093
-0.0494014
0.0119541
-0.0502973
0.0113177
-0.0508555
0.0101713
-0.0510636
0.0085361
-0.0509209
0.00646363
-0.050444
0.00402861
-0.0496637
0.0013014
-0.0486588
-0.00160558
-0.0475219
-0.00454806
-0.0463862
-0.00737007
-0.0453762
-0.0100229
-0.0446016
-0.0125517
-0.0440975
-0.0150474
-0.0172477
-0.00549295
-0.00771142
-0.0110823
-0.0049824
-0.0163276
-0.00253456
-0.0211826
-0.000434799
-0.0255138
0.00134356
-0.029334
0.00294149
-0.0327412
0.00442575
-0.0358816
0.00588055
-0.0388285
0.00730274
-0.0415758
0.00868866
-0.0441291
0.0100029
-0.0464825
0.0111984
-0.04862
0.0122159
-0.0505207
0.0129836
-0.0521631
0.0134224
-0.0535259
0.0134559
-0.0545908
0.013019
-0.0553431
0.0120699
-0.0557709
0.0105992
-0.0558691
0.00863422
-0.0556429
0.00623743
-0.0551094
0.00349511
-0.0543103
0.000502355
-0.0533413
-0.00257465
-0.0523154
-0.00557387
-0.0513481
-0.00833746
-0.0505594
-0.0108116
-0.0500466
-0.0130645
-0.0498454
-0.0152486
-0.0171689
-0.00703282
-0.000678593
-0.0135104
0.00149522
-0.0192209
0.00317594
-0.0242113
0.00455557
-0.0286132
0.00574543
-0.0325713
0.00689956
-0.0361753
0.00802975
-0.0394619
0.00916723
-0.042472
0.0103128
-0.0452279
0.0114446
-0.0477448
0.0125197
-0.0500284
0.013482
-0.0520753
0.0142629
-0.0538763
0.0147845
-0.0554188
0.0149648
-0.0566885
0.0147256
-0.0576715
0.014002
-0.0583546
0.012753
-0.0587267
0.0109713
-0.0587828
0.00869028
-0.05853
0.00598465
-0.0579931
0.00295827
-0.0572289
-0.000261883
-0.0563251
-0.00347848
-0.0554015
-0.00649746
-0.0545739
-0.00916508
-0.0539625
-0.0114229
-0.0536632
-0.0133638
-0.0537148
-0.015197
-0.0168221
-0.00756386
0.00688527
-0.0143959
0.00832722
-0.0203692
0.00914923
-0.0256215
0.00980786
-0.030269
0.010393
-0.0343789
0.0110095
-0.0380427
0.0116935
-0.0413309
0.0124554
-0.044298
0.0132799
-0.0469828
0.0141294
-0.0494117
0.0149486
-0.0515998
0.0156701
-0.0535532
0.0162163
-0.0552704
0.0165018
-0.0567448
0.0164392
-0.0579659
0.0159467
-0.0589206
0.0149567
-0.0595942
0.0134266
-0.0599723
0.0113494
-0.0600457
0.00876368
-0.0598183
0.00575718
-0.0593179
0.00245786
-0.0586109
-0.000968827
-0.057785
-0.0043044
-0.0569535
-0.00732892
-0.0562412
-0.00987738
-0.0557737
-0.0118904
-0.0556535
-0.013484
-0.0559227
-0.0149278
-0.0162475
-0.00765213
0.0145374
-0.0147856
0.0154607
-0.0210066
0.0153702
-0.0263684
0.0151697
-0.0310055
0.0150301
-0.03504
0.015044
-0.038582
0.0152355
-0.0417241
0.0155975
-0.0445372
0.016093
-0.0470709
0.0166631
-0.0493585
0.0172363
-0.0514217
0.0177332
-0.053272
0.0180666
-0.0549131
0.0181428
-0.0563414
0.0178675
-0.0575477
0.017153
-0.0585177
0.0159267
-0.0592328
0.0141417
-0.0596722
0.0117888
-0.059818
0.00890952
-0.0596662
0.00560534
-0.0592412
0.0020329
-0.0586135
-0.00159656
-0.0578697
-0.00504823
-0.0571231
-0.00807544
-0.0565075
-0.010493
-0.056158
-0.0122399
-0.0561902
-0.0134518
-0.0566546
-0.0144634
-0.0154556
-0.00797184
0.0225092
-0.0153176
0.0228065
-0.0215247
0.0215773
-0.0266875
0.0203325
-0.0310321
0.0193747
-0.0347468
0.0187586
-0.0379697
0.0184584
-0.0408114
0.0184393
-0.0433549
0.0186365
-0.0456538
0.0189619
-0.0477422
0.0193247
-0.0496434
0.0196345
-0.051372
0.0197952
-0.0529339
0.0197047
-0.0543266
0.0192603
-0.0555407
0.0183671
-0.0565599
0.0169459
-0.0573609
0.0149427
-0.0579145
0.0123424
-0.0581907
0.00918567
-0.0581714
0.00558611
-0.0578693
0.00173072
-0.0573532
-0.0021126
-0.0567078
-0.00569365
-0.0560481
-0.0087351
-0.0555189
-0.0110223
-0.0552683
-0.0124905
-0.0554312
-0.0132889
-0.0560774
-0.0138172
-0.0144413
-0.00866885
0.0311781
-0.0162911
0.0304288
-0.0222046
0.0274907
-0.026779
0.0249069
-0.0304959
0.0230917
-0.0336309
0.0218936
-0.036328
0.0211555
-0.0387084
0.0208197
-0.0408639
0.020792
-0.0428416
0.0209396
-0.0446668
0.0211499
-0.04636
0.0213277
-0.0479366
0.0213718
-0.0494029
0.021171
-0.0507566
0.0206139
-0.0519877
0.0195983
-0.0530789
0.0180371
-0.0540032
0.015867
-0.0547233
0.0130625
-0.0551949
0.00965724
-0.0553797
0.00577089
-0.0552684
0.00161946
-0.0549182
-0.00246281
-0.054409
-0.00620287
-0.0538552
-0.00928893
-0.0534149
-0.0114625
-0.053252
-0.0126534
-0.0535266
-0.0130143
-0.0543473
-0.0129966
-0.0131899
-0.0100447
0.0412228
-0.0182142
0.0385982
-0.0234005
0.032677
-0.0267983
0.0283047
-0.0294738
0.0257671
-0.0317681
0.024188
-0.0337326
0.02312
-0.0354868
0.0225739
-0.037139
0.0224442
-0.038712
0.0225127
-0.0402058
0.0226437
-0.0416345
0.0227564
-0.0430152
0.0227525
-0.0443542
0.02251
-0.0456478
0.0219076
-0.0468872
0.0208377
-0.0480569
0.0192068
-0.04913
0.0169402
-0.0500645
0.013997
-0.0508023
0.0103951
-0.0512793
0.00624784
-0.0514546
0.0017948
-0.0513538
-0.00256364
-0.0510517
-0.00650495
-0.0506524
-0.0096882
-0.0503273
-0.0117876
-0.0502543
-0.0127265
-0.0506231
-0.0126455
-0.0516119
-0.0120077
-0.0116831
-0.0128665
0.0540893
-0.0220652
0.0477969
-0.0256534
0.0362652
-0.0267879
0.0294393
-0.0279085
0.0268877
-0.0291789
0.0254584
-0.030225
0.0241661
-0.0311799
0.0235288
-0.0322303
0.0234946
-0.0333307
0.0236131
-0.0344227
0.0237357
-0.0355176
0.0238514
-0.0366414
0.0238763
-0.0377995
0.0236681
-0.0389846
0.0230926
-0.0401899
0.0220429
-0.0414074
0.0204243
-0.042618
0.0181508
-0.043783
0.0151619
-0.0448407
0.0114528
-0.0457088
0.00711597
-0.0463069
0.0023929
-0.0465996
-0.00227089
-0.0466379
-0.00646668
-0.0464991
-0.00982705
-0.0463639
-0.0119228
-0.0464128
-0.0126775
-0.0468627
-0.0121956
-0.0480072
-0.0108632
-0.00989397
0.207446
0.00576687
0.207033
0.0111866
0.20643
0.0163648
0.205644
0.021385
0.204683
0.026312
0.203555
0.0312004
0.202264
0.0360979
0.200816
0.0410464
0.199219
0.046083
0.197476
0.051241
0.195593
0.0565507
0.193576
0.0620404
0.191431
0.0677376
0.189162
0.0736696
0.186774
0.0798649
0.184272
0.0863548
0.181658
0.093175
0.178934
0.100368
0.176101
0.107988
0.173157
0.116104
0.170099
0.124806
0.166922
0.134219
0.163623
0.144512
0.160204
0.155929
0.156692
0.168822
0.153186
0.183718
0.150062
0.201411
0.149024
0.222807
0.160963
0.245354
0.25822
0.237323
0.21249
0.00595971
0.212116
0.0115602
0.211572
0.0169094
0.210865
0.0220921
0.210003
0.0271738
0.208994
0.0322094
0.207845
0.0372465
0.206565
0.0423272
0.205159
0.0474884
0.203637
0.0527629
0.202007
0.0581807
0.200278
0.0637695
0.19846
0.069556
0.196563
0.0755668
0.194598
0.0818295
0.192579
0.0883738
0.19052
0.0952338
0.188439
0.10245
0.186357
0.11007
0.184303
0.118158
0.182317
0.126792
0.180461
0.136075
0.178834
0.146139
0.177611
0.157153
0.177115
0.169318
0.178006
0.182827
0.181712
0.197705
0.190857
0.213662
0.206458
0.229753
0.245014
0.219664
0.217657
0.00613008
0.217327
0.01189
0.216848
0.0173891
0.216227
0.0227129
0.215473
0.0279275
0.214595
0.0330875
0.213601
0.0382403
0.212501
0.0434276
0.211304
0.0486856
0.21002
0.0540465
0.208662
0.0595391
0.207241
0.06519
0.205773
0.0710244
0.204273
0.077067
0.202759
0.0833428
0.201254
0.0898786
0.199784
0.0967038
0.198382
0.103852
0.197088
0.111364
0.19596
0.119286
0.195075
0.127677
0.194547
0.136603
0.194547
0.146139
0.195338
0.156362
0.197331
0.167325
0.201138
0.17902
0.207527
0.191316
0.217146
0.204043
0.229685
0.217214
0.228246
0.246453
0.222951
0.00627596
0.222669
0.012172
0.22226
0.0177983
0.221732
0.0232405
0.221095
0.0285645
0.220358
0.0338245
0.219531
0.0390676
0.218624
0.0443344
0.217649
0.0496602
0.21662
0.055076
0.21555
0.060609
0.214456
0.0662839
0.213357
0.0721237
0.212274
0.07815
0.211232
0.0843843
0.210262
0.0908485
0.2094
0.0975655
0.208693
0.10456
0.208197
0.11186
0.20799
0.119494
0.208173
0.127493
0.208888
0.135888
0.210327
0.144701
0.212752
0.153937
0.216508
0.163569
0.222011
0.173517
0.229704
0.183623
0.240146
0.193601
0.25424
0.20312
0.209921
0.272565
0.228374
0.0063955
0.228143
0.0124028
0.227809
0.0181318
0.227382
0.023668
0.22687
0.0290766
0.226283
0.0344112
0.225633
0.0397178
0.224931
0.045036
0.224192
0.0503996
0.22343
0.0558379
0.222663
0.0613762
0.22191
0.0670366
0.221195
0.0728392
0.220543
0.0788019
0.219985
0.0849416
0.21956
0.091274
0.219311
0.0978143
0.219294
0.104577
0.219579
0.111575
0.220252
0.118821
0.221426
0.126319
0.223246
0.134068
0.225895
0.142051
0.229603
0.150229
0.234647
0.158525
0.241351
0.166812
0.250089
0.174886
0.2613
0.182391
0.275446
0.188974
0.193551
0.291815
0.233929
0.00648701
0.233753
0.012579
0.2335
0.018385
0.233178
0.0239895
0.232798
0.0294568
0.23237
0.0348393
0.231906
0.0401819
0.231419
0.0455225
0.230925
0.0508933
0.230442
0.0563215
0.229988
0.0618299
0.229587
0.0674378
0.229264
0.0731618
0.229051
0.0790156
0.228982
0.0850107
0.229099
0.0911564
0.229454
0.0974595
0.230107
0.103924
0.231132
0.11055
0.23262
0.117332
0.234682
0.124257
0.237454
0.131297
0.241097
0.138408
0.245802
0.145524
0.251788
0.152539
0.259292
0.159308
0.268553
0.165625
0.279743
0.171201
0.292949
0.175768
0.178817
0.307684
0.239619
0.00654899
0.239501
0.0126978
0.239332
0.0185538
0.239122
0.0241997
0.238879
0.0296988
0.238617
0.0351019
0.238347
0.0404523
0.238083
0.045786
0.237843
0.0511333
0.237646
0.0565189
0.237513
0.061963
0.237469
0.0674818
0.237542
0.0730879
0.237767
0.0787907
0.238182
0.0845963
0.238831
0.0905074
0.239767
0.0965229
0.241054
0.102637
0.242765
0.108839
0.244987
0.11511
0.247823
0.121421
0.251391
0.127729
0.255825
0.133974
0.261273
0.140075
0.26789
0.145923
0.275822
0.151375
0.285186
0.15626
0.296024
0.160364
0.308319
0.163473
0.165325
0.321811
0.245448
0.00658017
0.245389
0.0127568
0.245308
0.0186346
0.245213
0.0242945
0.245115
0.0297977
0.245023
0.0351935
0.244952
0.0405232
0.244917
0.0458208
0.244936
0.0511142
0.24503
0.0564257
0.24522
0.0617725
0.245534
0.0671676
0.246002
0.0726198
0.246659
0.078134
0.247544
0.0837111
0.248704
0.0893479
0.25019
0.0950364
0.252065
0.100763
0.254396
0.106508
0.257264
0.112242
0.260757
0.117928
0.264972
0.123513
0.270013
0.128933
0.275986
0.134103
0.282987
0.138921
0.291097
0.143266
0.30036
0.146997
0.310764
0.14996
0.32224
0.151997
0.15298
0.334584
0.251418
0.00657953
0.251421
0.0127539
0.25143
0.0186247
0.251455
0.0242703
0.251503
0.0297497
0.251586
0.0351102
0.251718
0.0403908
0.251916
0.0456234
0.252196
0.0508336
0.252581
0.0560407
0.253094
0.0612594
0.253763
0.0664991
0.254618
0.0717651
0.255693
0.0770582
0.25703
0.0823748
0.258671
0.0877064
0.260668
0.0930396
0.263076
0.0983549
0.265958
0.103626
0.269381
0.108819
0.273418
0.113891
0.278145
0.118787
0.283636
0.123442
0.289959
0.12778
0.29717
0.13171
0.305301
0.135134
0.314354
0.137944
0.324283
0.140031
0.334988
0.141292
0.141669
0.346299
0.257532
0.00654632
0.257598
0.0126878
0.257701
0.0185223
0.257846
0.0241249
0.258043
0.0295524
0.258304
0.0348496
0.258641
0.0400533
0.259072
0.0451931
0.259613
0.0502918
0.260288
0.0553664
0.261119
0.0604284
0.262133
0.0654845
0.263362
0.0705366
0.264838
0.0755818
0.2666
0.0806128
0.26869
0.0856173
0.271152
0.0905775
0.274036
0.0954703
0.277396
0.100266
0.281287
0.104928
0.285765
0.109412
0.290885
0.113667
0.296695
0.117632
0.303236
0.12124
0.31053
0.124416
0.31858
0.127084
0.327357
0.129166
0.3368
0.130589
0.346803
0.131289
0.131246
0.357226
0.263794
0.00648006
0.263924
0.0125576
0.26412
0.018326
0.264388
0.0238571
0.264736
0.0292047
0.265174
0.0344112
0.265716
0.039511
0.266378
0.0445312
0.267178
0.049492
0.268136
0.054408
0.269277
0.0592881
0.270625
0.0641361
0.272211
0.0689512
0.274065
0.0737276
0.276223
0.0784551
0.278721
0.0831185
0.281601
0.0876979
0.284903
0.0921678
0.288672
0.0964977
0.292949
0.100651
0.297775
0.104586
0.303187
0.108256
0.309212
0.111607
0.315868
0.114584
0.323156
0.117128
0.331058
0.119183
0.33953
0.120694
0.348504
0.121615
0.357882
0.121911
0.121581
0.367547
0.270207
0.00638055
0.270401
0.012363
0.270692
0.0180357
0.271082
0.0234667
0.27158
0.028707
0.272195
0.0337962
0.272939
0.0387662
0.273829
0.0436415
0.274881
0.0484401
0.276115
0.0531741
0.277553
0.0578501
0.279219
0.0624697
0.281141
0.0670295
0.283347
0.0715218
0.285867
0.0759345
0.288735
0.0802507
0.291984
0.0844494
0.295647
0.0885048
0.299757
0.0923873
0.304346
0.0960624
0.30944
0.0994923
0.31506
0.102636
0.321217
0.105449
0.327913
0.107887
0.335134
0.109907
0.342849
0.111468
0.351009
0.112534
0.359545
0.113079
0.36837
0.113086
0.112565
0.377386
0.276773
0.00624791
0.277032
0.0121041
0.277416
0.0176518
0.277928
0.0229548
0.278574
0.0280609
0.279363
0.0330072
0.280306
0.0378228
0.281418
0.0425299
0.282714
0.0471443
0.284212
0.0516758
0.285933
0.056129
0.287899
0.0605036
0.290134
0.0647947
0.292663
0.0689931
0.295512
0.0730856
0.298708
0.0770549
0.302277
0.0808799
0.306246
0.084536
0.310638
0.0879955
0.315473
0.0912276
0.320766
0.0941993
0.326525
0.0968761
0.332751
0.0992231
0.339432
0.101206
0.346545
0.102794
0.354054
0.10396
0.361907
0.104681
0.37004
0.104945
0.378378
0.104748
0.104107
0.386836
0.283498
0.00608249
0.28382
0.0117819
0.284297
0.0171756
0.284928
0.0223233
0.285719
0.0272696
0.286678
0.0320486
0.287814
0.0366869
0.289139
0.0412044
0.290669
0.0456148
0.292419
0.0499261
0.294406
0.0541412
0.296652
0.0582584
0.299174
0.0622718
0.301996
0.0661713
0.305138
0.0699435
0.308622
0.0735714
0.312466
0.0770351
0.316691
0.0803119
0.321309
0.083377
0.326333
0.0862036
0.331768
0.0887644
0.337613
0.0910315
0.343858
0.0929781
0.350484
0.0945795
0.357465
0.095814
0.364759
0.0966649
0.372319
0.0971212
0.380086
0.0971789
0.387992
0.0968414
0.0961286
0.39597
0.290384
0.00588493
0.290768
0.0113974
0.291335
0.0166092
0.292083
0.0215753
0.293015
0.026337
0.294138
0.0309258
0.295459
0.0353656
0.296989
0.0396743
0.298741
0.0438637
0.300727
0.04794
0.302963
0.0519051
0.305465
0.0557561
0.30825
0.0594866
0.311335
0.0630865
0.314736
0.0665427
0.318468
0.0698392
0.322546
0.0729578
0.326979
0.0758784
0.331777
0.0785796
0.336941
0.0810391
0.342471
0.0832347
0.348357
0.085145
0.354585
0.0867503
0.361131
0.0880334
0.367964
0.0889808
0.375046
0.0895834
0.382329
0.0898376
0.389763
0.0897456
0.397289
0.0893153
0.0885675
0.40485
0.297435
0.00565608
0.29788
0.0109526
0.298534
0.0159551
0.299394
0.0207144
0.300463
0.0252684
0.301743
0.0296455
0.303241
0.0338677
0.304965
0.0379505
0.306925
0.0419041
0.309131
0.0457335
0.311597
0.0494396
0.314334
0.053019
0.317355
0.0564651
0.320674
0.0597682
0.3243
0.0629161
0.328245
0.0658943
0.332516
0.0686867
0.337119
0.0712761
0.342053
0.0736446
0.347318
0.0757744
0.352905
0.077648
0.3588
0.0792498
0.364984
0.0805659
0.371432
0.0815855
0.378112
0.0823011
0.384986
0.0827093
0.392012
0.0828115
0.399144
0.0826137
0.406333
0.0821264
0.0813701
0.413531
0.304654
0.00539701
0.305157
0.0104493
0.305896
0.0152167
0.306865
0.0197453
0.308064
0.0240696
0.309494
0.0282155
0.311159
0.0322026
0.313065
0.0360445
0.315219
0.0397501
0.317629
0.0433233
0.320305
0.0467642
0.323254
0.0500694
0.326487
0.0532325
0.33001
0.0562446
0.333832
0.0590945
0.337956
0.0617697
0.342387
0.0642564
0.347123
0.0665402
0.35216
0.0686069
0.357492
0.0704424
0.363106
0.072034
0.368986
0.0733706
0.375108
0.0744432
0.381448
0.0752459
0.387973
0.0757757
0.394649
0.0760333
0.401438
0.0760232
0.408297
0.0757538
0.415187
0.0752369
0.0744916
0.422065
0.312046
0.00510892
0.312606
0.00989013
0.313425
0.0143975
0.314497
0.0186727
0.31582
0.0227471
0.317391
0.0266439
0.319214
0.0303804
0.321289
0.0339686
0.323623
0.0374161
0.326221
0.040726
0.329087
0.0438982
0.332227
0.0469292
0.335646
0.049813
0.339349
0.0525418
0.343338
0.055106
0.347613
0.0574947
0.352172
0.0596968
0.357012
0.0617005
0.362124
0.0634949
0.367497
0.0650694
0.373116
0.0664152
0.378961
0.0675249
0.385011
0.0683937
0.391238
0.069019
0.397612
0.0694012
0.404102
0.0695438
0.410672
0.0694532
0.417287
0.069139
0.42391
0.0686131
0.0678935
0.430509
0.319615
0.00479313
0.320228
0.00927755
0.321124
0.0135014
0.322294
0.0175023
0.323734
0.021308
0.325438
0.0249393
0.327407
0.0284115
0.329641
0.0317351
0.33214
0.0349164
0.334908
0.0379582
0.337946
0.04086
0.341257
0.0436186
0.344841
0.0462288
0.348699
0.0486838
0.35283
0.0509754
0.357229
0.053095
0.361893
0.0550333
0.366812
0.0567815
0.371976
0.0583313
0.37737
0.0596753
0.382977
0.0608077
0.388778
0.0617244
0.394748
0.0624233
0.400862
0.0629046
0.407093
0.063171
0.413409
0.0632275
0.41978
0.0630818
0.426176
0.0627438
0.432564
0.062225
0.0615419
0.438915
0.327365
0.00445099
0.328029
0.00861428
0.328998
0.0125326
0.33026
0.0162393
0.331809
0.0197592
0.333638
0.0231104
0.335743
0.0263063
0.338122
0.029356
0.340774
0.032265
0.343697
0.0350355
0.34689
0.0376669
0.350352
0.0401565
0.354081
0.0424999
0.358073
0.0446914
0.362324
0.0467243
0.366828
0.0485917
0.371574
0.0502867
0.376553
0.0518025
0.381751
0.0531333
0.387152
0.0542743
0.392738
0.0552222
0.398487
0.0559752
0.404377
0.0565334
0.410383
0.0568988
0.416478
0.0570756
0.422636
0.0570697
0.428828
0.0568893
0.435028
0.0565439
0.441208
0.0560448
0.0554064
0.447344
0.335301
0.00408385
0.336012
0.00790297
0.33705
0.011495
0.3384
0.0148893
0.340051
0.0181076
0.341996
0.0211656
0.344228
0.0240748
0.346741
0.0268431