/*--------------------------------*- C++ -*----------------------------------*\
  =========                 |
  \\      /  F ield         | OpenFOAM: The Open Source CFD Toolbox
   \\    /   O peration     | Website:  https://openfoam.org
    \\  /    A nd           | Version:  dev
     \\/     M anipulation  |
\*---------------------------------------------------------------------------*/
FoamFile
{
    version     2.0;
    format      ascii;
    class       volVectorField;
    location    "1.6";
    object      U;
}
// * * * * * * * * * * * * * * * * * * * * * * * * * * * * * * * * * * * * * //

dimensions      [0 1 -1 0 0 0 0];

internalField   nonuniform List<vector> 
2790
(
(9.94398 0 0.0205281)
(9.87569 0 0.0295965)
(9.77513 0 0.0360011)
(9.64931 0 0.0425695)
(9.50391 0 0.0493996)
(9.33984 0 0.0564423)
(9.15627 0 0.063829)
(8.95231 0 0.0717231)
(8.72711 0 0.0802646)
(8.4797 0 0.0895804)
(8.20887 0 0.0997976)
(7.91324 0 0.111047)
(7.59127 0 0.123459)
(7.24138 0 0.137162)
(6.86193 0 0.152268)
(6.45142 0 0.168865)
(6.00852 0 0.186993)
(5.53234 0 0.206616)
(5.02264 0 0.22759)
(4.48012 0 0.249614)
(3.90684 0 0.272183)
(3.30652 0 0.294535)
(2.68498 0 0.315629)
(2.05034 0 0.334289)
(1.41158 0 0.350573)
(0.797803 0 0.372729)
(0.110365 0 0.323672)
(-0.465609 0 -0.113127)
(-0.453028 0 -0.29198)
(-0.229459 0 -0.420127)
(9.99849 0 0.0407179)
(9.98142 0 0.0624092)
(9.93567 0 0.0791747)
(9.86404 0 0.0966643)
(9.7708 0 0.115166)
(9.65692 0 0.134529)
(9.52178 0 0.155014)
(9.36454 0 0.176977)
(9.18436 0 0.200736)
(8.98029 0 0.226571)
(8.75113 0 0.254759)
(8.49548 0 0.285568)
(8.21179 0 0.31925)
(7.89842 0 0.356018)
(7.55364 0 0.396012)
(7.1758 0 0.439254)
(6.7634 0 0.485585)
(6.31528 0 0.534584)
(5.83087 0 0.585465)
(5.31048 0 0.636965)
(4.75572 0 0.687221)
(4.16994 0 0.733666)
(3.55877 0 0.772966)
(2.93097 0 0.801082)
(2.2993 0 0.813677)
(1.69212 0 0.807034)
(1.10585 0 0.746579)
(0.6578 0 0.547207)
(0.180887 0 0.221199)
(-0.0074042 0 -0.454307)
(9.99558 0 0.0432321)
(9.97552 0 0.075316)
(9.93173 0 0.103404)
(9.86477 0 0.132437)
(9.7776 0 0.163129)
(9.67132 0 0.195468)
(9.5456 0 0.229807)
(9.39981 0 0.26666)
(9.23329 0 0.306517)
(9.04525 0 0.349843)
(8.83468 0 0.397095)
(8.60039 0 0.448733)
(8.34102 0 0.505192)
(8.05508 0 0.566855)
(7.74096 0 0.633996)
(7.39704 0 0.706714)
(7.02172 0 0.784824)
(6.61357 0 0.86772)
(6.17156 0 0.954204)
(5.69525 0 1.04228)
(5.18521 0 1.12893)
(4.6435 0 1.20985)
(4.07427 0 1.27923)
(3.48476 0 1.3294)
(2.88611 0 1.35012)
(2.29855 0 1.32638)
(1.7306 0 1.22063)
(1.21496 0 0.973281)
(0.699746 0 0.570704)
(0.356055 0 -0.158529)
(9.99402 0 0.0495344)
(9.97177 0 0.0932682)
(9.9278 0 0.133653)
(9.86212 0 0.174302)
(9.77676 0 0.216531)
(9.67275 0 0.260758)
(9.55004 0 0.307521)
(9.40817 0 0.357496)
(9.24666 0 0.411359)
(9.06494 0 0.469757)
(8.86227 0 0.533337)
(8.63776 0 0.602741)
(8.39041 0 0.678593)
(8.11908 0 0.761461)
(7.82257 0 0.851797)
(7.4996 0 0.949847)
(7.14885 0 1.05552)
(6.76907 0 1.16822)
(6.35913 0 1.28661)
(5.91825 0 1.4083)
(5.44618 0 1.52954)
(4.94363 0 1.64479)
(4.41275 0 1.74627)
(3.85778 0 1.82337)
(3.28523 0 1.86151)
(2.7057 0 1.84045)
(2.1248 0 1.72608)
(1.55344 0 1.47805)
(0.957324 0 1.08357)
(0.509469 0 0.500731)
(9.9933 0 0.0572588)
(9.96991 0 0.111039)
(9.92585 0 0.162208)
(9.86133 0 0.213467)
(9.77781 0 0.266483)
(9.67612 0 0.32204)
(9.55626 0 0.380821)
(9.41789 0 0.443594)
(9.2606 0 0.511146)
(9.08393 0 0.584239)
(8.88727 0 0.663634)
(8.66994 0 0.750087)
(8.43114 0 0.844336)
(8.17001 0 0.947066)
(7.88563 0 1.05884)
(7.57705 0 1.18003)
(7.24326 0 1.31064)
(6.88323 0 1.45015)
(6.49594 0 1.59721)
(6.08042 0 1.74934)
(5.63587 0 1.90247)
(5.16184 0 2.05043)
(4.65849 0 2.18434)
(4.1269 0 2.29194)
(3.56905 0 2.35679)
(2.98848 0 2.35753)
(2.38637 0 2.26507)
(1.76595 0 2.0476)
(1.08971 0 1.69079)
(0.53678 0 1.15215)
(9.99301 0 0.0655939)
(9.96919 0 0.128799)
(9.92549 0 0.190241)
(9.8624 0 0.25199)
(9.78111 0 0.315734)
(9.68221 0 0.382474)
(9.56572 0 0.453021)
(9.43138 0 0.528233)
(9.27883 0 0.608992)
(9.10765 0 0.696172)
(8.91733 0 0.79064)
(8.70728 0 0.893256)
(8.47681 0 1.00486)
(8.2252 0 1.12623)
(7.95169 0 1.25804)
(7.65544 0 1.40075)
(7.33561 0 1.55448)
(6.99126 0 1.7188)
(6.62135 0 1.89251)
(6.22472 0 2.07321)
(5.80004 0 2.25688)
(5.34585 0 2.4373)
(4.86055 0 2.60535)
(4.34257 0 2.74843)
(3.79027 0 2.84979)
(3.20245 0 2.88843)
(2.57643 0 2.83833)
(1.91334 0 2.67145)
(1.17271 0 2.37321)
(0.550146 0 1.89235)
(9.99296 0 0.0741403)
(9.96923 0 0.146429)
(9.9263 0 0.217634)
(9.86496 0 0.289466)
(9.78624 0 0.36354)
(9.69061 0 0.441012)
(9.57806 0 0.522836)
(9.44837 0 0.609969)
(9.30126 0 0.703391)
(9.13636 0 0.804072)
(8.95319 0 0.912976)
(8.75123 0 1.03105)
(8.52985 0 1.15923)
(8.28838 0 1.29837)
(8.0261 0 1.44925)
(7.74222 0 1.6124)
(7.43585 0 1.78809)
(7.106 0 1.97607)
(6.75146 0 2.17532)
(6.37072 0 2.38376)
(5.96189 0 2.59772)
(5.52251 0 2.81142)
(5.04947 0 3.01626)
(4.53903 0 3.20014)
(3.98674 0 3.3469)
(3.38803 0 3.43618)
(2.73739 0 3.4434)
(2.03638 0 3.34129)
(1.24189 0 3.11276)
(0.563738 0 2.69118)
(9.99305 0 0.0826636)
(9.96977 0 0.16374)
(9.92799 0 0.244225)
(9.86872 0 0.325681)
(9.79294 0 0.40966)
(9.70102 0 0.497421)
(9.59294 0 0.590044)
(9.46853 0 0.688582)
(9.32757 0 0.7941)
(9.16971 0 0.907658)
(8.99456 0 1.03031)
(8.80161 0 1.16309)
(8.5903 0 1.30702)
(8.35998 0 1.46307)
(8.10993 0 1.63209)
(7.8393 0 1.81478)
(7.54713 0 2.01155)
(7.23223 0 2.22238)
(6.89312 0 2.4466)
(6.52786 0 2.68257)
(6.13388 0 2.92727)
(5.70775 0 3.17573)
(5.24498 0 3.42039)
(4.73991 0 3.6503)
(4.18572 0 3.85039)
(3.57508 0 4.00105)
(2.89988 0 4.07798)
(2.16247 0 4.05219)
(1.31641 0 3.90095)
(0.583489 0 3.53835)
(9.99325 0 0.0910141)
(9.97069 0 0.18056)
(9.93038 0 0.269866)
(9.87349 0 0.36047)
(9.80099 0 0.453891)
(9.71319 0 0.551455)
(9.61008 0 0.654347)
(9.49153 0 0.763711)
(9.35736 0 0.880692)
(9.20729 0 1.00643)
(9.04097 0 1.14207)
(8.85796 0 1.28874)
(8.65773 0 1.44754)
(8.43966 0 1.61957)
(8.20301 0 1.8058)
(7.94691 0 2.0071)
(7.67025 0 2.22411)
(7.37167 0 2.45711)
(7.04936 0 2.70587)
(6.70092 0 2.96938)
(6.3231 0 3.24549)
(5.91153 0 3.53039)
(5.4604 0 3.81798)
(4.9622 0 4.09897)
(4.40776 0 4.35991)
(3.78688 0 4.58219)
(3.08812 0 4.74112)
(2.31326 0 4.80431)
(1.41108 0 4.74047)
(0.614634 0 4.44038)
(9.99352 0 0.0990882)
(9.97187 0 0.196749)
(9.93333 0 0.294418)
(9.87911 0 0.393674)
(9.81022 0 0.49603)
(9.72692 0 0.602866)
(9.62923 0 0.715449)
(9.51706 0 0.835007)
(9.39027 0 0.96276)
(9.24867 0 1.09993)
(9.09195 0 1.24773)
(8.91974 0 1.40738)
(8.73156 0 1.5801)
(8.52683 0 1.76709)
(8.30483 0 1.96949)
(8.06465 0 2.18837)
(7.80513 0 2.42463)
(7.52474 0 2.67896)
(7.22141 0 2.95168)
(6.89234 0 3.24256)
(6.53372 0 3.55052)
(6.14031 0 3.87323)
(5.70506 0 4.20647)
(5.21869 0 4.54321)
(4.66941 0 4.87233)
(4.04347 0 5.17693)
(3.32442 0 5.4323)
(2.51052 0 5.60188)
(1.54247 0 5.64309)
(0.66446 0 5.41687)
(9.99383 0 0.10681)
(9.97327 0 0.212188)
(9.93672 0 0.317749)
(9.88545 0 0.425141)
(9.82045 0 0.535895)
(9.74201 0 0.65143)
(9.65014 0 0.773087)
(9.54481 0 0.902163)
(9.42596 0 1.03995)
(9.29343 0 1.18772)
(9.147 0 1.34679)
(8.98637 0 1.51846)
(8.81114 0 1.70405)
(8.62079 0 1.90487)
(8.41465 0 2.12225)
(8.19185 0 2.35748)
(7.95121 0 2.61179)
(7.69113 0 2.88631)
(7.40944 0 3.182)
(7.10311 0 3.49952)
(6.76793 0 3.8391)
(6.39807 0 4.20014)
(5.98549 0 4.58078)
(5.51926 0 4.97696)
(4.98482 0 5.38101)
(4.36397 0 5.77934)
(3.63282 0 6.14903)
(2.78112 0 6.45063)
(1.73428 0 6.62839)
(0.745364 0 6.50244)
(9.99419 0 0.114122)
(9.97483 0 0.226781)
(9.94048 0 0.339744)
(9.89239 0 0.454737)
(9.83155 0 0.57332)
(9.75826 0 0.696952)
(9.67257 0 0.827027)
(9.57451 0 0.964905)
(9.46405 0 1.11193)
(9.34113 0 1.26946)
(9.20561 0 1.43884)
(9.05727 0 1.62147)
(8.8958 0 1.81877)
(8.72078 0 2.03218)
(8.53165 0 2.26319)
(8.32761 0 2.51333)
(8.10759 0 2.78417)
(7.87005 0 3.07731)
(7.61288 0 3.3944)
(7.33306 0 3.73708)
(7.02635 0 4.10697)
(6.68673 0 4.50548)
(6.30568 0 4.93352)
(5.87116 0 5.39083)
(5.36619 0 5.87477)
(4.76768 0 6.37775)
(4.04185 0 6.88292)
(3.1628 0 7.35347)
(2.02595 0 7.72343)
(0.881504 0 7.75721)
(9.99459 0 0.12098)
(9.97653 0 0.240449)
(9.94453 0 0.360303)
(9.89982 0 0.482343)
(9.84337 0 0.608165)
(9.7755 0 0.739259)
(9.69631 0 0.877066)
(9.60585 0 1.02299)
(9.50419 0 1.17843)
(9.39134 0 1.34479)
(9.26725 0 1.52348)
(9.13179 0 1.71596)
(8.98479 0 1.92372)
(8.82595 0 2.14834)
(8.65484 0 2.39147)
(8.47084 0 2.65484)
(8.27305 0 2.94036)
(8.06018 0 3.25009)
(7.83037 0 3.58633)
(7.58093 0 3.95172)
(7.30801 0 4.34926)
(7.00601 0 4.78246)
(6.66679 0 5.25529)
(6.27836 0 5.77204)
(5.82276 0 6.33674)
(5.27331 0 6.95152)
(4.58592 0 7.61297)
(3.71183 0 8.30075)
(2.49007 0 8.95886)
(1.12575 0 9.29463)
(9.995 0 0.127348)
(9.97834 0 0.253127)
(9.94883 0 0.379341)
(9.90766 0 0.507859)
(9.85579 0 0.64031)
(9.79356 0 0.778213)
(9.72111 0 0.923043)
(9.63855 0 1.07624)
(9.54602 0 1.23925)
(9.44361 0 1.41349)
(9.33136 0 1.60042)
(9.20929 0 1.80157)
(9.07733 0 2.01849)
(8.93535 0 2.25284)
(8.78311 0 2.50641)
(8.62023 0 2.78112)
(8.44609 0 3.07915)
(8.25977 0 3.40295)
(8.05987 0 3.75541)
(7.84437 0 4.14001)
(7.61027 0 4.56103)
(7.35314 0 5.02388)
(7.0664 0 5.5355)
(6.73999 0 6.10491)
(6.358 0 6.74384)
(5.89485 0 7.46743)
(5.30247 0 8.29499)
(4.51157 0 9.2473)
(3.27208 0 10.3428)
(1.60746 0 11.3631)
(9.99544 0 0.133198)
(9.98023 0 0.264764)
(9.95331 0 0.396786)
(9.91583 0 0.53119)
(9.86869 0 0.669634)
(9.81227 0 0.81366)
(9.74676 0 0.964765)
(9.67232 0 1.12442)
(9.58917 0 1.29407)
(9.49748 0 1.4752)
(9.39741 0 1.66927)
(9.28909 0 1.87783)
(9.1726 0 2.10249)
(9.048 0 2.34498)
(8.91529 0 2.60717)
(8.77435 0 2.89111)
(8.62494 0 3.19918)
(8.46662 0 3.53411)
(8.29866 0 3.89921)
(8.11995 0 4.29857)
(7.92879 0 4.7374)
(7.72265 0 5.22252)
(7.49773 0 5.76317)
(7.24818 0 6.37216)
(6.96461 0 7.06794)
(6.63158 0 7.87842)
(6.21646 0 8.84919)
(5.66997 0 10.0637)
(4.69667 0 11.7313)
(2.69307 0 14.6025)
(0.267177 0 -0.336187)
(0.587883 0 -0.268328)
(0.909661 0 -0.215093)
(1.19278 0 -0.177457)
(1.43429 0 -0.14944)
(1.64322 0 -0.127045)
(1.82644 0 -0.108413)
(1.98731 0 -0.0925881)
(2.12759 0 -0.07888)
(2.24846 0 -0.0667321)
(2.35057 0 -0.0557262)
(2.43439 0 -0.0459231)
(2.50125 0 -0.0368043)
(2.55262 0 -0.0295457)
(2.59001 0 -0.0283837)
(2.61696 0 -0.0327377)
(2.63665 0 -0.0378355)
(2.64394 0 -0.0382104)
(2.62944 0 -0.0319503)
(2.59284 0 -0.0215333)
(2.5381 0 -0.0100568)
(2.47297 0 -0.000308877)
(2.40752 0 0.00592968)
(2.35235 0 0.00808308)
(2.31745 0 0.0060034)
(2.30599 0 0.00125438)
(2.31483 0 -0.00110931)
(2.35831 0 -0.00517168)
(2.4509 0 -0.0156274)
(2.65945 0 -0.0337269)
(0.150293 0 -0.577127)
(0.433279 0 -0.487381)
(0.691868 0 -0.4016)
(0.92427 0 -0.336867)
(1.12457 0 -0.287006)
(1.29807 0 -0.24579)
(1.44926 0 -0.210326)
(1.58026 0 -0.179269)
(1.69218 0 -0.151651)
(1.78591 0 -0.126525)
(1.86147 0 -0.102427)
(1.91771 0 -0.0813811)
(1.95463 0 -0.0662817)
(1.9727 0 -0.0505222)
(1.93981 0 -0.0276966)
(1.8473 0 -0.0021631)
(1.71397 0 0.0220439)
(1.56501 0 0.0449537)
(1.4185 0 0.0648653)
(1.27848 0 0.0790687)
(1.15001 0 0.0853295)
(1.03917 0 0.0822075)
(0.95222 0 0.069883)
(0.894521 0 0.0491672)
(0.874756 0 0.0261015)
(0.875732 0 0.00552717)
(0.917446 0 -0.0177186)
(1.01567 0 -0.0558426)
(1.16587 0 -0.1073)
(1.44171 0 -0.158498)
(0.0779329 0 -0.819227)
(0.280149 0 -0.727214)
(0.439538 0 -0.614087)
(0.590528 0 -0.521853)
(0.716004 0 -0.447658)
(0.819169 0 -0.384532)
(0.901749 0 -0.328842)
(0.963892 0 -0.278899)
(1.00529 0 -0.233827)
(1.02653 0 -0.193349)
(1.0265 0 -0.154212)
(1.0012 0 -0.106931)
(0.900041 0 -0.0474606)
(0.74165 0 0.0141312)
(0.603559 0 0.0718802)
(0.47161 0 0.114919)
(0.334125 0 0.141075)
(0.195716 0 0.1545)
(0.0632614 0 0.159068)
(-0.0542146 0 0.15542)
(-0.149392 0 0.143312)
(-0.222464 0 0.122135)
(-0.269687 0 0.0920825)
(-0.28932 0 0.0555549)
(-0.286249 0 0.0190466)
(-0.23466 0 -0.0233209)
(-0.147274 0 -0.0774602)
(-0.0109059 0 -0.143778)
(0.146057 0 -0.221174)
(0.380543 0 -0.284007)
(0.024013 0 -0.942284)
(0.133866 0 -0.839726)
(0.185538 0 -0.703613)
(0.245907 0 -0.590936)
(0.283054 0 -0.496821)
(0.302025 0 -0.414514)
(0.301772 0 -0.339855)
(0.280444 0 -0.270147)
(0.234591 0 -0.202838)
(0.161349 0 -0.132415)
(0.0290472 0 -0.0511015)
(-0.13883 0 0.0284609)
(-0.251714 0 0.0896581)
(-0.369402 0 0.134338)
(-0.490075 0 0.170165)
(-0.610035 0 0.200401)
(-0.726592 0 0.219983)
(-0.834938 0 0.22666)
(-0.930692 0 0.221453)
(-1.00932 0 0.20544)
(-1.06673 0 0.179201)
(-1.10001 0 0.143685)
(-1.10752 0 0.100017)
(-1.0906 0 0.0494221)
(-1.05627 0 -0.00829827)
(-0.98035 0 -0.0718026)
(-0.885657 0 -0.140036)
(-0.774792 0 -0.211749)
(-0.656745 0 -0.287935)
(-0.551184 0 -0.347717)
(-0.0258261 0 -0.969584)
(-0.0130233 0 -0.853683)
(-0.0649127 0 -0.703809)
(-0.100179 0 -0.578457)
(-0.156819 0 -0.468497)
(-0.228701 0 -0.370164)
(-0.318475 0 -0.279053)
(-0.426223 0 -0.191839)
(-0.551877 0 -0.105555)
(-0.699515 0 -0.0199264)
(-0.834827 0 0.0532328)
(-0.945706 0 0.111044)
(-1.0633 0 0.163122)
(-1.17995 0 0.21031)
(-1.29304 0 0.24677)
(-1.39925 0 0.272138)
(-1.49569 0 0.284306)
(-1.57944 0 0.281879)
(-1.64776 0 0.265437)
(-1.69795 0 0.236241)
(-1.72771 0 0.195757)
(-1.73562 0 0.145746)
(-1.72151 0 0.0882003)
(-1.68638 0 0.0250049)
(-1.6304 0 -0.0439919)
(-1.55678 0 -0.115169)
(-1.47486 0 -0.186852)
(-1.39041 0 -0.259537)
(-1.3143 0 -0.330914)
(-1.26693 0 -0.386087)
(-0.0798878 0 -0.900312)
(-0.161943 0 -0.770914)
(-0.303802 0 -0.618582)
(-0.43039 0 -0.488055)
(-0.567269 0 -0.371631)
(-0.710252 0 -0.266647)
(-0.859172 0 -0.169182)
(-1.0125 0 -0.0767163)
(-1.16911 0 0.00994802)
(-1.30036 0 0.0820998)
(-1.42266 0 0.144571)
(-1.54383 0 0.19994)
(-1.66184 0 0.248592)
(-1.77394 0 0.289098)
(-1.87776 0 0.318605)
(-1.97085 0 0.335245)
(-2.05102 0 0.337313)
(-2.11639 0 0.323968)
(-2.16526 0 0.29578)
(-2.19612 0 0.254215)
(-2.20782 0 0.201247)
(-2.19999 0 0.139123)
(-2.17365 0 0.0700782)
(-2.13237 0 -0.00355029)
(-2.0721 0 -0.079158)
(-2.00588 0 -0.153199)
(-1.93832 0 -0.223961)
(-1.876 0 -0.29232)
(-1.8276 0 -0.357849)
(-1.80389 0 -0.410003)
(-0.134554 0 -0.744672)
(-0.297796 0 -0.608107)
(-0.5173 0 -0.461274)
(-0.715102 0 -0.335117)
(-0.910177 0 -0.223492)
(-1.09937 0 -0.121665)
(-1.28206 0 -0.0274929)
(-1.44547 0 0.053211)
(-1.58599 0 0.121298)
(-1.72166 0 0.183389)
(-1.85129 0 0.239928)
(-1.97472 0 0.289701)
(-2.09053 0 0.33149)
(-2.19698 0 0.363492)
(-2.29237 0 0.383535)
(-2.37502 0 0.389765)
(-2.44343 0 0.380763)
(-2.49638 0 0.356011)
(-2.5328 0 0.316185)
(-2.55186 0 0.262967)
(-2.5531 0 0.198777)
(-2.53683 0 0.126403)
(-2.5046 0 0.048399)
(-2.45986 0 -0.0326959)
(-2.40374 0 -0.11193)
(-2.34541 0 -0.185839)
(-2.29025 0 -0.253269)
(-2.24505 0 -0.315508)
(-2.21604 0 -0.374164)
(-2.20539 0 -0.421358)
(-0.18722 0 -0.516328)
(-0.417435 0 -0.383831)
(-0.699019 0 -0.253574)
(-0.948089 0 -0.138277)
(-1.17795 0 -0.0342971)
(-1.38033 0 0.0490584)
(-1.55722 0 0.117218)
(-1.7197 0 0.17891)
(-1.87144 0 0.23653)
(-2.01352 0 0.289857)
(-2.14594 0 0.337661)
(-2.26865 0 0.378633)
(-2.38101 0 0.411138)
(-2.48207 0 0.433215)
(-2.57076 0 0.442801)
(-2.64598 0 0.438128)
(-2.70676 0 0.417977)
(-2.75222 0 0.38203)
(-2.78167 0 0.331087)
(-2.79457 0 0.267023)
(-2.79084 0 0.192571)
(-2.77121 0 0.110925)
(-2.73736 0 0.0253606)
(-2.69146 0 -0.0605461)
(-2.63989 0 -0.141451)
(-2.58852 0 -0.21365)
(-2.54353 0 -0.276278)
(-2.5119 0 -0.331362)
(-2.4977 0 -0.382268)
(-2.49586 0 -0.423232)
(-0.244056 0 -0.244107)
(-0.526859 0 -0.0865071)
(-0.83654 0 0.0237636)
(-1.0994 0 0.101695)
(-1.32951 0 0.160196)
(-1.53674 0 0.214071)
(-1.72455 0 0.264626)
(-1.8959 0 0.312301)
(-2.05274 0 0.357053)
(-2.19651 0 0.398502)
(-2.32811 0 0.435257)
(-2.44803 0 0.465622)
(-2.55628 0 0.487628)
(-2.6525 0 0.499129)
(-2.73612 0 0.498016)
(-2.80647 0 0.482527)
(-2.86282 0 0.451526)
(-2.90447 0 0.40479)
(-2.93073 0 0.343223)
(-2.94111 0 0.268891)
(-2.93561 0 0.184837)
(-2.91519 0 0.0946636)
(-2.88203 0 0.00239286)
(-2.83824 0 -0.0869117)
(-2.79105 0 -0.168068)
(-2.74563 0 -0.23743)
(-2.70895 0 -0.294233)
(-2.68843 0 -0.341318)
(-2.68629 0 -0.383651)
(-2.69131 0 -0.417804)
(-0.262898 0 0.184875)
(-0.563405 0 0.246469)
(-0.886792 0 0.290188)
(-1.16269 0 0.327285)
(-1.40728 0 0.359509)
(-1.62412 0 0.389667)
(-1.81701 0 0.419182)
(-1.98979 0 0.448834)
(-2.14545 0 0.478185)
(-2.28627 0 0.506048)
(-2.4138 0 0.530586)
(-2.52904 0 0.549645)
(-2.6325 0 0.560885)
(-2.72423 0 0.561901)
(-2.80403 0 0.550436)
(-2.87144 0 0.524642)
(-2.92587 0 0.483356)
(-2.96658 0 0.426365)
(-2.99276 0 0.354635)
(-3.00371 0 0.270427)
(-2.99932 0 0.177178)
(-2.98046 0 0.0790949)
(-2.94908 0 -0.0190629)
(-2.90896 0 -0.111264)
(-2.86587 0 -0.192069)
(-2.82547 0 -0.257876)
(-2.79559 0 -0.308091)
(-2.78437 0 -0.346382)
(-2.79256 0 -0.379358)
(-2.80348 0 -0.406438)
(-0.258254 0 0.524402)
(-0.573038 0 0.568852)
(-0.913417 0 0.572589)
(-1.19785 0 0.569817)
(-1.44488 0 0.566785)
(-1.65944 0 0.567461)
(-1.8472 0 0.572807)
(-2.01313 0 0.582605)
(-2.16121 0 0.595496)
(-2.29434 0 0.609349)
(-2.41451 0 0.621628)
(-2.52306 0 0.629652)
(-2.62078 0 0.630662)
(-2.70802 0 0.621936)
(-2.78476 0 0.60098)
(-2.85067 0 0.565782)
(-2.90514 0 0.515061)
(-2.94733 0 0.448531)
(-2.97612 0 0.367159)
(-2.99046 0 0.27336)
(-2.98984 0 0.171015)
(-2.97481 0 0.0651381)
(-2.94682 0 -0.0385301)
(-2.91092 0 -0.133451)
(-2.87182 0 -0.213718)
(-2.83576 0 -0.275552)
(-2.81149 0 -0.318584)
(-2.80819 0 -0.347279)
(-2.82561 0 -0.370021)
(-2.84199 0 -0.389692)
(-0.264448 0 0.904223)
(-0.594401 0 0.914667)
(-0.941281 0 0.863942)
(-1.21932 0 0.811418)
(-1.45362 0 0.768187)
(-1.65259 0 0.737117)
(-1.82421 0 0.717382)
(-1.97457 0 0.707364)
(-2.10839 0 0.704417)
(-2.22891 0 0.705182)
(-2.33824 0 0.706258)
(-2.43777 0 0.704409)
(-2.5284 0 0.696461)
(-2.61063 0 0.679332)
(-2.68451 0 0.650233)
(-2.74975 0 0.606917)
(-2.8057 0 0.54791)
(-2.85134 0 0.472769)
(-2.88523 0 0.382377)
(-2.90578 0 0.279257)
(-2.91184 0 0.167766)
(-2.90326 0 0.0539089)
(-2.88082 0 -0.0554126)
(-2.85025 0 -0.153223)
(-2.81559 0 -0.233107)
(-2.7836 0 -0.29085)
(-2.7641 0 -0.326281)
(-2.76768 0 -0.344591)
(-2.79364 0 -0.356036)
(-2.81537 0 -0.367653)
(-0.286803 0 1.3129)
(-0.640033 0 1.27524)
(-0.985286 0 1.15004)
(-1.23879 0 1.03609)
(-1.44197 0 0.949732)
(-1.61051 0 0.887667)
(-1.75435 0 0.844352)
(-1.88002 0 0.816569)
(-1.99271 0 0.8002)
(-2.09561 0 0.790181)
(-2.19039 0 0.782119)
(-2.27818 0 0.772353)
(-2.35984 0 0.757378)
(-2.43591 0 0.733736)
(-2.50645 0 0.698309)
(-2.57116 0 0.648587)
(-2.62937 0 0.582867)
(-2.67996 0 0.500475)
(-2.72122 0 0.402105)
(-2.75096 0 0.290255)
(-2.76715 0 0.169664)
(-2.76858 0 0.0473538)
(-2.75498 0 -0.0684041)
(-2.73191 0 -0.169889)
(-2.70312 0 -0.250057)
(-2.67571 0 -0.303953)
(-2.66064 0 -0.331624)
(-2.67031 0 -0.338868)
(-2.70439 0 -0.337709)
(-2.73156 0 -0.340157)
(-0.335832 0 1.76515)
(-0.732322 0 1.65562)
(-1.06763 0 1.41559)
(-1.26856 0 1.22245)
(-1.41534 0 1.09485)
(-1.53696 0 1.00772)
(-1.6414 0 0.944969)
(-1.73315 0 0.903488)
(-1.81788 0 0.878114)
(-1.89831 0 0.861005)
(-1.9748 0 0.84671)
(-2.04774 0 0.831629)
(-2.11795 0 0.812149)
(-2.18597 0 0.78442)
(-2.25184 0 0.744957)
(-2.31524 0 0.691016)
(-2.37562 0 0.620656)
(-2.43194 0 0.532882)
(-2.48239 0 0.428023)
(-2.5243 0 0.308316)
(-2.55464 0 0.178666)
(-2.57076 0 0.0471486)
(-2.57081 0 -0.0760952)
(-2.55894 0 -0.18233)
(-2.53913 0 -0.263876)
(-2.51822 0 -0.314611)
(-2.50815 0 -0.334816)
(-2.52344 0 -0.330612)
(-2.56527 0 -0.315209)
(-2.59803 0 -0.306578)
(-0.457382 0 2.47005)
(-0.912223 0 2.16286)
(-1.22795 0 1.66214)
(-1.32222 0 1.33513)
(-1.37256 0 1.1808)
(-1.43111 0 1.08685)
(-1.48697 0 1.01106)
(-1.53576 0 0.961248)
(-1.58605 0 0.933743)
(-1.64006 0 0.914524)
(-1.69478 0 0.897247)
(-1.74938 0 0.87975)
(-1.80491 0 0.858701)
(-1.86204 0 0.829671)
(-1.92065 0 0.78874)
(-1.98043 0 0.733046)
(-2.04108 0 0.660509)
(-2.10198 0 0.569776)
(-2.16164 0 0.460684)
(-2.21739 0 0.335005)
(-2.26555 0 0.197454)
(-2.30227 0 0.056794)
(-2.3238 0 -0.0747851)
(-2.32981 0 -0.187306)
(-2.32521 0 -0.272189)
(-2.31554 0 -0.321379)
(-2.31305 0 -0.335271)
(-2.33417 0 -0.319853)
(-2.38333 0 -0.288224)
(-2.42186 0 -0.265528)
(9.99589 0 0.138603)
(9.98221 0 0.275517)
(9.95803 0 0.412894)
(9.9244 0 0.552704)
(9.88223 0 0.696629)
(9.83191 0 0.846224)
(9.77366 0 1.003)
(9.70775 0 1.16843)
(9.63445 0 1.344)
(9.55403 0 1.53115)
(9.46676 0 1.73139)
(9.37291 0 1.94627)
(9.27274 0 2.17741)
(9.1665 0 2.42656)
(9.05445 0 2.69563)
(8.93681 0 2.98675)
(8.81377 0 3.30236)
(8.68547 0 3.64536)
(8.55198 0 4.01925)
(8.41332 0 4.42839)
(8.26942 0 4.87841)
(8.12021 0 5.37675)
(7.96566 0 5.93356)
(7.80611 0 6.56318)
(7.64288 0 7.28664)
(7.48114 0 8.13654)
(7.33456 0 9.16686)
(7.29426 0 10.4713)
(7.76244 0 12.195)
(7.9659 0 14.9159)
(9.99638 0 0.143573)
(9.9843 0 0.285391)
(9.96298 0 0.427647)
(9.93339 0 0.572345)
(9.89638 0 0.721179)
(9.85237 0 0.875711)
(9.80164 0 1.03745)
(9.74452 0 1.20788)
(9.68136 0 1.38847)
(9.61253 0 1.58065)
(9.53841 0 1.78593)
(9.45943 0 2.00583)
(9.37601 0 2.24197)
(9.28865 0 2.49606)
(9.19785 0 2.76999)
(9.10419 0 3.06588)
(9.00833 0 3.38614)
(8.91101 0 3.73362)
(8.81316 0 4.11175)
(8.71596 0 4.52478)
(8.62102 0 4.9781)
(8.53074 0 5.47872)
(8.44885 0 6.03592)
(8.38168 0 6.66222)
(8.3405 0 7.37475)
(8.34756 0 8.19679)
(8.44206 0 9.15821)
(8.68031 0 10.2917)
(9.33186 0 11.5404)
(9.83007 0 12.6132)
(9.99688 0 0.14802)
(9.98647 0 0.294222)
(9.96811 0 0.440824)
(9.9427 0 0.589846)
(9.91102 0 0.742988)
(9.87352 0 0.901805)
(9.83053 0 1.0678)
(9.78243 0 1.24243)
(9.72965 0 1.42714)
(9.67265 0 1.62335)
(9.61195 0 1.83252)
(9.54809 0 2.05612)
(9.4817 0 2.29571)
(9.41347 0 2.55295)
(9.34419 0 2.82965)
(9.27479 0 3.12779)
(9.20635 0 3.44964)
(9.14022 0 3.79782)
(9.07808 0 4.17545)
(9.02215 0 4.58626)
(8.97544 0 5.03484)
(8.94224 0 5.5268)
(8.92886 0 6.06909)
(8.94483 0 6.67002)
(9.00467 0 7.33888)
(9.13054 0 8.0841)
(9.35342 0 8.90712)
(9.68251 0 9.7961)
(10.2465 0 10.6984)
(10.9308 0 11.4013)
(9.99739 0 0.151893)
(9.9887 0 0.301902)
(9.97339 0 0.452256)
(9.95226 0 0.604977)
(9.92604 0 0.761756)
(9.89519 0 0.924132)
(9.86009 0 1.09358)
(9.82117 0 1.27154)
(9.77893 0 1.4594)
(9.73393 0 1.65854)
(9.68678 0 1.87036)
(9.63817 0 2.09625)
(9.58888 0 2.33769)
(9.53981 0 2.59621)
(9.492 0 2.87346)
(9.44668 0 3.17125)
(9.40533 0 3.49157)
(9.36978 0 3.83667)
(9.34231 0 4.20912)
(9.32589 0 4.61188)
(9.32445 0 5.04832)
(9.34327 0 5.52223)
(9.38959 0 6.0377)
(9.47329 0 6.59861)
(9.60751 0 7.2076)
(9.809 0 7.86414)
(10.1003 0 8.56089)
(10.4897 0 9.28283)
(11.0434 0 10.0196)
(11.8304 0 10.6579)
(9.99792 0 0.155142)
(9.99098 0 0.30834)
(9.97877 0 0.46181)
(9.962 0 0.61756)
(9.94132 0 0.777263)
(9.91721 0 0.942429)
(9.89008 0 1.1145)
(9.86041 0 1.29486)
(9.82878 0 1.48485)
(9.79581 0 1.68579)
(9.76222 0 1.89897)
(9.7288 0 2.1257)
(9.69648 0 2.36733)
(9.66633 0 2.62522)
(9.63959 0 2.90083)
(9.61776 0 3.19568)
(9.60259 0 3.51143)
(9.59626 0 3.84985)
(9.60145 0 4.21284)
(9.62153 0 4.60242)
(9.66082 0 5.02069)
(9.7248 0 5.46962)
(9.82052 0 5.95078)
(9.95689 0 6.46481)
(10.1449 0 7.01055)
(10.3974 0 7.58403)
(10.7316 0 8.17705)
(11.1589 0 8.77485)
(11.7017 0 9.36589)
(12.4478 0 9.87546)
(9.99845 0 0.157727)
(9.99327 0 0.31345)
(9.9842 0 0.469357)
(9.97182 0 0.627429)
(9.95672 0 0.789306)
(9.93937 0 0.956457)
(9.92023 0 1.13027)
(9.89982 0 1.31209)
(9.87876 0 1.50316)
(9.85773 0 1.70473)
(9.83754 0 1.91798)
(9.81908 0 2.1441)
(9.80338 0 2.38426)
(9.79164 0 2.63966)
(9.78526 0 2.91149)
(9.78589 0 3.20098)
(9.79549 0 3.50935)
(9.81641 0 3.83787)
(9.85149 0 4.18774)
(9.90423 0 4.56006)
(9.97887 0 4.95573)
(10.0806 0 5.37519)
(10.2157 0 5.81816)
(10.3917 0 6.28316)
(10.6173 0 6.76689)
(10.9021 0 7.26356)
(11.2571 0 7.76395)
(11.69 0 8.25255)
(12.2016 0 8.71273)
(12.8704 0 9.10318)
(9.99898 0 0.159606)
(9.99557 0 0.317154)
(9.98964 0 0.474785)
(9.98165 0 0.634436)
(9.97212 0 0.797703)
(9.9615 0 0.966005)
(9.95029 0 1.14067)
(9.93904 0 1.32296)
(9.92839 0 1.51405)
(9.9191 0 1.71507)
(9.91201 0 1.9271)
(9.90808 0 2.15117)
(9.90844 0 2.38828)
(9.91435 0 2.6394)
(9.9273 0 2.90547)
(9.94903 0 3.18736)
(9.98156 0 3.48591)
(10.0273 0 3.80182)
(10.089 0 4.13565)
(10.1701 0 4.4877)
(10.2745 0 4.85786)
(10.4067 0 5.24541)
(10.5719 0 5.64878)
(10.7762 0 6.06514)
(11.0257 0 6.49003)
(11.3269 0 6.91676)
(11.6856 0 7.33603)
(12.106 0 7.73451)
(12.5817 0 8.09776)
(13.1811 0 8.40551)
(9.9995 0 0.160747)
(9.99786 0 0.319385)
(9.99504 0 0.477995)
(9.9914 0 0.638455)
(9.98737 0 0.802305)
(9.9834 0 0.9709)
(9.97998 0 1.1455)
(9.9777 0 1.32728)
(9.97722 0 1.51732)
(9.97932 0 1.71664)
(9.98488 0 1.92618)
(9.99491 0 2.14682)
(10.0105 0 2.37936)
(10.0331 0 2.62456)
(10.0641 0 2.88306)
(10.1053 0 3.15542)
(10.1586 0 3.44207)
(10.2264 0 3.74323)
(10.3113 0 4.05889)
(10.4163 0 4.38868)
(10.5448 0 4.73172)
(10.7006 0 5.08651)
(10.8878 0 5.45065)
(11.1107 0 5.82065)
(11.3735 0 6.19162)
(11.6799 0 6.55705)
(12.0326 0 6.90873)
(12.4332 0 7.23644)
(12.8739 0 7.52921)
(13.4121 0 7.77589)
(10 0 0.16112)
(10.0001 0 0.32009)
(10.0004 0 0.478908)
(10.001 0 0.639385)
(10.0023 0 0.802991)
(10.0049 0 0.971011)
(10.009 0 1.14462)
(10.0155 0 1.32491)
(10.0248 0 1.51285)
(10.0378 0 1.70934)
(10.0555 0 1.91518)
(10.0787 0 2.13108)
(10.1087 0 2.35767)
(10.1467 0 2.59545)
(10.1943 0 2.84483)
(10.253 0 3.10604)
(10.3248 0 3.37915)
(10.4118 0 3.66398)
(10.5163 0 3.96005)
(10.6409 0 4.26649)
(10.7884 0 4.5819)
(10.9617 0 4.9043)
(11.1639 0 5.23089)
(11.3978 0 5.558)
(11.666 0 5.8809)
(11.9704 0 6.19381)
(12.3116 0 6.48992)
(12.6895 0 6.7615)
(13.0964 0 7.00033)
(13.5805 0 7.19969)
(10.0005 0 0.160706)
(10.0023 0 0.319224)
(10.0055 0 0.477464)
(10.0103 0 0.63715)
(10.0169 0 0.799679)
(10.0257 0 0.966254)
(10.0372 0 1.13797)
(10.052 0 1.3158)
(10.0707 0 1.50062)
(10.0941 0 1.6932)
(10.1231 0 1.8942)
(10.1586 0 2.10417)
(10.2019 0 2.32354)
(10.2541 0 2.55261)
(10.3165 0 2.79155)
(10.3909 0 3.04032)
(10.4787 0 3.29868)
(10.582 0 3.56613)
(10.7026 0 3.84184)
(10.8427 0 4.1246)
(11.0045 0 4.41272)
(11.1902 0 4.70397)
(11.4017 0 4.99548)
(11.6408 0 5.2837)
(11.9089 0 5.56439)
(12.2065 0 5.83262)
(12.5331 0 6.08291)
(12.8875 0 6.30946)
(13.2626 0 6.50631)
(13.7 0 6.66938)
(10.001 0 0.159488)
(10.0044 0 0.31676)
(10.0105 0 0.473621)
(10.0193 0 0.631705)
(10.031 0 0.792321)
(10.0458 0 0.956589)
(10.0642 0 1.1255)
(10.0869 0 1.29994)
(10.1145 0 1.48067)
(10.1476 0 1.66833)
(10.1871 0 1.86344)
(10.2341 0 2.06639)
(10.2894 0 2.27746)
(10.3542 0 2.49674)
(10.4299 0 2.72419)
(10.5178 0 2.95955)
(10.6193 0 3.20235)
(10.736 0 3.45184)
(10.8696 0 3.70697)
(11.0216 0 3.96631)
(11.1936 0 4.22807)
(11.3871 0 4.48996)
(11.6035 0 4.74924)
(11.8435 0 5.00269)
(12.1076 0 5.24661)
(12.3955 0 5.47696)
(12.7061 0 5.68947)
(13.0375 0 5.87982)
(13.3836 0 6.04385)
(13.7808 0 6.1791)
(10.0015 0 0.157458)
(10.0065 0 0.312681)
(10.0153 0 0.467363)
(10.028 0 0.623033)
(10.0444 0 0.78091)
(10.0649 0 0.942023)
(10.0899 0 1.10727)
(10.12 0 1.27743)
(10.1558 0 1.45315)
(10.1979 0 1.63495)
(10.2471 0 1.82322)
(10.3044 0 2.01822)
(10.3705 0 2.22005)
(10.4466 0 2.42866)
(10.5337 0 2.64383)
(10.6331 0 2.86513)
(10.7459 0 3.0919)
(10.8735 0 3.32326)
(11.0169 0 3.558)
(11.1776 0 3.79465)
(11.3564 0 4.03138)
(11.5544 0 4.26601)
(11.7721 0 4.49604)
(12.0098 0 4.71863)
(12.2673 0 4.93072)
(12.5439 0 5.12904)
(12.838 0 5.31033)
(13.1477 0 5.47146)
(13.4677 0 5.60955)
(13.8304 0 5.72311)
(10.0019 0 0.154615)
(10.0084 0 0.306988)
(10.0199 0 0.458691)
(10.0361 0 0.611144)
(10.057 0 0.765472)
(10.0829 0 0.92261)
(10.1141 0 1.08336)
(10.1511 0 1.2484)
(10.1944 0 1.41826)
(10.2447 0 1.59335)
(10.3027 0 1.77395)
(10.3691 0 1.96019)
(10.4448 0 2.15203)
(10.5306 0 2.3493)
(10.6275 0 2.55163)
(10.7364 0 2.75848)
(10.8584 0 2.96909)
(10.9943 0 3.18246)
(11.1451 0 3.39736)
(11.3115 0 3.61232)
(11.4943 0 3.82558)
(11.6938 0 4.03517)
(11.9103 0 4.23887)
(12.1435 0 4.43427)
(12.3929 0 4.61885)
(12.6573 0 4.79007)
(12.9353 0 4.94547)
(13.2248 0 5.08278)
(13.5214 0 5.20006)
(13.8542 0 5.29645)
(10.0024 0 0.150966)
(10.0102 0 0.299693)
(10.0241 0 0.447628)
(10.0437 0 0.596079)
(10.0689 0 0.746072)
(10.0997 0 0.898448)
(10.1365 0 1.05391)
(10.1798 0 1.21304)
(10.2301 0 1.37627)
(10.2878 0 1.54391)
(10.3535 0 1.71613)
(10.428 0 1.89293)
(10.5119 0 2.0742)
(10.606 0 2.25964)
(10.711 0 2.44881)
(10.8276 0 2.64107)
(10.9567 0 2.8356)
(11.0988 0 3.03138)
(11.2546 0 3.22721)
(11.4246 0 3.42167)
(11.609 0 3.61317)
(11.8079 0 3.79993)
(12.0212 0 3.98005)
(12.2484 0 4.15154)
(12.4886 0 4.31237)
(12.7408 0 4.46059)
(13.0033 0 4.59436)
(13.2742 0 4.71208)
(13.55 0 4.81244)
(13.8569 0 4.895)
(10.0027 0 0.146521)
(10.0119 0 0.290822)
(10.0281 0 0.434218)
(10.0508 0 0.577904)
(10.0798 0 0.722806)
(10.1152 0 0.869673)
(10.1572 0 1.01912)
(10.2062 0 1.17162)
(10.2626 0 1.32753)
(10.3268 0 1.48706)
(10.3994 0 1.65028)
(10.4809 0 1.81713)
(10.5718 0 1.98738)
(10.6727 0 2.1607)
(10.7842 0 2.33655)
(10.9069 0 2.51427)
(11.0413 0 2.69302)
(11.1878 0 2.87181)
(11.3467 0 3.04949)
(11.5182 0 3.22476)
(11.7023 0 3.39619)
(11.899 0 3.56224)
(12.1078 0 3.72132)
(12.3279 0 3.8718)
(12.5586 0 4.01209)
(12.7986 0 4.1407)
(13.0465 0 4.25628)
(13.3005 0 4.35771)
(13.5576 0 4.44413)
(13.8419 0 4.51536)
(10.0031 0 0.1413)
(10.0134 0 0.280411)
(10.0317 0 0.418521)
(10.0573 0 0.556707)
(10.0898 0 0.6958)
(10.1293 0 0.836457)
(10.1759 0 0.979201)
(10.23 0 1.12443)
(10.2919 0 1.27241)
(10.3618 0 1.42327)
(10.4403 0 1.577)
(10.5277 0 1.73349)
(10.6244 0 1.89244)
(10.7309 0 2.05347)
(10.8475 0 2.21602)
(10.9748 0 2.37941)
(11.1128 0 2.54283)
(11.262 0 2.70535)
(11.4223 0 2.86588)
(11.5939 0 3.02328)
(11.7764 0 3.1763)
(11.9696 0 3.32363)
(12.1729 0 3.46395)
(12.3855 0 3.59596)
(12.6065 0 3.71843)
(12.8348 0 3.83023)
(13.069 0 3.93038)
(13.3075 0 4.01812)
(13.5479 0 4.0929)
(13.8123 0 4.1547)
(10.0034 0 0.135326)
(10.0148 0 0.268511)
(10.035 0 0.400614)
(10.0632 0 0.5326)
(10.0989 0 0.665204)
(10.142 0 0.798997)
(10.1928 0 0.934421)
(10.2514 0 1.07179)
(10.3179 0 1.21131)
(10.3928 0 1.35303)
(10.4762 0 1.4969)
(10.5685 0 1.64273)
(10.6699 0 1.79021)
(10.7808 0 1.93892)
(10.9013 0 2.08831)
(11.0317 0 2.23771)
(11.1721 0 2.38635)
(11.3226 0 2.53337)
(11.4831 0 2.67781)
(11.6534 0 2.81865)
(11.8332 0 2.95483)
(12.0221 0 3.08525)
(12.2193 0 3.20884)