/*--------------------------------*- C++ -*----------------------------------*\
  =========                 |
  \\      /  F ield         | OpenFOAM: The Open Source CFD Toolbox
   \\    /   O peration     | Website:  https://openfoam.org
    \\  /    A nd           | Version:  dev
     \\/     M anipulation  |
\*---------------------------------------------------------------------------*/
FoamFile
{
    version     2.0;
    format      ascii;
    class       surfaceVectorField;
    location    "3.4";
    object      Uf;
}
// * * * * * * * * * * * * * * * * * * * * * * * * * * * * * * * * * * * * * //

dimensions      [0 1 -1 0 0 0 0];

internalField   nonuniform List<vector> 
5457
(
(9.92088 0 0.02511)
(9.97124 0 0.0387464)
(9.82401 0 0.0328275)
(9.92859 0 0.0485863)
(9.70961 0 0.039313)
(9.85547 0 0.0587698)
(9.57543 0 0.0460127)
(9.75679 0 0.0705954)
(9.42136 0 0.0529502)
(9.63752 0 0.0830158)
(9.24753 0 0.0601675)
(9.49859 0 0.0959391)
(9.0536 0 0.0678122)
(9.33928 0 0.109615)
(8.8389 0 0.0760357)
(9.15872 0 0.124291)
(8.60249 0 0.0849711)
(8.95607 0 0.140169)
(8.34323 0 0.0947454)
(8.73035 0 0.157435)
(8.05981 0 0.105487)
(8.48037 0 0.176271)
(7.75077 0 0.117327)
(8.20474 0 0.196857)
(7.41453 0 0.130395)
(7.90192 0 0.21936)
(7.04948 0 0.144809)
(7.57028 0 0.243921)
(6.65402 0 0.16067)
(7.20817 0 0.270629)
(6.22671 0 0.178041)
(6.81398 0 0.299496)
(5.76643 0 0.196925)
(6.38633 0 0.330409)
(5.27259 0 0.217229)
(5.92418 0 0.363078)
(4.74541 0 0.238731)
(5.42713 0 0.396969)
(4.18625 0 0.261028)
(4.8957 0 0.431229)
(3.59804 0 0.283484)
(4.3317 0 0.464612)
(2.98563 0 0.305198)
(3.73868 0 0.495418)
(2.3562 0 0.325066)
(3.12236 0 0.521508)
(1.7192 0 0.342546)
(2.49116 0 0.540555)
(1.08444 0 0.361879)
(1.85595 0 0.551673)
(0.451931 0 0.348706)
(1.24557 0 0.563019)
(-0.145775 0 0.102503)
(0.609028 0 0.544908)
(-0.423595 0 -0.207087)
(0.0946988 0 0.259406)
(-0.402146 0 -0.361265)
(-0.133616 0 -0.0205114)
(-0.119678 0 -0.393877)
(9.99641 0 0.0516737)
(9.99705 0 0.0405058)
(9.95878 0 0.0708636)
(9.9785 0 0.0674567)
(9.89824 0 0.0879896)
(9.93377 0 0.0898732)
(9.81658 0 0.105988)
(9.86452 0 0.113559)
(9.71357 0 0.124925)
(9.77437 0 0.13852)
(9.58907 0 0.144857)
(9.66433 0 0.164651)
(9.44272 0 0.166094)
(9.53395 0 0.192337)
(9.27388 0 0.18897)
(9.38247 0 0.222035)
(9.08163 0 0.213786)
(9.20916 0 0.254153)
(8.86487 0 0.240817)
(9.01313 0 0.289067)
(8.62227 0 0.270337)
(8.79328 0 0.327154)
(8.35236 0 0.302606)
(8.54832 0 0.368786)
(8.05353 0 0.337855)
(8.2768 0 0.414314)
(7.72409 0 0.376258)
(7.97714 0 0.464042)
(7.36235 0 0.417896)
(7.64769 0 0.518182)
(6.96671 0 0.4627)
(7.28681 0 0.576797)
(6.53584 0 0.510377)
(6.89295 0 0.639714)
(6.06885 0 0.560322)
(6.46482 0 0.706414)
(5.56562 0 0.611509)
(6.00162 0 0.775894)
(5.02715 0 0.662373)
(5.5033 0 0.846508)
(4.45594 0 0.710698)
(4.97094 0 0.915791)
(3.85657 0 0.753531)
(4.40725 0 0.980293)
(3.23628 0 0.78719)
(3.81712 0 1.03545)
(2.60591 0 0.8075)
(3.20855 0 1.07548)
(1.98288 0 0.810469)
(2.59348 0 1.09315)
(1.40536 0 0.776911)
(1.99629 0 1.07709)
(0.929827 0 0.646428)
(1.41958 0 0.978438)
(0.439929 0 0.38438)
(0.937631 0 0.716833)
(0.059209 0 -0.118576)
(0.44386 0 0.343573)
(0.174934 0 -0.335886)
(9.98903 0 0.059433)
(9.99481 0 0.0458792)
(9.95433 0 0.08948)
(9.97368 0 0.0848576)
(9.89729 0 0.118036)
(9.92984 0 0.119179)
(9.82045 0 0.147904)
(9.86356 0 0.153982)
(9.72415 0 0.179428)
(9.77734 0 0.190415)
(9.60819 0 0.212782)
(9.67225 0 0.228644)
(9.47232 0 0.248398)
(9.54808 0 0.269137)
(9.31605 0 0.28678)
(9.40429 0 0.312504)
(9.13865 0 0.328401)
(9.24031 0 0.359331)
(8.93921 0 0.373724)
(9.05546 0 0.410178)
(8.71661 0 0.423206)
(8.84886 0 0.4656)
(8.46956 0 0.477293)
(8.61947 0 0.526151)
(8.19664 0 0.536392)
(8.36612 0 0.592367)
(7.8963 0 0.600831)
(8.08748 0 0.664728)
(7.5669 0 0.670796)
(7.78217 0 0.743603)
(7.20682 0 0.746238)
(7.44871 0 0.82917)
(6.81457 0 0.82676)
(7.08567 0 0.921295)
(6.38889 0 0.911459)
(6.69171 0 1.01938)
(5.92906 0 0.998732)
(6.26574 0 1.12214)
(5.43519 0 1.08607)
(5.80715 0 1.22739)
(4.90861 0 1.1698)
(5.31613 0 1.33172)
(4.35251 0 1.24487)
(4.79404 0 1.43017)
(3.77268 0 1.30454)
(4.24405 0 1.51586)
(3.17882 0 1.33984)
(3.6719 0 1.57942)
(2.58672 0 1.33813)
(3.08642 0 1.60775)
(2.01995 0 1.273)
(2.50302 0 1.5816)
(1.48702 0 1.09545)
(1.92882 0 1.46429)
(0.958354 0 0.769224)
(1.38532 0 1.21046)
(0.479912 0 0.202524)
(0.829588 0 0.80111)
(0.433752 0 0.134158)
(9.98515 0 0.0716169)
(9.99367 0 0.0531502)
(9.95039 0 0.113635)
(9.97087 0 0.102295)
(9.89436 0 0.15414)
(9.9269 0 0.14796)
(9.81881 0 0.195581)
(9.86184 0 0.19373)
(9.7244 0 0.23882)
(9.77745 0 0.241287)
(9.6111 0 0.284333)
(9.67465 0 0.291174)
(9.47872 0 0.332729)
(9.5534 0 0.343966)
(9.32692 0 0.384682)
(9.41333 0 0.400381)
(9.15519 0 0.440852)
(9.25397 0 0.461147)
(8.96287 0 0.501887)
(9.0748 0 0.526967)
(8.74913 0 0.568428)
(8.87516 0 0.598538)
(8.513 0 0.641108)
(8.65425 0 0.67656)
(8.25342 0 0.720521)
(8.41118 0 0.761713)
(7.96922 0 0.807175)
(8.14496 0 0.854623)
(7.65915 0 0.901417)
(7.85451 0 0.955799)
(7.32191 0 1.00332)
(7.53873 0 1.06554)
(6.9562 0 1.11254)
(7.19645 0 1.18381)
(6.56085 0 1.2281)
(6.82653 0 1.31004)
(6.13491 0 1.34813)
(6.4279 0 1.44287)
(5.67789 0 1.46956)
(5.9997 0 1.57986)
(5.19006 0 1.58774)
(5.54139 0 1.71704)
(4.67294 0 1.696)
(5.05312 0 1.8485)
(4.12989 0 1.78513)
(4.53604 0 1.9658)
(3.56675 0 1.84252)
(3.99283 0 2.05729)
(2.99215 0 1.85073)
(3.4277 0 2.10714)
(2.41593 0 1.78252)
(2.84773 0 2.09451)
(1.84062 0 1.60051)
(2.25632 0 1.98878)
(1.25944 0 1.2785)
(1.66039 0 1.75312)
(0.666803 0 0.789622)
(1.02401 0 1.36786)
(0.523056 0 0.787251)
(9.98337 0 0.0844113)
(9.99316 0 0.0612943)
(9.94821 0 0.136843)
(9.96958 0 0.119933)
(9.89314 0 0.18804)
(9.92574 0 0.176248)
(9.81905 0 0.240179)
(9.86198 0 0.232708)
(9.72661 0 0.294478)
(9.77962 0 0.291099)
(9.61588 0 0.35167)
(9.67938 0 0.352286)
(9.48668 0 0.412481)
(9.56125 0 0.41699)
(9.33875 0 0.477685)
(9.42494 0 0.48602)
(9.17167 0 0.548057)
(9.27006 0 0.560213)
(8.98488 0 0.624357)
(9.09616 0 0.640392)
(8.77774 0 0.707342)
(8.9027 0 0.727369)
(8.54949 0 0.797757)
(8.68902 0 0.821952)
(8.29931 0 0.896313)
(8.4544 0 0.924931)
(8.02631 0 1.00363)
(8.19803 0 1.03704)
(7.72954 0 1.12018)
(7.91908 0 1.15889)
(7.40803 0 1.24613)
(7.61666 0 1.29089)
(7.06075 0 1.38123)
(7.28983 0 1.4331)
(6.68669 0 1.52454)
(6.93762 0 1.58505)
(6.28487 0 1.67414)
(6.55899 0 1.74545)
(5.85442 0 1.82674)
(6.15289 0 1.91183)
(5.39476 0 1.97721)
(5.71826 0 2.08011)
(4.90582 0 2.11801)
(5.25414 0 2.24404)
(4.38834 0 2.23858)
(4.75982 0 2.39456)
(3.84404 0 2.32453)
(4.23505 0 2.51917)
(3.27554 0 2.35696)
(3.68 0 2.60123)
(2.68549 0 2.31063)
(3.09583 0 2.61973)
(2.07277 0 2.15507)
(2.48179 0 2.54738)
(1.42944 0 1.86749)
(1.84 0 2.35381)
(0.742645 0 1.41968)
(1.13142 0 2.02464)
(0.543332 0 1.51463)
(9.98264 0 0.0975024)
(9.99299 0 0.0697963)
(9.94743 0 0.159782)
(9.96924 0 0.13759)
(9.89354 0 0.221358)
(9.92596 0 0.203936)
(9.82132 0 0.284104)
(9.8638 0 0.2707)
(9.73132 0 0.349361)
(9.78384 0 0.339597)
(9.62364 0 0.418032)
(9.68663 0 0.411712)
(9.49816 0 0.490951)
(9.57215 0 0.487918)
(9.35462 0 0.568985)
(9.44018 0 0.569118)
(9.19265 0 0.653012)
(9.29039 0 0.656245)
(9.01179 0 0.743901)
(9.12238 0 0.750221)
(8.81146 0 0.842515)
(8.93567 0 0.851959)
(8.59104 0 0.949701)
(8.72967 0 0.962363)
(8.3498 0 1.06627)
(8.50376 0 1.08231)
(8.08702 0 1.19294)
(8.25723 0 1.21263)
(7.80188 0 1.33027)
(7.98933 0 1.35402)
(7.49356 0 1.47856)
(7.69925 0 1.50699)
(7.16117 0 1.63764)
(7.38614 0 1.67171)
(6.80372 0 1.80669)
(7.04901 0 1.84786)
(6.42012 0 1.98391)
(6.68675 0 2.03429)
(6.00916 0 2.16607)
(6.29803 0 2.22877)
(5.56946 0 2.34805)
(5.88123 0 2.42741)
(5.09953 0 2.52215)
(5.4344 0 2.62419)
(4.59783 0 2.67753)
(4.9552 0 2.81024)
(4.0628 0 2.79948)
(4.44095 0 2.97319)
(3.49281 0 2.86912)
(3.88864 0 3.09662)
(2.88594 0 2.86296)
(3.29535 0 3.15993)
(2.23811 0 2.75401)
(2.65702 0 3.13798)
(1.54251 0 2.52115)
(1.97494 0 3.0033)
(0.793687 0 2.13148)
(1.20731 0 2.74075)
(0.556768 0 2.29199)
(9.9825 0 0.110632)
(9.99301 0 0.0783655)
(9.9477 0 0.182333)
(9.96953 0 0.155045)
(9.89522 0 0.253829)
(9.92721 0 0.230897)
(9.82523 0 0.326781)
(9.86696 0 0.307523)
(9.73811 0 0.40257)
(9.78976 0 0.386539)
(9.63401 0 0.48225)
(9.69603 0 0.469166)
(9.51282 0 0.566773)
(9.58576 0 0.556415)
(9.37434 0 0.657106)
(9.45876 0 0.649287)
(9.21824 0 0.754223)
(9.31476 0 0.748801)
(9.04409 0 0.85909)
(9.15342 0 0.855972)
(8.8514 0 0.972662)
(8.97428 0 0.971805)
(8.63957 0 1.09588)
(8.77685 0 1.09729)
(8.40797 0 1.22963)
(8.56052 0 1.23341)
(8.1559 0 1.37473)
(8.32464 0 1.38105)
(7.8826 0 1.53183)
(8.06847 0 1.54105)
(7.58723 0 1.70134)
(7.7912 0 1.71401)
(7.26887 0 1.88324)
(7.49192 0 1.90025)
(6.92641 0 2.07691)
(7.16952 0 2.09964)
(6.55852 0 2.28078)
(6.82265 0 2.31132)
(6.1635 0 2.49198)
(6.4496 0 2.53341)
(5.73918 0 2.70576)
(6.04814 0 2.76256)
(5.28281 0 2.91492)
(5.61531 0 2.99339)
(4.79093 0 3.10911)
(5.14734 0 3.21778)
(4.25942 0 3.27418)
(4.63951 0 3.42422)
(3.68352 0 3.39187)
(4.0862 0 3.59713)
(3.05818 0 3.43974)
(3.48147 0 3.71657)
(2.37786 0 3.39189)
(2.81851 0 3.75821)
(1.638 0 3.22632)
(2.09929 0 3.69412)
(0.839181 0 2.90103)
(1.27901 0 3.50467)
(0.573401 0 3.11392)
(9.98273 0 0.123588)
(9.99316 0 0.0868222)
(9.94872 0 0.20432)
(9.97026 0 0.172102)
(9.89793 0 0.285266)
(9.92926 0 0.256989)
(9.83049 0 0.367982)
(9.87122 0 0.343005)
(9.74669 0 0.45387)
(9.79714 0 0.431698)
(9.64666 0 0.544096)
(9.70732 0 0.524372)
(9.53035 0 0.639726)
(9.60178 0 0.622156)
(9.39758 0 0.741816)
(9.48034 0 0.726146)
(9.24808 0 0.851427)
(9.34281 0 0.837441)
(9.08148 0 0.969615)
(9.18889 0 0.957145)
(8.89731 0 1.09742)
(9.01818 0 1.08635)
(8.69504 0 1.23588)
(8.83023 0 1.22613)
(8.47407 0 1.38596)
(8.62448 0 1.37757)
(8.2337 0 1.5486)
(8.4003 0 1.54166)
(7.97317 0 1.72456)
(8.15695 0 1.71934)
(7.69157 0 1.91439)
(7.89358 0 1.91138)
(7.38782 0 2.11828)
(7.60915 0 2.11829)
(7.0606 0 2.33589)
(7.30239 0 2.34021)
(6.70821 0 2.56603)
(6.97164 0 2.57667)
(6.32839 0 2.80639)
(6.61473 0 2.82633)
(5.91816 0 3.05295)
(6.22876 0 3.08659)
(5.47354 0 3.29944)
(5.80982 0 3.35307)
(4.98943 0 3.53659)
(5.35276 0 3.61889)
(4.45948 0 3.75137)
(4.85102 0 3.87392)
(3.87639 0 3.92647)
(4.2966 0 4.10391)
(3.2325 0 4.03992)
(3.68075 0 4.28971)
(2.52099 0 4.06511)
(2.99371 0 4.40687)
(1.7385 0 3.97631)
(2.23755 0 4.42475)
(0.889541 0 3.71898)
(1.36348 0 4.31653)
(0.59881 0 3.98517)
(9.98321 0 0.136211)
(9.99339 0 0.0950459)
(9.95031 0 0.225584)
(9.97131 0 0.1886)
(9.9015 0 0.315513)
(9.93193 0 0.282065)
(9.83692 0 0.407523)
(9.87642 0 0.37698)
(9.75682 0 0.503034)
(9.80577 0 0.474863)
(9.66132 0 0.603299)
(9.72028 0 0.577074)
(9.55043 0 0.709481)
(9.61992 0 0.684839)
(9.42399 0 0.822721)
(9.50461 0 0.799339)
(9.28179 0 0.944161)
(9.37417 0 0.921755)
(9.1235 0 1.07494)
(9.22838 0 1.05326)
(8.94873 0 1.21619)
(9.06689 0 1.19505)
(8.75699 0 1.36904)
(8.88931 0 1.34827)
(8.54769 0 1.53456)
(8.69513 0 1.51411)
(8.32018 0 1.71381)
(8.48375 0 1.69368)
(8.07364 0 1.90769)
(8.25443 0 1.88806)
(7.80708 0 2.11696)
(8.00629 0 2.09821)
(7.51928 0 2.34208)
(7.7382 0 2.32489)
(7.20865 0 2.58306)
(7.44869 0 2.56859)
(6.8731 0 2.83928)
(7.13583 0 2.82934)
(6.5098 0 3.10915)
(6.79702 0 3.10651)
(6.11495 0 3.38968)
(6.42872 0 3.39848)
(5.68342 0 3.67591)
(6.02613 0 3.70216)
(5.20852 0 3.96011)
(5.58281 0 4.01236)
(4.68183 0 4.23093)
(5.09039 0 4.32087)
(4.09339 0 4.4723)
(4.53838 0 4.61533)
(3.43264 0 4.6626)
(3.91484 0 4.87787)
(2.69026 0 4.77328)
(3.20584 0 5.08367)
(1.86195 0 4.77261)
(2.41143 0 5.19815)
(0.954241 0 4.58999)
(1.47639 0 5.18458)
(0.639246 0 4.91979)
(9.98386 0 0.148378)
(9.99368 0 0.10295)
(9.95235 0 0.245985)
(9.9726 0 0.204407)
(9.90577 0 0.344418)
(9.93509 0 0.305988)
(9.84436 0 0.445221)
(9.8824 0 0.409293)
(9.76831 0 0.549837)
(9.8155 0 0.515843)
(9.67777 0 0.659586)
(9.73468 0 0.62704)
(9.57277 0 0.775714)
(9.63995 0 0.744187)
(9.45323 0 0.899442)
(9.53125 0 0.868544)
(9.31896 0 1.03199)
(9.40848 0 1.00136)
(9.16972 0 1.17457)
(9.27145 0 1.14389)
(9.00516 0 1.3284)
(9.11992 0 1.2974)
(8.82485 0 1.49471)
(8.95353 0 1.46313)
(8.62827 0 1.67469)
(8.77186 0 1.64236)
(8.41477 0 1.86951)
(8.57434 0 1.83634)
(8.18353 0 2.08028)
(8.36029 0 2.0463)
(7.93353 0 2.30798)
(8.12881 0 2.27343)
(7.66342 0 2.55341)
(7.87873 0 2.51879)
(7.37139 0 2.81707)
(7.60848 0 2.78329)
(7.05504 0 3.09898)
(7.31594 0 3.06756)
(6.71103 0 3.39851)
(6.99819 0 3.37181)
(6.33485 0 3.71392)
(6.65121 0 3.69561)
(5.92034 0 4.04195)
(6.26947 0 4.03749)
(5.4593 0 4.37693)
(5.84541 0 4.39435)
(4.94113 0 4.70979)
(5.36895 0 4.76058)
(4.35282 0 5.02649)
(4.8269 0 5.12664)
(3.67971 0 5.30621)
(4.20332 0 5.47703)
(2.90764 0 5.5183)
(3.47807 0 5.78754)
(2.02778 0 5.62324)
(2.6452 0 6.0197)
(1.04517 0 5.52978)
(1.63785 0 6.12425)
(0.704539 0 5.94348)
(9.98464 0 0.159992)
(9.99402 0 0.11047)
(9.95472 0 0.265398)
(9.97408 0 0.219415)
(9.91064 0 0.371843)
(9.93867 0 0.328633)
(9.85265 0 0.480911)
(9.88903 0 0.439803)
(9.78098 0 0.594075)
(9.82616 0 0.554464)
(9.69578 0 0.712713)
(9.75035 0 0.674059)
(9.59712 0 0.83814)
(9.66163 0 0.799952)
(9.48497 0 0.971646)
(9.55998 0 0.933469)
(9.35921 0 1.11452)
(9.44537 0 1.07593)
(9.21966 0 1.26805)
(9.31769 0 1.22864)
(9.06605 0 1.43353)
(9.17676 0 1.39293)
(8.89802 0 1.61228)
(9.02232 0 1.57016)
(8.71512 0 1.80561)
(8.854 0 1.76168)
(8.51676 0 2.01486)
(8.67135 0 1.96888)
(8.30216 0 2.24131)
(8.47374 0 2.19316)
(8.07031 0 2.48623)
(8.26034 0 2.43594)
(7.81981 0 2.7508)
(8.03002 0 2.69861)
(7.54877 0 3.03606)
(7.78121 0 2.98255)
(7.2546 0 3.34282)
(7.51176 0 3.28907)
(6.93368 0 3.67153)
(7.21865 0 3.61931)
(6.58098 0 4.02199)
(6.89763 0 3.9742)
(6.18956 0 4.39296)
(6.54279 0 4.35413)
(5.74992 0 4.78145)
(6.14583 0 4.75861)
(5.24932 0 5.1816)
(5.69526 0 5.18538)
(4.6712 0 5.58275)
(5.17532 0 5.6291)
(3.99519 0 5.96659)
(4.56539 0 6.07877)
(3.1987 0 6.30187)
(3.83667 0 6.51367)
(2.26201 0 6.54098)
(2.97116 0 6.8943)
(1.18075 0 6.56552)
(1.87939 0 7.15826)
(0.812933 0 7.09995)
(9.98553 0 0.170975)
(9.9944 0 0.117555)
(9.95738 0 0.283717)
(9.97572 0 0.233535)
(9.91599 0 0.39766)
(9.94258 0 0.349892)
(9.86168 0 0.514442)
(9.89622 0 0.468381)
(9.79466 0 0.635569)
(9.83763 0 0.590575)
(9.71514 0 0.762465)
(9.7671 0 0.717948)
(9.6232 0 0.896504)
(9.68471 0 0.851916)
(9.51889 0 1.03904)
(9.5905 0 0.993858)
(9.40214 0 1.19141)
(9.4845 0 1.14514)
(9.27286 0 1.35497)
(9.36666 0 1.30715)
(9.13085 0 1.5311)
(9.2369 0 1.48125)
(8.97586 0 1.72119)
(9.09505 0 1.66888)
(8.80753 0 1.92669)
(8.94085 0 1.8715)
(8.62535 0 2.14904)
(8.77397 0 2.0906)
(8.42866 0 2.38978)
(8.59388 0 2.32777)
(8.2165 0 2.65043)
(8.3999 0 2.58464)
(7.98759 0 2.9326)
(8.19102 0 2.86294)
(7.74009 0 3.2379)
(7.96583 0 3.16452)
(7.47143 0 3.56799)
(7.72234 0 3.49137)
(7.17797 0 3.92449)
(7.45769 0 3.84563)
(6.85458 0 4.3089)
(7.16782 0 4.22963)
(6.49399 0 4.7224)
(6.84691 0 4.64584)
(6.08593 0 5.16529)
(6.48663 0 5.0967)
(5.61595 0 5.6361)
(6.07495 0 5.58419)
(5.06396 0 6.12967)
(5.59439 0 6.10883)
(4.40266 0 6.63374)
(5.02007 0 6.66742)
(3.59659 0 7.12134)
(4.3131 0 7.24853)
(2.60473 0 7.54097)
(3.43624 0 7.82042)
(1.39456 0 7.741)
(2.25693 0 8.31556)
(1.00287 0 8.46583)
(9.9865 0 0.181265)
(9.9948 0 0.124165)
(9.96026 0 0.300853)
(9.97747 0 0.246698)
(9.92175 0 0.421761)
(9.94675 0 0.369673)
(9.87131 0 0.545684)
(9.90386 0 0.494918)
(9.80921 0 0.674161)
(9.84975 0 0.624043)
(9.73564 0 0.808655)
(9.78475 0 0.758549)
(9.65076 0 0.950586)
(9.70898 0 0.899892)
(9.55466 0 1.10135)
(9.62253 0 1.04949)
(9.44735 0 1.26235)
(9.52549 0 1.20876)
(9.32883 0 1.43498)
(9.41791 0 1.37912)
(9.19899 0 1.62069)
(9.29979 0 1.562)
(9.05769 0 1.82094)
(9.17108 0 1.75889)
(8.90469 0 2.03728)
(9.03165 0 1.97132)
(8.73962 0 2.27131)
(8.88129 0 2.2009)
(8.56197 0 2.52473)
(8.71966 0 2.44934)
(8.37097 0 2.79935)
(8.54627 0 2.71851)
(8.16552 0 3.09717)
(8.36036 0 3.01042)
(7.94403 0 3.42037)
(8.1608 0 3.32736)
(7.70422 0 3.77143)
(7.94597 0 3.67195)
(7.4428 0 4.15316)
(7.71351 0 4.04724)
(7.15503 0 4.56883)
(7.45997 0 4.45693)
(6.83404 0 5.02217)
(7.18033 0 4.90552)
(6.46977 0 5.51731)
(6.86722 0 5.39852)
(6.04734 0 6.05841)
(6.50958 0 5.94265)
(5.54453 0 6.6485)
(6.09046 0 6.54583)
(4.92768 0 7.28688)
(5.58371 0 7.2165)
(4.1457 0 7.96152)
(4.94328 0 7.96144)
(3.12246 0 8.63399)
(4.1102 0 8.77584)
(1.75674 0 9.12866)
(2.87931 0 9.6216)
(1.36526 0 10.1865)
(9.98753 0 0.190813)
(9.99523 0 0.13027)
(9.96332 0 0.31673)
(9.97932 0 0.258844)
(9.92784 0 0.444053)
(9.95114 0 0.387897)
(9.88146 0 0.574527)
(9.91186 0 0.519322)
(9.82446 0 0.709723)
(9.86241 0 0.654758)
(9.75708 0 0.851133)
(9.80314 0 0.795732)
(9.67953 0 1.00021)
(9.7342 0 0.943727)
(9.59194 0 1.1584)
(9.65576 0 1.1002)
(9.49443 0 1.32712)
(9.56798 0 1.26658)
(9.38706 0 1.50782)
(9.47099 0 1.44433)
(9.26985 0 1.70199)
(9.36489 0 1.6349)
(9.14277 0 1.91116)
(9.24974 0 1.83984)
(9.00574 0 2.13694)
(9.12558 0 2.06072)
(8.85856 0 2.38106)
(8.99235 0 2.29924)
(8.70092 0 2.64537)
(8.84995 0 2.55722)
(8.53231 0 2.93193)
(8.6981 0 2.83668)
(8.35196 0 3.24306)
(8.53639 0 3.13988)
(8.1587 0 3.58143)
(8.36414 0 3.46945)
(7.95079 0 3.95023)
(8.18027 0 3.8285)
(7.72569 0 4.35335)
(7.9832 0 4.22084)
(7.47966 0 4.79566)
(7.77058 0 4.65127)
(7.20713 0 5.28333)
(7.53892 0 5.12598)
(6.89974 0 5.82436)
(7.28299 0 5.6532)
(6.54453 0 6.42912)
(6.99481 0 6.24408)
(6.12075 0 7.11104)
(6.66168 0 6.91414)
(5.59368 0 7.88731)
(6.26304 0 7.68567)
(4.90178 0 8.77784)
(5.75845 0 8.59222)
(3.92795 0 9.80198)
(5.08862 0 9.68512)
(2.43418 0 10.858)
(3.9811 0 11.0501)
(2.14742 0 12.5706)
(9.98861 0 0.199579)
(9.99567 0 0.135847)
(9.96651 0 0.331287)
(9.98123 0 0.269928)
(9.93419 0 0.464453)
(9.95569 0 0.404504)
(9.892 0 0.600864)
(9.92015 0 0.541517)
(9.84027 0 0.742116)
(9.8755 0 0.682632)
(9.77928 0 0.889724)
(9.82212 0 0.829394)
(9.70926 0 1.04517)
(9.76023 0 0.983302)
(9.63044 0 1.20991)
(9.69003 0 1.14583)
(9.54298 0 1.38539)
(9.61177 0 1.31843)
(9.44707 0 1.5731)
(9.52567 0 1.50257)
(9.34283 0 1.77455)
(9.43194 0 1.69973)
(9.23038 0 1.9913)
(9.33078 0 1.91147)
(9.10979 0 2.22502)
(9.22237 0 2.13939)
(8.98108 0 2.47752)
(9.10686 0 2.38524)
(8.84418 0 2.75076)
(8.98436 0 2.6509)
(8.69893 0 3.04696)
(8.85494 0 2.93849)
(8.54495 0 3.36867)
(8.71856 0 3.25042)
(8.38166 0 3.71894)
(8.57506 0 3.58951)
(8.20809 0 4.10147)
(8.42411 0 3.95919)
(8.0228 0 4.52092)
(8.26513 0 4.36373)
(7.82361 0 4.98333)
(8.09723 0 4.8086)
(7.60723 0 5.49675)
(7.91905 0 5.30103)
(7.36865 0 6.07223)
(7.72862 0 5.85088)
(7.09996 0 6.72545)
(7.52309 0 6.47209)
(6.78802 0 7.47961)
(7.29824 0 7.18525)
(6.40931 0 8.3715)
(7.04864 0 8.02277)
(5.91684 0 9.46566)
(6.76415 0 9.04119)
(5.19797 0 10.9087)
(6.46394 0 10.3563)
(3.88674 0 13.1811)
(6.19347 0 12.304)
(5.2652 0 16.3774)
(0.224028 0 -0.139844)
(0.128826 0 -0.219422)
(0.4344 0 -0.118674)
(0.310425 0 -0.20118)
(0.611155 0 -0.0941611)
(0.493893 0 -0.165039)
(0.756332 0 -0.0735188)
(0.653145 0 -0.132353)
(0.87556 0 -0.0572687)
(0.784275 0 -0.10613)
(0.974099 0 -0.0447056)
(0.892471 0 -0.0856408)
(1.05642 0 -0.0351084)
(0.983455 0 -0.0698567)
(1.12628 0 -0.0278595)
(1.06155 0 -0.0578838)
(1.18672 0 -0.0224066)
(1.12991 0 -0.0488901)
(1.24002 0 -0.0182565)
(1.19092 0 -0.0421004)
(1.28776 0 -0.0149827)
(1.24634 0 -0.0368199)
(1.33086 0 -0.0122419)
(1.29734 0 -0.0324537)
(1.36969 0 -0.00979989)
(1.34451 0 -0.0285486)
(1.40432 0 -0.00754176)
(1.38801 0 -0.0248556)
(1.43475 0 -0.0054161)
(1.42782 0 -0.0213281)
(1.46098 0 -0.00329608)
(1.46397 0 -0.0179534)
(1.48261 0 -0.000873691)
(1.49653 0 -0.0144544)
(1.49828 0 0.00219227)
(1.52526 0 -0.0102188)
(1.50594 0 0.00579812)
(1.54898 0 -0.00488199)
(1.50457 0 0.00898445)
(1.5658 0 0.000853784)
(1.49506 0 0.0107332)
(1.5746 0 0.00577335)
(1.48168 0 0.0107533)
(1.57702 0 0.00793415)
(1.46771 0 0.00932235)
(1.57689 0 0.0080837)
(1.45484 0 0.00702144)
(1.5771 0 0.00727579)
(1.44468 0 0.00424152)
(1.5787 0 0.00560885)
(1.43917 0 0.00104923)
(1.58236 0 0.00296651)
(1.44072 0 -0.00227529)
(1.58915 0 -0.000814582)
(1.45145 0 -0.00513729)
(1.60016 0 -0.00551021)
(1.4703 0 -0.00672738)
(1.61581 0 -0.00945606)
(1.64026 0 -0.0108373)
(0.195996 0 -0.314258)
(0.0997917 0 -0.411388)
(0.385889 0 -0.276032)
(0.262687 0 -0.382775)
(0.548725 0 -0.225389)
(0.417051 0 -0.317083)
(0.685616 0 -0.181711)
(0.552287 0 -0.257152)
(0.801485 0 -0.147139)
(0.665136 0 -0.209269)
(0.900795 0 -0.120383)
(0.760196 0 -0.171952)
(0.987215 0 -0.0999533)
(0.841864 0 -0.143191)
(1.06374 0 -0.0845348)
(0.913407 0 -0.121285)
(1.13275 0 -0.0729379)
(0.977252 0 -0.104718)
(1.19607 0 -0.0640912)
(1.03526 0 -0.0921182)
(1.255 0 -0.0570555)
(1.08882 0 -0.0822656)
(1.3103 0 -0.0510604)
(1.13889 0 -0.0740973)
(1.3623 0 -0.045578)
(1.18597 0 -0.0667776)
(1.41103 0 -0.0403809)
(1.23016 0 -0.0598353)
(1.45655 0 -0.0354486)
(1.27134 0 -0.0532307)
(1.49916 0 -0.0306388)
(1.30944 0 -0.0471152)
(1.53922 0 -0.0253651)
(1.34483 0 -0.0412206)
(1.5764 0 -0.0188353)
(1.3781 0 -0.0344756)
(1.6091 0 -0.0110477)
(1.40919 0 -0.0257098)
(1.63509 0 -0.00350458)
(1.43647 0 -0.0153122)
(1.65469 0 0.00208765)
(1.45743 0 -0.00612942)
(1.67055 0 0.00549374)
(1.47233 0 -0.00147136)
(1.68549 0 0.00717902)
(1.48471 0 -0.000564386)
(1.70053 0 0.00723267)
(1.49681 0 -0.0012254)
(1.71607 0 0.00554489)
(1.50862 0 -0.00296712)
(1.73215 0 0.0020479)
(1.51933 0 -0.00569994)
(1.74831 0 -0.00294923)
(1.52833 0 -0.00931629)
(1.76447 0 -0.00869445)
(1.53479 0 -0.0138106)
(1.78202 0 -0.0131621)
(1.53932 0 -0.0182567)
(1.54498 0 -0.0188485)
(0.156969 0 -0.488451)
(0.0718564 0 -0.565129)
(0.305343 0 -0.432584)
(0.201076 0 -0.524666)
(0.430549 0 -0.356865)
(0.310269 0 -0.43399)
(0.535459 0 -0.291461)
(0.406771 0 -0.352796)
(0.624305 0 -0.23955)
(0.485832 0 -0.288353)
(0.700504 0 -0.199141)
(0.552231 0 -0.238177)
(0.766855 0 -0.168031)
(0.608854 0 -0.199495)
(0.825589 0 -0.144285)
(0.657876 0 -0.169949)
(0.878476 0 -0.126184)
(0.700991 0 -0.147502)
(0.926897 0 -0.112195)
(0.739533 0 -0.130365)
(0.97186 0 -0.100953)
(0.774541 0 -0.116941)
(1.01397 0 -0.0913016)
(0.806777 0 -0.105803)
(1.05339 0 -0.0824201)
(0.836719 0 -0.095764)
(1.08999 0 -0.0739796)
(0.864451 0 -0.0861101)
(1.12363 0 -0.0660985)
(0.88964 0 -0.0768096)
(1.15465 0 -0.0588332)
(0.911743 0 -0.068343)
(1.18386 0 -0.0513916)
(0.930702 0 -0.0607385)
(1.21168 0 -0.0420166)
(0.947907 0 -0.0526211)
(1.23694 0 -0.0297878)
(0.964958 0 -0.0418032)
(1.25738 0 -0.0174528)
(0.982224 0 -0.0280247)
(1.27256 0 -0.00980955)
(0.993141 0 -0.0153442)
(1.28471 0 -0.00810548)
(0.985747 0 -0.00867944)
(1.29498 0 -0.00980477)
(0.970268 0 -0.00650645)
(1.30422 0 -0.0126347)
(0.954154 0 -0.00644781)
(1.31151 0 -0.01561)
(0.938951 0 -0.0069905)
(1.3153 0 -0.0182518)
(0.925166 0 -0.00774033)
(1.31452 0 -0.0205776)
(0.915512 0 -0.00890994)
(1.30909 0 -0.0226735)
(0.906295 0 -0.0110221)
(1.30072 0 -0.0233511)
(0.898053 0 -0.0140575)
(0.892094 0 -0.0186159)
(0.115262 0 -0.613863)
(0.0448883 0 -0.678021)
(0.215069 0 -0.539018)
(0.132684 0 -0.620113)
(0.294686 0 -0.442763)
(0.189003 0 -0.50833)
(0.360137 0 -0.361529)
(0.241659 0 -0.412465)
(0.414594 0 -0.297486)
(0.280486 0 -0.336827)
(0.460265 0 -0.247673)
(0.311763 0 -0.277871)
(0.49898 0 -0.209283)
(0.336494 0 -0.232349)
(0.532165 0 -0.179906)
(0.355907 0 -0.197444)
(0.560958 0 -0.157457)
(0.371036 0 -0.170794)
(0.586288 0 -0.140098)
(0.382716 0 -0.150372)
(0.608896 0 -0.126173)
(0.391638 0 -0.134377)
(0.629306 0 -0.114219)
(0.398441 0 -0.121171)
(0.647708 0 -0.103117)
(0.403788 0 -0.109293)
(0.66385 0 -0.0923509)
(0.407955 0 -0.0976975)
(0.677162 0 -0.0821535)
(0.410655 0 -0.0861403)
(0.687403 0 -0.0730716)
(0.410742 0 -0.075351)
(0.695509 0 -0.0650612)
(0.405832 0 -0.066155)
(0.703408 0 -0.056782)
(0.397153 0 -0.0577741)
(0.711621 0 -0.0459603)
(0.384839 0 -0.0470346)
(0.714966 0 -0.0314925)
(0.373349 0 -0.0301054)
(0.701753 0 -0.016147)
(0.358031 0 -0.00732042)
(0.669089 0 -0.00540266)
(0.337785 0 0.0106871)
(0.62816 0 -0.000422397)
(0.309097 0 0.0171877)
(0.587617 0 0.00189119)
(0.280421 0 0.0164686)
(0.552621 0 0.00319662)
(0.253018 0 0.0123231)
(0.526045 0 0.00322528)
(0.22909 0 0.00658059)
(0.506496 0 0.00116466)
(0.216017 0 0.00137498)
(0.493901 0 -0.00293209)
(0.208107 0 -0.00455201)
(0.48936 0 -0.00968242)
(0.203838 0 -0.0117799)
(0.202161 0 -0.0215916)
(0.067805 0 -0.693584)
(0.0168272 0 -0.744432)
(0.113684 0 -0.598971)
(0.0564612 0 -0.663987)
(0.143495 0 -0.487091)
(0.0552643 0 -0.536165)
(0.164646 0 -0.395736)
(0.0605902 0 -0.431748)
(0.179174 0 -0.323951)
(0.0545659 0 -0.349758)
(0.18826 0 -0.26807)
(0.0456143 0 -0.285767)
(0.192892 0 -0.224913)
(0.0329473 0 -0.23628)
(0.193872 0 -0.191785)
(0.0173706 0 -0.198257)
(0.191864 0 -0.166416)
(-0.000502446 0 -0.169169)
(0.187422 0 -0.146843)
(-0.0201778 0 -0.146864)
(0.181064 0 -0.131295)
(-0.0412137 0 -0.129474)
(0.173284 0 -0.118125)
(-0.0630572 0 -0.115314)
(0.164513 0 -0.105895)
(-0.0849463 0 -0.102844)
(0.154884 0 -0.0936895)
(-0.106257 0 -0.0907853)
(0.143833 0 -0.081389)
(-0.126722 0 -0.0783948)
(0.129504 0 -0.0693809)
(-0.146903 0 -0.0655451)
(0.109258 0 -0.0574959)
(-0.168991 0 -0.0526269)
(0.0817208 0 -0.0437962)
(-0.192668 0 -0.0398092)
(0.0485694 0 -0.0251372)
(-0.219002 0 -0.0259176)
(0.0145507 0 -0.00184067)
(-0.243992 0 -0.0089477)
(-0.010692 0 0.018382)
(-0.264552 0 0.00800829)
(-0.0262436 0 0.0285585)
(-0.273272 0 0.0199079)
(-0.0411925 0 0.0291769)
(-0.28303 0 0.0258417)
(-0.0564957 0 0.0235362)
(-0.292521 0 0.0251185)
(-0.0700357 0 0.0144908)
(-0.30305 0 0.0197956)
(-0.0796936 0 0.00488953)
(-0.313639 0 0.0117847)
(-0.0834472 0 -0.00350907)
(-0.319055 0 0.00334988)
(-0.0835079 0 -0.0116111)
(-0.320954 0 -0.00452085)
(-0.0811279 0 -0.02132)
(-0.323276 0 -0.0129736)
(-0.327012 0 -0.0225167)
(0.0126407 0 -0.720743)
(-0.014521 0 -0.756813)
(0.00139127 0 -0.60612)
(-0.0288972 0 -0.653229)
(-0.0211004 0 -0.483055)
(-0.0872503 0 -0.515164)
(-0.0468838 0 -0.386353)
(-0.133032 0 -0.408242)
(-0.0766081 0 -0.310521)
(-0.185474 0 -0.3233)
(-0.108777 0 -0.251866)
(-0.23688 0 -0.257809)
(-0.142658 0 -0.206797)
(-0.287832 0 -0.207529)
(-0.177615 0 -0.172331)
(-0.337494 0 -0.169294)
(-0.213223 0 -0.145936)
(-0.385273 0 -0.140364)
(-0.249169 0 -0.125518)
(-0.430791 0 -0.118471)
(-0.285106 0 -0.109309)
(-0.473871 0 -0.101758)
(-0.320556 0 -0.0957562)
(-0.514366 0 -0.0886199)
(-0.354884 0 -0.0835197)
(-0.552042 0 -0.0776062)
(-0.387358 0 -0.0716208)
(-0.586578 0 -0.0674734)
(-0.417346 0 -0.0596149)
(-0.617713 0 -0.0573767)
(-0.444447 0 -0.0475815)
(-0.645445 0 -0.0469987)
(-0.468802 0 -0.0356871)
(-0.670025 0 -0.0363531)
(-0.490997 0 -0.023744)
(-0.691612 0 -0.0253296)
(-0.510522 0 -0.0112636)
(-0.709947 0 -0.01348)
(-0.523895 0 0.00169891)
(-0.724289 0 -0.000630512)
(-0.530737 0 0.0138251)
(-0.730537 0 0.0121629)
(-0.534685 0 0.022859)
(-0.733861 0 0.0222489)
(-0.537705 0 0.0263661)
(-0.735792 0 0.0275897)
(-0.541537 0 0.0240488)
(-0.737885 0 0.0272845)
(-0.546336 0 0.0178969)
(-0.741542 0 0.0224444)
(-0.551878 0 0.0100496)
(-0.746829 0 0.014771)
(-0.557336 0 0.00165895)
(-0.752318 0 0.0062214)
(-0.561248 0 -0.00732283)
(-0.756688 0 -0.00251121)
(-0.56335 0 -0.0167054)
(-0.762992 0 -0.0119194)
(-0.768746 0 -0.0217625)
(-0.0458296 0 -0.687549)
(-0.0513451 0 -0.711925)
(-0.116678 0 -0.557839)
(-0.121628 0 -0.585476)
(-0.191624 0 -0.432849)
(-0.234679 0 -0.445186)
(-0.268182 0 -0.336165)
(-0.332061 0 -0.338447)
(-0.342951 0 -0.261578)
(-0.427805 0 -0.256745)
(-0.414665 0 -0.204895)
(-0.516459 0 -0.195482)
(-0.482353 0 -0.162243)
(-0.597592 0 -0.15009)
(-0.545306 0 -0.130568)
(-0.670885 0 -0.117134)
(-0.603072 0 -0.107257)
(-0.736463 0 -0.0936326)
(-0.655526 0 -0.0901174)
(-0.79471 0 -0.0770393)
(-0.702819 0 -0.0773203)
(-0.846255 0 -0.0652853)
(-0.745229 0 -0.0672969)
(-0.891786 0 -0.0566855)
(-0.78302 0 -0.0587003)
(-0.931901 0 -0.0498218)
(-0.81637 0 -0.0504811)
(-0.967058 0 -0.0435331)
(-0.845408 0 -0.0419925)
(-0.997632 0 -0.037024)
(-0.870338 0 -0.0329702)
(-1.02401 0 -0.0299385)
(-0.891483 0 -0.023342)
(-1.04657 0 -0.0222242)
(-0.909078 0 -0.0130158)
(-1.06556 0 -0.0138511)
(-0.923261 0 -0.00201838)
(-1.08084 0 -0.00444507)
(-0.932544 0 0.00899224)
(-1.09151 0 0.00514252)
(-0.936832 0 0.0186419)
(-1.09693 0 0.014767)
(-0.938122 0 0.0252331)
(-1.09937 0 0.0230139)
(-0.938349 0 0.0273821)
(-1.10004 0 0.0277209)
(-0.939396 0 0.0249277)
(-1.10077 0 0.027876)
(-0.942077 0 0.0189747)
(-1.10294 0 0.023924)
(-0.946509 0 0.0111669)
(-1.10698 0 0.0171593)
(-0.952034 0 0.00271903)
(-1.11245 0 0.0091282)
(-0.95742 0 -0.00654051)
(-1.11875 0 0.000255514)
(-0.96237 0 -0.0161714)
(-1.12614 0 -0.00943656)
(-1.1316 0 -0.0188192)
(-0.108943 0 -0.597491)
(-0.094394 0 -0.605222)
(-0.237353 0 -0.459229)
(-0.220237 0 -0.462677)
(-0.365429 0 -0.337377)
(-0.386414 0 -0.325599)
(-0.487175 0 -0.247016)
(-0.530021 0 -0.227455)
(-0.598567 0 -0.180793)
(-0.661903 0 -0.15759)
(-0.698069 0 -0.133096)
(-0.777928 0 -0.109004)
(-0.78563 0 -0.0992484)
(-0.878314 0 -0.0757867)
(-0.861922 0 -0.0757851)
(-0.963251 0 -0.0539232)
(-0.928057 0 -0.0599651)
(-1.03502 0 -0.0401306)
(-0.985309 0 -0.0494915)
(-1.09591 0 -0.0318184)
(-1.03493 0 -0.0425057)
(-1.14798 0 -0.0270138)
(-1.07803 0 -0.0375201)
(-1.19286 0 -0.0242338)
(-1.11547 0 -0.033331)
(-1.23177 0 -0.0222964)
(-1.14791 0 -0.0290314)
(-1.26556 0 -0.0202439)
(-1.17588 0 -0.0240899)
(-1.29485 0 -0.0174231)
(-1.19979 0 -0.0183466)
(-1.32014 0 -0.0135761)
(-1.21994 0 -0.0118369)
(-1.34172 0 -0.00875628)
(-1.23644 0 -0.00456626)
(-1.35965 0 -0.00308707)
(-1.24858 0 0.00346313)
(-1.37374 0 0.00328772)
(-1.25675 0 0.011951)
(-1.38353 0 0.0102194)
(-1.2614 0 0.0199137)
(-1.38984 0 0.0175948)
(-1.26327 0 0.0257294)
(-1.39325 0 0.0241233)
(-1.26399 0 0.0280065)
(-1.39502 0 0.0281361)
(-1.26525 0 0.0263715)
(-1.39671 0 0.0285873)
(-1.26806 0 0.0214635)
(-1.39956 0 0.0254735)
(-1.2727 0 0.0144721)
(-1.40412 0 0.0196619)
(-1.27873 0 0.00631532)
(-1.41043 0 0.0123008)
(-1.28546 0 -0.00304237)
(-1.4184 0 0.00370992)
(-1.29245 0 -0.012474)
(-1.42656 0 -0.0059295)
(-1.4319 0 -0.0140928)
(-0.17708 0 -0.45046)
(-0.146117 0 -0.431784)
(-0.363652 0 -0.313334)
(-0.333851 0 -0.284257)
(-0.540775 0 -0.205348)
(-0.556392 0 -0.160216)