/*--------------------------------*- C++ -*----------------------------------*\
  =========                 |
  \\      /  F ield         | OpenFOAM: The Open Source CFD Toolbox
   \\    /   O peration     | Website:  https://openfoam.org
    \\  /    A nd           | Version:  dev
     \\/     M anipulation  |
\*---------------------------------------------------------------------------*/
FoamFile
{
    version     2.0;
    format      ascii;
    class       volScalarField;
    location    "4.4";
    object      p;
}
// * * * * * * * * * * * * * * * * * * * * * * * * * * * * * * * * * * * * * //

dimensions      [0 2 -2 0 0 0 0];

internalField   nonuniform List<scalar> 
2790
(
147.107
147.014
147.281
147.852
148.632
149.59
150.722
152.029
153.505
155.146
156.946
158.897
160.99
163.215
165.556
167.991
170.496
173.035
175.566
178.041
180.399
182.577
184.507
186.128
187.387
188.262
188.698
188.753
188.804
189.017
146.904
146.922
147.214
147.782
148.558
149.512
150.64
151.941
153.41
155.043
156.833
158.773
160.856
163.07
165.4
167.825
170.321
172.854
175.384
177.862
180.231
182.426
184.381
186.029
187.314
188.188
188.585
188.64
188.772
189.057
146.705
146.793
147.104
147.662
148.425
149.367
150.48
151.762
153.21
154.818
156.58
158.489
160.537
162.712
165.001
167.383
169.835
172.326
174.818
177.265
179.615
181.808
183.78
185.47
186.821
187.797
188.39
188.745
189.06
189.359
146.48
146.599
146.923
147.472
148.22
149.145
150.239
151.497
152.916
154.49
156.214
158.079
160.078
162.199
164.427
166.745
169.129
171.552
173.979
176.37
178.677
180.849
182.831
184.57
186.025
187.177
188.045
188.716
189.269
189.788
146.219
146.352
146.684
147.226
147.958
148.862
149.929
151.156
152.538
154.07
155.744
157.553
159.489
161.539
163.691
165.927
168.225
170.56
172.901
175.215
177.46
179.595
181.577
183.368
184.938
186.281
187.411
188.374
189.185
189.932
145.919
146.057
146.391
146.923
147.635
148.513
149.549
150.738
152.076
153.555
155.17
156.913
158.774
160.742
162.803
164.941
167.136
169.365
171.602
173.817
175.98
178.057
180.019
181.84
183.503
185.005
186.351
187.557
188.577
189.495
145.576
145.715
146.047
146.565
147.255
148.103
149.102
150.247
151.533
152.953
154.5
156.165
157.94
159.813
161.77
163.796
165.872
167.978
170.091
172.187
174.242
176.233
178.14
179.951
181.657
183.257
184.751
186.13
187.295
188.342
145.191
145.329
145.653
146.155
146.819
147.632
148.59
149.685
150.913
152.266
153.736
155.316
156.994
158.76
160.601
162.5
164.441
166.405
168.373
170.324
172.242
174.109
175.916
177.658
179.337
180.956
182.511
183.983
185.233
186.384
144.765
144.898
145.212
145.695
146.33
147.105
148.017
149.057
150.221
151.5
152.886
154.37
155.942
157.591
159.302
161.06
162.849
164.653
166.452
168.231
169.974
171.672
173.32
174.92
176.482
178.017
179.526
180.996
182.267
183.506
144.299
144.427
144.727
145.188
145.79
146.525
147.386
148.367
149.46
150.659
151.954
153.335
154.792
156.312
157.882
159.486
161.107
162.73
164.335
165.909
167.437
168.911
170.329
171.697
173.03
174.349
175.669
177.007
178.207
179.512
143.793
143.915
144.2
144.636
145.204
145.894
146.701
147.618
148.637
149.75
150.947
152.218
153.552
154.934
156.352
157.788
159.225
160.646
162.033
163.368
164.635
165.825
166.932
167.96
168.924
169.853
170.783
171.782
172.744
174.062
143.251
143.366
143.634
144.042
144.573
145.217
145.967
146.816
147.756
148.778
149.872
151.027
152.23
153.467
154.722
155.979
157.217
158.418
159.56
160.622
161.584
162.426
163.134
163.7
164.126
164.435
164.678
164.986
165.368
166.541
142.674
142.781
143.031
143.41
143.902
144.496
145.186
145.965
146.822
147.75
148.736
149.77
150.836
151.921
153.006
154.072
155.099
156.063
156.938
157.697
158.31
158.745
158.966
158.941
158.638
158.04
157.165
156.173
155.225
155.73
142.065
142.164
142.394
142.743
143.194
143.737
144.365
145.07
145.842
146.672
147.547
148.455
149.381
150.308
151.216
152.085
152.891
153.605
154.196
154.628
154.858
154.834
154.496
153.763
152.54
150.711
148.148
144.846
140.897
138.862
141.426
141.516
141.726
142.043
142.452
142.942
143.506
144.136
144.821
145.551
146.313
147.093
147.874
148.64
149.368
150.034
150.612
151.068
151.364
151.455
151.281
150.771
149.826
148.311
146.032
142.699
137.856
130.839
120.377
108.154
1.37688
1.35792
1.29009
1.19531
1.09529
1.0003
0.913461
0.835005
0.764237
0.700075
0.641264
0.586558
0.534851
0.485253
0.437136
0.390166
0.344325
0.299899
0.257397
0.217398
0.18036
0.146492
0.115863
0.0888007
0.0657401
0.0469204
0.0321933
0.0209521
0.0119965
0.00343163
1.32771
1.30555
1.24164
1.15445
1.06251
0.974578
0.893481
0.819597
0.752419
0.691035
0.634347
0.581237
0.530696
0.481905
0.434289
0.387565
0.341777
0.297289
0.254708
0.214688
0.177713
0.144007
0.113679
0.0868526
0.0639098
0.0453407
0.0310285
0.0203601
0.0121188
0.00522269
1.27512
1.24817
1.18654
1.10639
1.02295
0.942869
0.868343
0.799803
0.7369
0.678879
0.624796
0.573674
0.524612
0.476873
0.429947
0.383609
0.337969
0.29349
0.250899
0.210971
0.174232
0.140822
0.11069
0.0839659
0.0611172
0.0426627
0.028987
0.0193876
0.0121835
0.00515343
1.22657
1.19493
1.13478
1.06052
0.984747
0.911867
0.843466
0.779962
0.721135
0.666364
0.614836
0.565695
0.518141
0.471519
0.425384
0.379562
0.334212
0.289858
0.247324
0.207503
0.171001
0.137898
0.107963
0.0812441
0.0583082
0.0399137
0.0265693
0.0177369
0.0116071
0.0046423
1.19623
1.16011
1.10153
1.03152
0.961115
0.892992
0.828532
0.76819
0.711874
0.659074
0.609071
0.561094
0.514421
0.468466
0.422843
0.37742
0.332375
0.288239
0.245846
0.20613
0.169787
0.137025
0.107701
0.0817019
0.0592754
0.0408194
0.0270136
0.0175183
0.0108033
0.00389962
1.1959
1.15427
1.09659
1.02772
0.958995
0.891669
0.827692
0.767609
0.711423
0.65867
0.608663
0.560657
0.513965
0.468041
0.422532
0.377327
0.332593
0.288811
0.246725
0.207178
0.17086
0.138066
0.108774
0.0829455
0.0607142
0.0424675
0.0284674
0.0183898
0.0109166
0.00343161
1.23441
1.18532
1.12397
1.05101
0.977982
0.906872
0.839583
0.776743
0.718274
0.663645
0.61212
0.562931
0.515384
0.468928
0.423204
0.378085
0.333705
0.290473
0.248994
0.20993
0.173838
0.141023
0.111576
0.0855375
0.0629997
0.0441077
0.0291017
0.0179517
0.00931218
0.0026221
1.31508
1.25406
1.1803
1.09533
1.01155
0.931977
0.858046
0.789982
0.727475
0.669788
0.615978
0.565135
0.516469
0.469352
0.423378
0.378355
0.334398
0.291891
0.251294
0.213034
0.17745
0.14478
0.115154
0.0886843
0.0655488
0.0460349
0.0301691
0.0173095
0.0072727
0.00174345
1.4322
1.34801
1.25179
1.14656
1.047
0.956382
0.874808
0.801039
0.734074
0.673181
0.617145
0.564843
0.515334
0.467839
0.421844
0.377069
0.333687
0.292197
0.252942
0.216007
0.181324
0.148863
0.118665
0.0912498
0.0674122
0.047363
0.0305942
0.016201
0.00513298
0.000918745
1.56114
1.44163
1.31899
1.19426
1.07663
0.971922
0.880786
0.801915
0.732702
0.670542
0.613667
0.560838
0.511136
0.463682
0.41772
0.373213
0.33064
0.290604
0.253369
0.218489
0.185157
0.152884
0.122086
0.0937501
0.068959
0.0481314
0.0303985
0.0146369
0.00289008
0.000128791
1.65898
1.51156
1.35872
1.21194
1.08229
0.970481
0.875
0.793578
0.723461
0.661425
0.604917
0.552532
0.503501
0.456877
0.411613
0.367515
0.325537
0.286957
0.252132
0.21995
0.188638
0.157057
0.125556
0.0957959
0.0696894
0.0480026
0.0295108
0.0127892
0.000743893
-0.000606471
1.7189
1.53031
1.35163
1.18726
1.04973
0.937181
0.844195
0.766388
0.700376
0.642184
0.588423
0.537905
0.490685
0.445994
0.402185
0.358704
0.317283
0.280508
0.249133
0.22097
0.192578
0.161803
0.129103
0.09715
0.0691648
0.0465747
0.0277587
0.0106939
-0.0012404
-0.00126664
1.67273
1.42246
1.23427
1.08115
0.959427
0.863476
0.784726
0.71827
0.662509
0.613016
0.564756
0.517184
0.47267
0.431181
0.389696
0.346651
0.305057
0.270057
0.243487
0.221396
0.197388
0.167643
0.132928
0.0975847
0.0668845
0.0434042
0.0249948
0.00841993
-0.00299913
-0.0018332
1.36161
1.06632
0.947851
0.869358
0.79742
0.743273
0.695597
0.64896
0.609698
0.574817
0.534916
0.490243
0.448792
0.412485
0.375059
0.332108
0.288616
0.254698
0.23469
0.221745
0.204212
0.175583
0.137449
0.096837
0.0621554
0.03787
0.0210465
0.00610185
-0.00445092
-0.00228763
0.613268
0.277801
0.403734
0.545974
0.562916
0.585698
0.589941
0.563267
0.541033
0.529542
0.50308
0.459399
0.419702
0.391107
0.360499
0.316331
0.266817
0.23167
0.220691
0.222126
0.214398
0.186855
0.143108
0.0944526
0.0539339
0.0290367
0.0156979
0.00402326
-0.00547853
-0.00261395
140.747
140.827
141.016
141.3
141.665
142.101
142.598
143.15
143.745
144.372
145.017
145.665
146.299
146.899
147.441
147.9
148.244
148.436
148.429
148.169
147.583
146.574
145.01
142.696
139.333
134.427
127.055
115.303
93.1393
33.3347
140.019
140.091
140.257
140.507
140.825
141.204
141.633
142.104
142.605
143.126
143.65
144.162
144.644
145.074
145.427
145.674
145.78
145.704
145.393
144.783
143.79
142.3
140.155
137.122
132.844
126.737
117.767
104.202
84.6769
56.2234
139.25
139.311
139.454
139.668
139.939
140.258
140.617
141.005
141.411
141.823
142.224
142.599
142.927
143.186
143.349
143.384
143.255
142.915
142.309
141.367
139.996
138.077
135.444
131.869
127.024
120.455
111.573
99.7391
85.5054
68.8891
138.439
138.491
138.609
138.786
139.009
139.268
139.555
139.859
140.169
140.47
140.748
140.985
141.16
141.249
141.224
141.053
140.695
140.105
139.223
137.977
136.276
134.003
131.005
127.087
122.001
115.454
107.151
96.7586
84.2154
69.0832
137.59
137.63
137.725
137.864
138.038
138.236
138.45
138.67
138.883
139.075
139.23
139.33
139.354
139.277
139.071
138.701
138.129
137.306
136.174
134.664
132.69
130.145
126.901
122.8
117.664
111.292
103.484
93.9975
82.6656
69.6954
136.703
136.733
136.803
136.905
137.029
137.166
137.308
137.443
137.559
137.643
137.678
137.645
137.522
137.286
136.907
136.352
135.581
134.548
133.199
131.469
129.28
126.542
123.15
118.984
113.915
107.807
100.539
92.0104
82.2133
71.5601
135.782
135.802
135.847
135.911
135.986
136.062
136.132
136.184
136.206
136.184
136.101
135.939
135.677
135.29
134.749
134.023
133.074
131.859
130.327
128.421
126.074
123.213
119.755
115.614
110.702
104.941
98.2753
90.6951
82.2436
73.2565
134.83
134.839
134.86
134.886
134.912
134.929
134.928
134.899
134.829
134.704
134.509
134.225
133.831
133.303
132.615
131.735
130.63
129.26
127.579
125.54
123.088
120.163
116.706
112.657
107.963
102.584
96.5057
89.7491
82.364
74.6223
133.85
133.849
133.846
133.836
133.814
133.773
133.703
133.595
133.436
133.214
132.912
132.512
131.996
131.34
130.518
129.504
128.266
126.768
124.973
122.84
120.326
117.387
113.981
110.069
105.622
100.627
95.0884
89.041
82.5385
75.8082
132.847
132.836
132.809
132.764
132.695
132.597
132.462
132.278
132.036
131.721
131.319
130.813
130.184
129.412
128.474
127.344
125.995
124.396
122.518
120.326
117.788
114.873
111.552
107.805
103.617
98.9902
93.9423
88.5124
82.7538
76.8511
131.825
131.804
131.755
131.675
131.562
131.41
131.212
130.957
130.635
130.234
129.739
129.136
128.407
127.532
126.493
125.266
123.828
122.154
120.218
117.997
115.466
112.603
109.392
105.822
101.893
97.6127
93.0061
88.1119
82.9783
77.7534
130.789
130.759
130.688
130.575
130.42
130.217
129.959
129.637
129.242
128.761
128.182
127.491
126.673
125.71
124.585
123.279
121.772
120.045
118.077
115.85
113.348
110.558
107.471
104.084
100.404
96.4441
92.2304
87.7989
83.1915
78.5274
129.744
129.706
129.614
129.47
129.275
129.024
128.711
128.327
127.864
127.311
126.656
125.888
124.992
123.954
122.758
121.39
119.833
118.071
116.09
113.878
111.423
108.719
105.762
102.557
99.1118
95.444
91.5779
87.5461
83.3842
79.1885
128.697
128.65
128.539
128.367
128.134
127.838
127.474
127.034
126.509
125.891
125.169
124.333
123.371
122.27
121.019
119.603
118.012
116.232
114.255
112.071
109.676
107.065
104.241
101.21
97.9846
94.5805
91.0212
87.3349
83.5519
79.75
127.653
127.598
127.47
127.27
127.003
126.667
126.256
125.764
125.184
124.509
123.729
122.835
121.817
120.666
119.37
117.921
116.309
114.526
112.565
110.421
108.092
105.579
102.885
100.02
96.996
93.8288
90.5394
87.1523
83.6928
80.2243
126.618
126.557
126.412
126.188
125.889
125.516
125.063
124.525
123.897
123.171
122.341
121.398
120.335
119.144
117.817
116.346
114.725
112.949
111.013
108.917
106.659
104.243
101.676
98.9655
96.1248
93.1693
90.1171
86.9892
83.8071
80.6223
125.6
125.532
125.372
125.126
124.799
124.393
123.902
123.324
122.654
121.885
121.012
120.029
118.931
117.709
116.36
114.877
113.257
111.496
109.593
107.548
105.364
103.044
100.595
98.028
95.3537
92.5866
89.7427
86.8398
83.896
80.9537
124.605
124.532
124.358
124.092
123.74
123.304
122.781
122.168
121.461
120.656
119.748
118.733
117.606
116.364
115.001
113.514
111.902
110.163
108.297
106.307
104.195
101.966
99.6296
97.1933
94.6688
92.0689
89.4076
86.7002
83.9618
81.2274
123.641
123.562
123.377
123.093
122.719
122.257
121.706
121.063
120.325
119.489
118.553
117.513
116.366
115.109
113.74
112.256
110.658
108.945
107.119
105.183
103.142
101
98.7667
96.4495
94.0591
91.6071
89.1057
86.568
84.0069
81.4513
122.714
122.631
122.435
122.136
121.743
121.259
120.683
120.014
119.251
118.391
117.433
116.374
115.213
113.948
112.577
111.102
109.521
107.837
106.053
104.171
102.196
100.136
97.9966
95.7868
93.516
91.1943
88.8327
86.4424
84.0342
81.6324
121.833
121.746
121.541
121.228
120.818
120.315
119.72
119.03
118.246
117.367
116.391
115.319
114.148
112.88
111.513
110.049
108.489
106.836
105.092
103.262
101.351
99.3649
97.3112
95.1975
93.0326
90.8255
88.5857
86.3229
84.0467
81.7771
121.005
120.915
120.702
120.378
119.953
119.435
118.822
118.115
117.314
116.42
115.432
114.35
113.175
111.908
110.548
109.098
107.56
105.937
104.233
102.452
100.599
98.6809
96.7041
94.6758
92.6041
90.497
88.3629
86.2104
84.0476
81.8914
120.239
120.145
119.926
119.591
119.155
118.623
117.996
117.276
116.462
115.556
114.56
113.473
112.296
111.032
109.681
108.247
106.731
105.138
103.471
101.735
99.9357
98.0785
96.17
94.2169
92.2265
90.2062
88.1633
86.1054
84.0397
81.9802
119.541
119.445
119.22
118.877
118.43
117.887
117.249
116.518
115.695
114.781
113.778
112.689
111.513
110.254
108.914
107.496
106.002
104.437
102.805
101.11
99.358
97.5547
95.706
93.8183
91.8982
89.9524
87.9875
86.0102
84.027
82.0496
118.922
118.823
118.593
118.242
117.787
117.235
116.588
115.848
115.017
114.098
113.092
112.001
110.829
109.576
108.247
106.844
105.371
103.831
102.23
100.572
98.8619
97.1055
95.3084
93.4767
91.6163
89.7335
87.8343
85.9247
84.0105
82.1015
118.39
118.289
118.052
117.694
117.232
116.673
116.019
115.273
114.437
113.514
112.506
111.417
110.248
109.002
107.684
106.295
104.841
103.324
101.75
100.123
98.4489
96.7322
94.9787
93.1938
91.3834
89.553
87.7082
85.8547
83.9976
82.1453
117.956
117.85
117.607
117.241
116.772
116.207
115.547
114.796
113.957
113.031
112.023
110.935
109.77
108.531
107.222
105.847
104.408
102.911
101.36
99.7592
98.1142
96.4299
94.7116
92.9646
91.1941
89.4056
87.6041
85.7949
83.9827
82.1744
117.63
117.519
117.266
116.893
116.42
115.85
115.186
114.432
113.59
112.663
111.655
110.569
109.407
108.175
106.874
105.508
104.083
102.602
101.069
99.4888
97.867
96.2083
94.5175
92.7999
91.0606
89.3045
87.5367
85.7619
83.9849
82.2118
117.428
117.293
117.023
116.645
116.169
115.596
114.93
114.174
113.331
112.404
111.397
110.313
109.155
107.927
106.632
105.274
103.858
102.388
100.868
99.3019
97.6959
96.0542
94.3819
92.6839
90.9651
89.2303
87.4844
85.7318
83.977
82.225
117.409
117.21
116.912
116.528
116.049
115.473
114.804
114.046
113.202
112.275
111.269
110.187
109.031
107.807
106.517
105.165
103.755
102.292
100.781
99.2246
97.6289
95.9984
94.3378
92.6522
90.9462
89.2247
87.4922
85.7532
84.012
82.273
-50.5905
-30.3741
-11.0787
35.8891
28.526
16.6567
51.4267
39.3786
28.2217
52.829
42.423
34.401
57.1582
48.8841
42.1417
61.5394
54.6415
48.7603
64.8044
58.9309
53.8887
67.3924
62.3731
58.0689
69.5736
65.2454
61.54
71.4144
67.6386
64.4139
72.9618
69.6336
66.7983
74.2652
71.3042
68.7869
75.3652
72.7083
70.4529
76.2938
73.8913
71.8538
77.0776
74.8895
73.0351
77.7385
75.7326
74.0332
78.2945
76.4445
74.8769
78.761
77.0447
75.59
79.1507
77.5498
76.1918
79.4748
77.9734
76.6985
79.7428
78.3272
77.1237
79.9632
78.6215
77.4793
80.1428
78.8645
77.7744
80.2895
79.0651
78.0192
80.406
79.2268
78.218
80.5038
79.362
78.3833
80.5745
79.4626
78.5086
80.6465
79.5573
78.6205
80.68
79.6071
78.6844
80.7489
79.6901
78.7738
-2.42455
-2.28685
-0.834336
0.27973
0.331426
0.405364
0.464764
0.443296
0.442869
0.486675
0.484818
0.428496
0.379932
0.361376
0.34509
0.299244
0.237532
0.197501
0.200103
0.225421
0.232745
0.205132
0.151603
0.090292
0.0408044
0.0154011
0.00862523
0.00283752
-0.00580734
-0.00280446
2.92219
-0.108493
1.26388
0.865235
-0.352348
-0.205726
0.354901
0.414227
0.404397
0.494992
0.482425
0.372853
0.30456
0.32119
0.349003
0.299993
0.208991
0.149948
0.166979
0.230269
0.260702
0.230869
0.161124
0.0807093
0.0181633
-0.00685003
-0.00115824
0.0038657
-0.00477182
-0.00286702
13.9839
5.57775
2.75917
0.448623
0.0308927
1.14097
1.35426
0.273787
-0.162019
0.145135
0.496668
0.382746
0.274594
0.32723
0.385553
0.298631
0.140392
0.0393803
0.0864577
0.23726
0.319163
0.278985
0.181051
0.0720241
-0.0103184
-0.0359428
-0.011259
0.0114582
0.000217925
-0.00283161
23.6744
13.8153
7.97212
4.21832
2.4076
1.74288
0.675594
-0.0094341
0.17092
1.31671
1.35027
0.289205
-0.133296
-0.0248988
0.312602
0.361115
0.120674
-0.0405155
0.0753724
0.30084
0.415851
0.33535
0.189941
0.0392106
-0.0730835
-0.100875
-0.0407893
0.0238651
0.0113889
-0.00313324
32.8166
23.0678
15.7587
10.4628
6.81063
4.32759
2.48984
1.44946
1.10264
1.16672
0.692116
0.125588
-0.0599131
0.500394
1.05508
0.662832
-0.00423338
-0.416973
-0.394998
0.18948
0.552773
0.4341
0.220702
0.0209448
-0.122909
-0.145603
-0.0192705
0.0856516
0.0480965
-0.0040836
40.7721
31.8547
23.9733
17.5446
12.6182
8.96725
6.28889
4.39654
3.11579
2.23569
1.46885
0.860934
0.537174
0.631345
0.647439
0.416316
-0.10035
-0.471166
-0.149426
0.8069
0.995751
0.494972
0.178853
-0.0733688
-0.263194
-0.323621
-0.184133
0.0971508
0.107071
-0.00912653
47.2617
39.462
31.6915
24.8053
19.1804
14.7167
11.1912
8.43656
6.33688
4.76139
3.5312
2.54386
1.83604
1.42553
1.11807
0.763734
0.270636
-0.0583036
0.109689
0.559286
0.708578
0.50305
0.220632
-0.0597842
-0.285818
-0.327314
0.0161317
0.358032
0.247084
-0.0185414
52.5475
45.8198
38.5659
31.739
25.8569
20.9105
16.7696
13.3453
10.5693
8.34662
6.54543
5.07429
3.92363
3.07494
2.41665
1.80759
1.21089
0.795588
0.715602
0.849075
0.885876
0.677059
0.34766
0.0349528
-0.189719
-0.231023
-0.0299174
0.182005
0.266933
-0.0709793
56.8594
51.0445
44.4624
37.9907
32.1736
27.0617
22.5911
18.7264
15.4374
12.6686
10.3417
8.3936
6.79224
5.50143
4.44206
3.52379
2.72446
2.11681
1.76727
1.60502
1.42962
1.113
0.721456
0.366313
0.114326
0.0225373
0.0999427
0.2149
0.20333
-0.308037
60.3779
55.3111
49.4095
43.4255
37.8719
32.8263
28.26
24.1685
20.5529
17.3941
14.6538
12.2915
10.2743
8.56682
7.11661
5.86897
4.80085
3.93297
3.28512
2.80673
2.37524
1.90384
1.41491
0.976311
0.639595
0.437761
0.36205
0.311439
0.119032
-0.526097
63.2673
58.808
53.5281
48.0599
42.8632
38.0211
33.5207
29.3735
25.6002
22.2057
19.1775
16.4946
14.1346
12.0719
10.2734
8.70426
7.34227
6.18505
5.22969
4.43882
3.73895
3.071
2.43258
1.85855
1.38279
1.02146
0.755105
0.501057
0.126671
-0.606542
65.6603
61.6963
56.9579
51.9784
47.1628
42.5895
38.2515
34.1659
30.3622
26.8586
23.6585
20.7561
18.1409
15.7984
13.7089
11.8504
10.205
8.76244
7.51153
6.42436
5.45489
4.56193
3.73346
2.98322
2.32869
1.77377
1.29484
0.827154
0.275318
-0.537135
67.6562
64.1002
59.8243
55.2844
50.8367
46.5517
42.4232
38.4682
34.7183
31.1978
27.9194
24.8871
22.0998
19.5521
17.2341
15.1332
13.237
11.5347
10.0139
8.65376
7.42414
6.29615
5.2555
4.30345
3.44508
2.67639
1.97426
1.29002
0.558779
-0.343926
69.33
66.1135
62.231
58.0771
53.9677
49.9647
46.0607
42.2701
38.6234
35.1468
31.8571
28.7643
25.8735
23.1859
20.6987
18.4062
16.301
14.3748
12.6173
11.0131
9.54216
8.18395
6.9249
5.75975
4.68591
3.69513
2.76692
1.86575
0.949334
-0.0646722
70.7396
67.8081
64.2604
60.4424
56.6363
52.8965
49.2137
45.5993
42.0807
38.6837
35.4266
32.3224
29.3799
26.6047
23.9988
21.5614
19.2893
17.1774
15.2183
13.4016
11.7135
10.1394
8.66744
7.28983
5.99998
4.78795
3.63636
2.5196
1.41059
0.259579
71.93
69.2393
65.9774
62.4508
58.9133
55.4131
51.9393
48.4998
45.1187
41.82
38.622
35.5389
32.5813
29.7576
27.0729
24.5297
22.1281
19.866
17.7391
15.7405
13.861
12.0903
10.4185
8.83736
7.33877
5.9125
4.54402
3.21451
1.906
0.592614
72.9367
70.4504
67.4335
64.1594
60.8584
57.5734
54.2921
51.0193
47.7758
44.5832
41.459
38.4172
35.4694
32.6252
29.8918
27.2738
24.7739
22.3923
20.1273
17.9749
15.9291
13.9828
12.128
10.3569
8.66146
7.03173
5.45533
3.91762
2.4052
0.908381
73.7884
71.4762
68.6696
65.6144
62.5209
59.4275
56.321
53.2034
50.0922
47.0068
43.9631
40.9745
38.0527
35.2077
32.4478
29.7791
27.2058
24.7301
22.3523
20.0707
17.8818
15.7804
13.7606
11.8154
9.93721
8.11677
6.34308
4.60369
2.88671
1.19222
74.5084
72.3447
69.719
66.8536
63.9415
61.0177
58.0682
55.0927
52.1058
49.1244
46.163
43.2338
40.348
37.5156
34.7454
32.0442
29.4174
26.8684
24.3991
22.0095
19.6978
17.4607
15.2936
13.1906
11.1447
9.1473
7.18814
5.25564
3.33761
1.43908
75.1161
73.0791
70.609
67.9079
65.1541
62.3797
59.5701
56.7231
53.8508
50.9679
48.087
45.2193
42.3753
39.5644
36.7953
34.0755
31.4106
28.8053
26.2622
23.7827
21.3664
19.0112
16.7137
14.4689
12.2705
10.1102
7.97835
5.86326
3.75171
1.65034
75.6274
73.6986
71.3621
68.803
66.1868
63.5432
60.8573
58.1254
55.3572
52.5655
49.7614
46.9547
44.1549
41.3709
38.611
35.8827
33.192
30.5438
27.9418
25.3879
22.8829
20.4256
18.0135
15.6423
13.3063
10.9976
8.70646
6.42107
4.1269
1.83029
76.0563
74.2194
71.9974
69.5607
67.0635
64.5337
61.9563
59.3263
56.6516
53.9431
51.2104
48.4621
45.7066
42.9523
40.2068
37.4774
34.77
32.09
29.4412
26.8264
24.2466
21.7016
19.1896
16.7068
14.2478
11.8051
9.36889
6.92694
4.46365
1.98401
76.4137
74.6547
72.5304
70.1984
67.8035
65.372
62.889
60.3483
57.7563
55.1223
52.4546
49.7607
47.0481
44.3241
41.596
38.8705
36.1535
33.4502
30.7648
28.1002
25.458
22.8385
20.2401
17.6596
15.0919
12.5297
9.96308
7.37941
4.76234
2.11505
76.7107
75.0171
72.9754
70.7323
68.4246
66.0772
63.6751
61.2117
58.6918
56.1235
53.5138
50.8694
48.1966
45.5021
42.7926
40.0741
37.3525
34.6328
31.919
29.2142
26.5204
23.8381
21.1659
18.5012
15.8388
13.1715
10.4894
7.77962
5.02527
2.22725
76.9533
75.3141
73.3414
71.1729
68.9383
66.6615
64.328
61.9303
59.4722
56.9604
54.4014
51.8006
49.1637
46.4966
43.8054
41.0956
38.3728
35.6416
32.9061
30.1694
27.4334
24.6989
21.9648
19.2283
16.4847
13.7268
10.9445
8.12475
5.25048
2.32027
77.1535
75.5584
73.6424
71.5351
69.3607
67.1423
64.8655
62.5223
60.1158
57.6517
55.1355
52.5721
49.9664
47.3238
44.6494
41.9488
39.2268
36.4879
33.7361
30.9743
28.2046
25.4276
22.6425
19.8465
17.035
14.2006
11.3335
8.42022
5.44366
2.39927
77.3079
75.7477
73.8765
71.8178
69.6912
67.5192
65.2876
62.9882
60.6231
58.1974
55.7161
53.1833
50.6034
47.9812
45.3215
42.6292
39.909
37.1651
34.4012
31.6203
28.8242
26.0137
23.1879
20.3442
17.4778
14.5814
11.645
8.65522
5.5949
2.45726
77.4389
75.9043
74.0672
72.0453
69.9549
67.818
65.6207
63.3545
61.0209
58.6247
56.1701
53.6609
51.101
48.4948
45.8467
43.1613
40.443
37.6958
34.9233
32.1282
29.3124
26.4766
23.6198
20.7396
17.8309
14.8867
11.8965
8.84693
5.72059
2.50686
77.5194
76.001
74.1861
72.1894
70.1233
68.0099
65.8355
63.5916
61.2792
58.9027
56.466
53.9727
51.4264
48.8311
46.191
43.5105
40.7937
38.0446
35.2664
32.462
29.6332
26.7804
23.9029
20.998
18.0607
15.0838
12.0566
8.96552
5.79299
2.52676
77.6081
76.0908
74.2882
72.3065
70.2541
68.1533
65.9911
63.7588
61.4575
59.0911
56.6635
54.178
51.6381
49.0477
46.411
43.7321
41.015
38.2637
35.4815
32.671
29.834
26.9712
24.0816
21.1625
18.2091
15.2138
12.1657
9.05032
5.84749
2.53333
)
;

boundaryField
{
    inlet
    {
        type            zeroGradient;
    }
    outlet
    {
        type            fixedValue;
        value           uniform 0;
    }
    flap
    {
        type            zeroGradient;
    }
    upperWall
    {
        type            zeroGradient;
    }
    lowerWall
    {
        type            zeroGradient;
    }
    frontAndBack
    {
        type            empty;
    }
}


// ************************************************************************* //
