/*--------------------------------*- C++ -*----------------------------------*\
  =========                 |
  \\      /  F ield         | OpenFOAM: The Open Source CFD Toolbox
   \\    /   O peration     | Website:  https://openfoam.org
    \\  /    A nd           | Version:  dev
     \\/     M anipulation  |
\*---------------------------------------------------------------------------*/
FoamFile
{
    version     2.0;
    format      ascii;
    class       volVectorField;
    location    "4.4";
    object      U;
}
// * * * * * * * * * * * * * * * * * * * * * * * * * * * * * * * * * * * * * //

dimensions      [0 1 -1 0 0 0 0];

internalField   nonuniform List<vector> 
2790
(
(9.94399 0 0.0205232)
(9.87572 0 0.0295877)
(9.77521 0 0.0359895)
(9.64944 0 0.0425561)
(9.50409 0 0.0493853)
(9.34007 0 0.0564282)
(9.15655 0 0.0638156)
(8.95263 0 0.0717113)
(8.72747 0 0.0802548)
(8.48009 0 0.0895731)
(8.20929 0 0.099793)
(7.91366 0 0.111045)
(7.5917 0 0.12346)
(7.24181 0 0.137165)
(6.86236 0 0.152273)
(6.45183 0 0.168871)
(6.00892 0 0.186998)
(5.53272 0 0.206621)
(5.02301 0 0.227592)
(4.4805 0 0.249614)
(3.90721 0 0.272179)
(3.30689 0 0.294528)
(2.68534 0 0.315623)
(2.05068 0 0.334292)
(1.41186 0 0.35061)
(0.798088 0 0.372887)
(0.110788 0 0.325092)
(-0.469563 0 -0.114847)
(-0.45377 0 -0.297168)
(-0.231164 0 -0.423865)
(9.9985 0 0.040703)
(9.98145 0 0.0623828)
(9.93574 0 0.0791401)
(9.86416 0 0.0966245)
(9.77097 0 0.115123)
(9.65715 0 0.134488)
(9.52206 0 0.154974)
(9.36486 0 0.176942)
(9.18472 0 0.200706)
(8.98068 0 0.226548)
(8.75154 0 0.254742)
(8.4959 0 0.285559)
(8.21223 0 0.319248)
(7.89885 0 0.356021)
(7.55407 0 0.396019)
(7.17623 0 0.439262)
(6.76383 0 0.485593)
(6.31571 0 0.534588)
(5.83131 0 0.585463)
(5.31094 0 0.636957)
(4.75622 0 0.687207)
(4.17048 0 0.733651)
(3.55937 0 0.772959)
(2.93162 0 0.801101)
(2.30002 0 0.813759)
(1.69302 0 0.807266)
(1.10722 0 0.747275)
(0.658936 0 0.547957)
(0.186521 0 0.224656)
(-0.00820067 0 -0.453714)
(9.99559 0 0.043207)
(9.97556 0 0.0752717)
(9.9318 0 0.103346)
(9.8649 0 0.132371)
(9.77778 0 0.163059)
(9.67155 0 0.195397)
(9.54588 0 0.229741)
(9.40014 0 0.2666)
(9.23366 0 0.306467)
(9.04565 0 0.349803)
(8.8351 0 0.397068)
(8.60083 0 0.448717)
(8.34147 0 0.505187)
(8.05553 0 0.566858)
(7.74141 0 0.634005)
(7.39748 0 0.706725)
(7.02215 0 0.784831)
(6.614 0 0.867719)
(6.17199 0 0.95419)
(5.6957 0 1.04225)
(5.18569 0 1.12888)
(4.64403 0 1.20979)
(4.07487 0 1.27916)
(3.48545 0 1.32934)
(2.88692 0 1.3501)
(2.29953 0 1.32645)
(1.7319 0 1.22081)
(1.2163 0 0.973045)
(0.701179 0 0.570192)
(0.358063 0 -0.156494)
(9.99403 0 0.0494993)
(9.97181 0 0.0932063)
(9.92788 0 0.133572)
(9.86225 0 0.174209)
(9.77693 0 0.216432)
(9.67298 0 0.26066)
(9.55032 0 0.307428)
(9.40849 0 0.357412)
(9.24703 0 0.411287)
(9.06534 0 0.4697)
(8.8627 0 0.533296)
(8.63821 0 0.602716)
(8.39087 0 0.678584)
(8.11954 0 0.761465)
(7.82303 0 0.85181)
(7.50004 0 0.949863)
(7.14928 0 1.05554)
(6.76949 0 1.16823)
(6.35955 0 1.28659)
(5.91866 0 1.40826)
(5.44659 0 1.52946)
(4.94407 0 1.64468)
(4.41324 0 1.74614)
(3.85834 0 1.82323)
(3.28589 0 1.86138)
(2.70647 0 1.84035)
(2.12571 0 1.72605)
(1.55431 0 1.47792)
(0.957979 0 1.08376)
(0.509435 0 0.502392)
(9.99331 0 0.0572137)
(9.96994 0 0.110959)
(9.92593 0 0.162104)
(9.86146 0 0.213347)
(9.77799 0 0.266356)
(9.67635 0 0.321912)
(9.55654 0 0.380699)
(9.41822 0 0.443484)
(9.26098 0 0.511051)
(9.08434 0 0.584163)
(8.88771 0 0.663579)
(8.6704 0 0.750053)
(8.43161 0 0.844323)
(8.17048 0 0.94707)
(7.8861 0 1.05886)
(7.57751 0 1.18006)
(7.2437 0 1.31067)
(6.88365 0 1.45016)
(6.49633 0 1.5972)
(6.08079 0 1.74931)
(5.63622 0 1.9024)
(5.16218 0 2.05031)
(4.65884 0 2.18417)
(4.12729 0 2.29175)
(3.56947 0 2.35658)
(2.98896 0 2.35735)
(2.38689 0 2.26501)
(1.76644 0 2.04771)
(1.09002 0 1.69148)
(0.536664 0 1.15424)
(9.99302 0 0.0655388)
(9.96923 0 0.128702)
(9.92556 0 0.190114)
(9.86253 0 0.251843)
(9.78129 0 0.315577)
(9.68244 0 0.382317)
(9.56601 0 0.452872)
(9.43171 0 0.528097)
(9.27921 0 0.608874)
(9.10807 0 0.696076)
(8.91778 0 0.790569)
(8.70775 0 0.893211)
(8.4773 0 1.00484)
(8.22569 0 1.12624)
(7.95217 0 1.25807)
(7.65591 0 1.40079)
(7.33606 0 1.55452)
(6.99168 0 1.71884)
(6.62173 0 1.89253)
(6.22506 0 2.0732)
(5.80034 0 2.25683)
(5.34611 0 2.43719)
(4.86078 0 2.60519)
(4.34278 0 2.74823)
(3.79047 0 2.84957)
(3.20265 0 2.88824)
(2.57663 0 2.83829)
(1.91352 0 2.67169)
(1.17278 0 2.3741)
(0.549981 0 1.89451)
(9.99297 0 0.074075)
(9.96926 0 0.146314)
(9.92637 0 0.217483)
(9.86508 0 0.289291)
(9.78642 0 0.363354)
(9.69085 0 0.440825)
(9.57835 0 0.522657)
(9.44871 0 0.609806)
(9.30165 0 0.703248)
(9.13678 0 0.803955)
(8.95365 0 0.912888)
(8.75171 0 1.031)
(8.53035 0 1.1592)
(8.28889 0 1.29838)
(8.02661 0 1.44927)
(7.74271 0 1.61245)
(7.43633 0 1.78816)
(7.10644 0 1.97613)
(6.75185 0 2.17537)
(6.37106 0 2.38379)
(5.96216 0 2.59771)
(5.52271 0 2.81136)
(5.0496 0 3.01614)
(4.53909 0 3.19997)
(3.98674 0 3.3467)
(3.38799 0 3.43601)
(2.73732 0 3.44338)
(2.0363 0 3.34159)
(1.24178 0 3.11369)
(0.56353 0 2.69328)
(9.99306 0 0.0825883)
(9.96981 0 0.163606)
(9.92807 0 0.24405)
(9.86885 0 0.325479)
(9.79313 0 0.409445)
(9.70126 0 0.497204)
(9.59323 0 0.589835)
(9.46888 0 0.68839)
(9.32796 0 0.793932)
(9.17014 0 0.907519)
(8.99503 0 1.0302)
(8.80211 0 1.16302)
(8.59082 0 1.30699)
(8.36052 0 1.46307)
(8.11046 0 1.63212)
(7.83983 0 1.81484)
(7.54764 0 2.01163)
(7.23271 0 2.22248)
(6.89355 0 2.4467)
(6.52822 0 2.68265)
(6.13415 0 2.92732)
(5.70793 0 3.17574)
(5.24505 0 3.42035)
(4.73987 0 3.6502)
(4.18557 0 3.85026)
(3.57485 0 4.00094)
(2.8996 0 4.07798)
(2.16217 0 4.05249)
(1.31616 0 3.90183)
(0.583237 0 3.54031)
(9.99326 0 0.0909286)
(9.97072 0 0.180409)
(9.93046 0 0.269668)
(9.87362 0 0.360241)
(9.80118 0 0.453646)
(9.71344 0 0.551207)
(9.61038 0 0.654108)
(9.49188 0 0.76349)
(9.35776 0 0.880496)
(9.20773 0 1.00627)
(9.04146 0 1.14194)
(8.85848 0 1.28865)
(8.65828 0 1.4475)
(8.44022 0 1.61956)
(8.20359 0 1.80583)
(7.94748 0 2.00717)
(7.67081 0 2.22421)
(7.3722 0 2.45723)
(7.04984 0 2.70601)
(6.70133 0 2.96952)
(6.32341 0 3.24562)
(5.91173 0 3.5305)
(5.46045 0 3.81804)
(4.96211 0 4.09898)
(4.40752 0 4.35988)
(3.7865 0 4.58215)
(3.08766 0 4.74116)
(2.31278 0 4.80458)
(1.41069 0 4.74125)
(0.61433 0 4.44211)
(9.99352 0 0.0989926)
(9.97191 0 0.19658)
(9.9334 0 0.294195)
(9.87924 0 0.393417)
(9.8104 0 0.495754)
(9.72716 0 0.602586)
(9.62953 0 0.715178)
(9.51741 0 0.834755)
(9.39068 0 0.962534)
(9.24913 0 1.09973)
(9.09245 0 1.24757)
(8.92028 0 1.40727)
(8.73213 0 1.58004)
(8.52743 0 1.76707)
(8.30544 0 1.96952)
(8.06527 0 2.18844)
(7.80575 0 2.42475)
(7.52533 0 2.67912)
(7.22195 0 2.95187)
(6.89282 0 3.24276)
(6.5341 0 3.55074)
(6.14056 0 3.87345)
(5.70515 0 4.20667)
(5.21859 0 4.54337)
(4.66911 0 4.87245)
(4.04299 0 5.17702)
(3.3238 0 5.4324)
(2.50986 0 5.60211)
(1.54193 0 5.64369)
(0.664084 0 5.41826)
(9.99384 0 0.106705)
(9.9733 0 0.212001)
(9.9368 0 0.317503)
(9.88558 0 0.424856)
(9.82063 0 0.535588)
(9.74225 0 0.651118)
(9.65044 0 0.772783)
(9.54517 0 0.901878)
(9.42637 0 1.03969)
(9.2939 0 1.1875)
(9.14752 0 1.34661)
(8.98694 0 1.51833)
(8.81175 0 1.70396)
(8.62143 0 1.90484)
(8.41532 0 2.12227)
(8.19254 0 2.35755)
(7.9519 0 2.61191)
(7.69181 0 2.88648)
(7.41009 0 3.18222)
(7.10369 0 3.4998)
(6.76841 0 3.83941)
(6.39841 0 4.20048)
(5.98566 0 4.58113)
(5.5192 0 4.9773)
(4.98451 0 5.38132)
(4.3634 0 5.7796)
(3.63203 0 6.14924)
(2.78024 0 6.45083)
(1.73353 0 6.62874)
(0.744869 0 6.50337)
(9.9942 0 0.114007)
(9.97487 0 0.226576)
(9.94055 0 0.339474)
(9.89252 0 0.454424)
(9.83173 0 0.572982)
(9.7585 0 0.696607)
(9.67288 0 0.826689)
(9.57488 0 0.964585)
(9.46448 0 1.11164)
(9.34162 0 1.2692)
(9.20615 0 1.43863)
(9.05786 0 1.62131)
(8.89644 0 1.81866)
(8.72147 0 2.03212)
(8.53237 0 2.26319)
(8.32837 0 2.51339)
(8.10836 0 2.78429)
(7.87083 0 3.0775)
(7.61364 0 3.39465)
(7.33377 0 3.73741)
(7.02697 0 4.10737)
(6.68722 0 4.50595)
(6.30598 0 4.93405)
(5.8712 0 5.3914)
(5.36591 0 5.87534)
(4.76704 0 6.37828)
(4.04087 0 6.88332)
(3.1616 0 7.35369)
(2.02485 0 7.72349)
(0.880785 0 7.75745)
(9.99459 0 0.120854)
(9.97657 0 0.240226)
(9.94461 0 0.360009)
(9.89995 0 0.482001)
(9.84356 0 0.607795)
(9.77575 0 0.73888)
(9.69662 0 0.876693)
(9.60622 0 1.02264)
(9.50463 0 1.17811)
(9.39184 0 1.3445)
(9.26781 0 1.52323)
(9.13241 0 1.71576)
(8.98547 0 1.92358)
(8.82668 0 2.14825)
(8.65562 0 2.39144)
(8.47167 0 2.65488)
(8.27393 0 2.94046)
(8.06109 0 3.25027)
(7.83128 0 3.5866)
(7.58182 0 3.95209)
(7.30883 0 4.34975)
(7.0067 0 4.78306)
(6.66729 0 5.25602)
(6.27857 0 5.77288)
(5.82259 0 6.33765)
(5.27264 0 6.95242)
(4.58471 0 7.61372)
(3.71015 0 8.30112)
(2.48833 0 8.95857)
(1.12456 0 9.29372)
(9.99501 0 0.127212)
(9.97838 0 0.252886)
(9.94891 0 0.379022)
(9.90779 0 0.507488)
(9.85598 0 0.639908)
(9.79381 0 0.7778)
(9.72142 0 0.922634)
(9.63893 0 1.07585)
(9.54646 0 1.23888)
(9.44412 0 1.41316)
(9.33194 0 1.60014)
(9.20994 0 1.80133)
(9.07804 0 2.0183)
(8.93613 0 2.25271)
(8.78397 0 2.50634)
(8.62115 0 2.78112)
(8.44708 0 3.07922)
(8.26081 0 3.40311)
(8.06095 0 3.75568)
(7.84546 0 4.14041)
(7.61133 0 4.56157)
(7.35411 0 5.0246)
(7.06719 0 5.53643)
(6.74048 0 6.10605)
(6.35803 0 6.74518)
(5.89423 0 7.4689)
(5.30099 0 8.29638)
(4.50912 0 9.24817)
(3.26908 0 10.3423)
(1.60517 0 11.3599)
(9.99545 0 0.133052)
(9.98026 0 0.264506)
(9.95339 0 0.396444)
(9.91595 0 0.53079)
(9.86888 0 0.6692)
(9.81252 0 0.813211)
(9.74707 0 0.964318)
(9.6727 0 1.12399)
(9.58962 0 1.29367)
(9.498 0 1.47482)
(9.39801 0 1.66894)
(9.28976 0 1.87754)
(9.17335 0 2.10226)
(9.04884 0 2.3448)
(8.91622 0 2.60704)
(8.77537 0 2.89105)
(8.62605 0 3.1992)
(8.46781 0 3.53423)
(8.29993 0 3.89945)
(8.12128 0 4.29896)
(7.93014 0 4.73797)
(7.72396 0 5.22334)
(7.49891 0 5.76428)
(7.2491 0 6.37362)
(6.96503 0 7.06981)
(6.63119 0 7.88068)
(6.21479 0 8.85168)
(5.66638 0 10.0659)
(4.69084 0 11.7314)
(2.68792 0 14.5937)
(0.120938 0 -0.12238)
(0.283752 0 -0.111746)
(0.451606 0 -0.0891362)
(0.594147 0 -0.0680077)
(0.706971 0 -0.0509129)
(0.795101 0 -0.0376555)
(0.864556 0 -0.0275529)
(0.920064 0 -0.0199735)
(0.965109 0 -0.0143871)
(1.00238 0 -0.0103511)
(1.03401 0 -0.00750091)
(1.06169 0 -0.00553443)
(1.08669 0 -0.00419201)
(1.10986 0 -0.00324109)
(1.13164 0 -0.00247103)
(1.1521 0 -0.00170028)
(1.17093 0 -0.000796374)
(1.1876 0 0.000299257)
(1.20151 0 0.00156306)
(1.21217 0 0.00292218)
(1.2193 0 0.00431894)
(1.22274 0 0.00570994)
(1.22251 0 0.00697582)
(1.21832 0 0.00813766)
(1.2098 0 0.00915865)
(1.19728 0 0.00976019)
(1.18207 0 0.00965664)
(1.16637 0 0.00869103)
(1.15273 0 0.0068725)
(1.14269 0 0.00373607)
(0.101473 0 -0.281116)
(0.258944 0 -0.26523)
(0.413645 0 -0.217788)
(0.547372 0 -0.172164)
(0.657009 0 -0.135095)
(0.747073 0 -0.106353)
(0.822535 0 -0.084436)
(0.887131 0 -0.0679383)
(0.943543 0 -0.0556899)
(0.993804 0 -0.0467287)
(1.03951 0 -0.0402724)
(1.08192 0 -0.0356807)
(1.12198 0 -0.032409)
(1.16037 0 -0.029974)
(1.19755 0 -0.0279388)
(1.23371 0 -0.0259228)
(1.26882 0 -0.0236392)
(1.30267 0 -0.0209492)
(1.33494 0 -0.017894)
(1.36538 0 -0.014647)
(1.39388 0 -0.0113743)
(1.4205 0 -0.00811866)
(1.44495 0 -0.00480509)
(1.46671 0 -0.00135385)
(1.48527 0 0.00205598)
(1.50015 0 0.00490044)
(1.51149 0 0.00647597)
(1.52129 0 0.00641257)
(1.5312 0 0.00487488)
(1.54384 0 0.00233826)
(0.0790957 0 -0.441324)
(0.212337 0 -0.416114)
(0.33305 0 -0.343838)
(0.436832 0 -0.274883)
(0.521145 0 -0.219179)
(0.590654 0 -0.176056)
(0.649352 0 -0.143081)
(0.699965 0 -0.118063)
(0.744414 0 -0.0992535)
(0.784167 0 -0.0852489)
(0.82039 0 -0.0749249)
(0.854005 0 -0.0673661)
(0.885726 0 -0.0618002)
(0.916086 0 -0.0575494)
(0.945455 0 -0.0540059)
(0.974045 0 -0.0506338)
(1.00191 0 -0.0470126)
(1.02891 0 -0.0429162)
(1.05481 0 -0.0383833)
(1.07932 0 -0.0336889)
(1.10238 0 -0.0291294)
(1.12426 0 -0.0246942)
(1.14547 0 -0.0199644)
(1.16624 0 -0.0146489)
(1.18621 0 -0.00907265)
(1.20474 0 -0.00420334)
(1.22108 0 -0.00134997)
(1.23361 0 -0.00135684)
(1.24229 0 -0.00389602)
(1.25067 0 -0.00621558)
(0.0577318 0 -0.564997)
(0.160226 0 -0.524459)
(0.239799 0 -0.429606)
(0.308397 0 -0.342387)
(0.361512 0 -0.27326)
(0.404795 0 -0.220334)
(0.441028 0 -0.180026)
(0.471808 0 -0.149404)
(0.498252 0 -0.126274)
(0.521267 0 -0.108942)
(0.541591 0 -0.0960635)
(0.559813 0 -0.0865467)
(0.576409 0 -0.0794742)
(0.59176 0 -0.0740504)
(0.606184 0 -0.0695685)
(0.619946 0 -0.0653951)
(0.633226 0 -0.0610044)
(0.646065 0 -0.0560658)
(0.658252 0 -0.0505607)
(0.669369 0 -0.0448258)
(0.679011 0 -0.039377)
(0.687423 0 -0.034563)
(0.695443 0 -0.030206)
(0.703827 0 -0.0257553)
(0.7123 0 -0.0207766)
(0.719732 0 -0.0152086)
(0.724624 0 -0.00969632)
(0.724652 0 -0.00525929)
(0.718965 0 -0.00321725)
(0.70523 0 -0.00299176)
(0.0357148 0 -0.654327)
(0.101849 0 -0.593164)
(0.135064 0 -0.478489)
(0.166008 0 -0.378471)
(0.18418 0 -0.300654)
(0.197508 0 -0.241906)
(0.206945 0 -0.197221)
(0.213225 0 -0.16313)
(0.21684 0 -0.137224)
(0.218302 0 -0.117673)
(0.218026 0 -0.103032)
(0.21633 0 -0.0921287)
(0.213495 0 -0.0839878)
(0.2098 0 -0.0777692)
(0.205537 0 -0.0727294)
(0.201039 0 -0.0681882)
(0.196624 0 -0.0635387)
(0.192581 0 -0.0583095)
(0.18878 0 -0.0522966)
(0.18478 0 -0.0456777)
(0.179208 0 -0.0389108)
(0.171573 0 -0.032382)
(0.160839 0 -0.0260704)
(0.148261 0 -0.019758)
(0.135018 0 -0.0133961)
(0.122102 0 -0.00738948)
(0.113166 0 -0.00188127)
(0.104975 0 0.0024082)
(0.100984 0 0.00429941)
(0.0892754 0 -0.00178085)
(0.0121585 0 -0.703639)
(0.0368195 0 -0.617697)
(0.0211768 0 -0.486241)
(0.0125873 0 -0.378379)
(-0.00688868 0 -0.294745)
(-0.0265098 0 -0.23355)
(-0.0476847 0 -0.187241)
(-0.0696355 0 -0.152118)
(-0.0920803 0 -0.125619)
(-0.114632 0 -0.105773)
(-0.137036 0 -0.0910246)
(-0.159124 0 -0.0801486)
(-0.180735 0 -0.0721287)
(-0.201721 0 -0.0660958)
(-0.221941 0 -0.0613142)
(-0.241209 0 -0.057158)
(-0.259235 0 -0.0530822)
(-0.275657 0 -0.0486023)
(-0.290196 0 -0.043379)
(-0.302828 0 -0.0373779)
(-0.313888 0 -0.0309507)
(-0.323989 0 -0.0246481)
(-0.333938 0 -0.0189088)
(-0.344256 0 -0.0137834)
(-0.354985 0 -0.00909072)
(-0.365413 0 -0.00467244)
(-0.375246 0 -0.000403923)
(-0.381658 0 0.00300524)
(-0.387856 0 0.0041581)
(-0.39516 0 0.00182264)
(-0.0149148 0 -0.706156)
(-0.036654 0 -0.592049)
(-0.0998973 0 -0.450581)
(-0.150993 0 -0.341322)
(-0.207416 0 -0.259509)
(-0.261619 0 -0.199447)
(-0.313422 0 -0.154951)
(-0.361907 0 -0.121944)
(-0.406755 0 -0.0976905)
(-0.44782 0 -0.0801393)
(-0.485159 0 -0.0676299)
(-0.519029 0 -0.0588713)
(-0.549775 0 -0.0528249)
(-0.577757 0 -0.0486366)
(-0.603283 0 -0.0456193)
(-0.626549 0 -0.0432084)
(-0.647581 0 -0.0409342)
(-0.666273 0 -0.0383017)
(-0.682573 0 -0.0348381)
(-0.696665 0 -0.0302654)
(-0.709043 0 -0.0246715)
(-0.720416 0 -0.0185135)
(-0.731485 0 -0.0123607)
(-0.742677 0 -0.00666496)
(-0.754156 0 -0.00167184)
(-0.765267 0 0.0025453)
(-0.773694 0 0.00573556)
(-0.781386 0 0.00740867)
(-0.788545 0 0.0065759)
(-0.793718 0 0.00343951)
(-0.0482184 0 -0.656084)
(-0.117951 0 -0.520188)
(-0.226868 0 -0.37808)
(-0.31909 0 -0.271135)
(-0.410519 0 -0.193689)
(-0.494617 0 -0.13971)
(-0.570118 0 -0.102158)
(-0.636637 0 -0.0758486)
(-0.694745 0 -0.0576201)
(-0.745491 0 -0.045427)
(-0.789894 0 -0.0375743)
(-0.828961 0 -0.0327776)
(-0.86358 0 -0.0300524)
(-0.894505 0 -0.0286328)
(-0.922334 0 -0.027963)
(-0.947489 0 -0.0276144)
(-0.970152 0 -0.0272937)
(-0.990289 0 -0.0265676)
(-1.00791 0 -0.0248973)
(-1.02329 0 -0.0218621)
(-1.03699 0 -0.0174207)
(-1.04971 0 -0.0119965)
(-1.06214 0 -0.00627723)
(-1.07475 0 -0.00101897)
(-1.08644 0 0.00330248)
(-1.09658 0 0.00678872)
(-1.10613 0 0.00963611)
(-1.11511 0 0.0113036)
(-1.1231 0 0.0105853)
(-1.12773 0 0.00810551)
(-0.0887477 0 -0.549266)
(-0.209651 0 -0.399673)
(-0.368403 0 -0.266291)
(-0.498899 0 -0.17203)
(-0.618081 0 -0.106477)
(-0.723564 0 -0.0628355)
(-0.815517 0 -0.0353539)
(-0.894445 0 -0.0191075)
(-0.95922 0 -0.0104708)
(-1.01323 0 -0.00614621)
(-1.05898 0 -0.00446273)
(-1.09851 0 -0.0044694)
(-1.13332 0 -0.00551731)
(-1.16455 0 -0.00709528)
(-1.19299 0 -0.00886699)
(-1.21917 0 -0.0107378)
(-1.24285 0 -0.0125129)
(-1.26389 0 -0.0137968)
(-1.28226 0 -0.0139461)
(-1.2983 0 -0.01233)
(-1.31274 0 -0.00877045)
(-1.32651 0 -0.00378844)
(-1.34037 0 0.00156903)
(-1.353 0 0.00628791)
(-1.3648 0 0.00992502)
(-1.37587 0 0.0126017)
(-1.38603 0 0.0145403)
(-1.39552 0 0.0153647)
(-1.40372 0 0.0143325)
(-1.40801 0 0.0122329)
(-0.143494 0 -0.381256)
(-0.328823 0 -0.231416)
(-0.556147 0 -0.11366)
(-0.739885 0 -0.0319028)
(-0.884098 0 0.0102918)
(-0.997319 0 0.0306389)
(-1.08605 0 0.0383245)
(-1.15641 0 0.0387551)
(-1.21514 0 0.0359674)
(-1.26461 0 0.0318709)
(-1.30704 0 0.0273433)
(-1.34397 0 0.0226668)
(-1.37647 0 0.017993)
(-1.40543 0 0.0135503)
(-1.43165 0 0.00948296)
(-1.45557 0 0.00564886)
(-1.4776 0 0.00201953)
(-1.49754 0 -0.00113164)
(-1.51528 0 -0.0030485)
(-1.53108 0 -0.00287651)
(-1.54554 0 -0.000312348)
(-1.55923 0 0.00406268)
(-1.57224 0 0.00899876)
(-1.58544 0 0.0133589)
(-1.59822 0 0.016538)
(-1.60996 0 0.0185385)
(-1.62057 0 0.0196736)
(-1.6304 0 0.0198503)
(-1.63874 0 0.0186598)
(-1.64284 0 0.0168785)
(-0.226437 0 -0.15089)
(-0.479144 0 0.0353356)
(-0.729075 0 0.104787)
(-0.911993 0 0.122661)
(-1.0587 0 0.123882)
(-1.17521 0 0.116216)
(-1.26836 0 0.104658)
(-1.3435 0 0.0918591)
(-1.40482 0 0.0791762)
(-1.45575 0 0.0675717)
(-1.49916 0 0.0574265)
(-1.53697 0 0.0484378)
(-1.57034 0 0.0402951)
(-1.60009 0 0.0330734)
(-1.62711 0 0.0268758)
(-1.652 0 0.0214213)
(-1.67466 0 0.0161609)
(-1.69451 0 0.0111399)
(-1.71117 0 0.00732015)
(-1.72517 0 0.00598283)
(-1.73783 0 0.00769345)
(-1.7506 0 0.0117989)
(-1.76422 0 0.0167807)
(-1.7784 0 0.0210237)
(-1.79217 0 0.0236246)
(-1.80461 0 0.0246876)
(-1.8156 0 0.0248416)
(-1.82565 0 0.0243701)
(-1.83405 0 0.0231099)
(-1.83803 0 0.0216489)
(-0.28927 0 0.254894)
(-0.568327 0 0.317486)
(-0.849706 0 0.311622)
(-1.05709 0 0.282601)
(-1.21667 0 0.24678)
(-1.33862 0 0.210563)
(-1.43312 0 0.177665)
(-1.50778 0 0.149057)
(-1.56772 0 0.124618)
(-1.61698 0 0.104576)
(-1.65903 0 0.0886227)
(-1.69605 0 0.0753882)
(-1.72894 0 0.0636919)
(-1.75826 0 0.0534697)
(-1.785 0 0.0449857)
(-1.81004 0 0.0377142)
(-1.8332 0 0.0305374)
(-1.85334 0 0.0231554)
(-1.86958 0 0.0168983)
(-1.88254 0 0.0138507)
(-1.89418 0 0.0150358)
(-1.90658 0 0.0195031)
(-1.92072 0 0.0250125)
(-1.93603 0 0.0293354)
(-1.951 0 0.0312952)
(-1.96423 0 0.0311718)
(-1.97552 0 0.030116)
(-1.98559 0 0.0289338)
(-1.99391 0 0.0276275)
(-1.99776 0 0.0264509)
(-0.3422 0 0.654308)
(-0.683995 0 0.654132)
(-1.00883 0 0.554997)
(-1.22738 0 0.455951)
(-1.38548 0 0.372864)
(-1.50151 0 0.302961)
(-1.58894 0 0.247045)
(-1.65723 0 0.202926)
(-1.71159 0 0.167149)
(-1.75583 0 0.139044)
(-1.79408 0 0.118087)
(-1.82893 0 0.101436)
(-1.8605 0 0.0864554)
(-1.88856 0 0.0731651)
(-1.91423 0 0.062558)
(-1.939 0 0.0539659)
(-1.96266 0 0.0452152)
(-1.98311 0 0.0352633)
(-1.99852 0 0.0259709)
(-2.00955 0 0.0208039)
(-2.01924 0 0.0216327)
(-2.03075 0 0.0270576)
(-2.04538 0 0.0337064)
(-2.06214 0 0.0384181)
(-2.07866 0 0.0396529)
(-2.09283 0 0.0379902)
(-2.10426 0 0.0353931)
(-2.11403 0 0.0334139)
(-2.12206 0 0.0321232)
(-2.12575 0 0.0312285)
(-0.452847 0 1.15925)
(-0.883532 0 1.05429)
(-1.23917 0 0.815531)
(-1.43848 0 0.620475)
(-1.57267 0 0.487466)
(-1.66869 0 0.382316)
(-1.73844 0 0.30531)
(-1.79368 0 0.249937)
(-1.83844 0 0.204787)
(-1.8743 0 0.168597)
(-1.90619 0 0.143565)
(-1.93776 0 0.125135)
(-1.96764 0 0.107648)
(-1.99362 0 0.0913904)
(-2.01706 0 0.0791528)
(-2.04093 0 0.0703765)
(-2.06531 0 0.0608676)
(-2.08645 0 0.0480504)
(-2.10068 0 0.0346024)
(-2.10862 0 0.0264827)
(-2.1151 0 0.0271862)
(-2.1251 0 0.0344737)
(-2.14038 0 0.0431087)
(-2.15914 0 0.0485935)
(-2.17778 0 0.0489345)
(-2.19307 0 0.0451753)
(-2.20436 0 0.0405026)
(-2.21337 0 0.0375921)
(-2.2208 0 0.0364629)
(-2.22428 0 0.0358885)
(-0.673904 0 2.12006)
(-1.20616 0 1.70233)
(-1.58174 0 1.10674)
(-1.70685 0 0.71326)
(-1.77907 0 0.564738)
(-1.83916 0 0.444293)
(-1.87774 0 0.354826)
(-1.91387 0 0.293118)
(-1.94829 0 0.236443)
(-1.97331 0 0.188483)
(-1.99517 0 0.162544)
(-2.02226 0 0.148244)
(-2.05081 0 0.130523)
(-2.07415 0 0.110259)
(-2.09387 0 0.0951904)
(-2.11621 0 0.0866445)
(-2.14227 0 0.0767382)
(-2.16539 0 0.0600387)
(-2.17839 0 0.040421)
(-2.18152 0 0.0281183)
(-2.18282 0 0.0295561)
(-2.19048 0 0.0406841)
(-2.20673 0 0.0529276)
(-2.2284 0 0.0599416)
(-2.24999 0 0.0592782)
(-2.26668 0 0.0526785)
(-2.27736 0 0.0451363)
(-2.28486 0 0.0411232)
(-2.29131 0 0.0405109)
(-2.29453 0 0.0403941)
(9.9959 0 0.138447)
(9.98225 0 0.27524)
(9.9581 0 0.412527)
(9.92453 0 0.552275)
(9.88241 0 0.696162)
(9.83215 0 0.845739)
(9.77398 0 1.00251)
(9.70814 0 1.16796)
(9.6349 0 1.34355)
(9.55456 0 1.53073)
(9.46737 0 1.73101)
(9.37361 0 1.94592)
(9.27353 0 2.17711)
(9.16739 0 2.42631)
(9.05545 0 2.69543)
(8.93793 0 2.98661)
(8.81501 0 3.30231)
(8.68683 0 3.6454)
(8.55347 0 4.01941)
(8.41492 0 4.42872)
(8.27112 0 4.87896)
(8.12196 0 5.3776)
(7.96738 0 5.93481)
(7.80766 0 6.56494)
(7.644 0 7.28908)
(7.48142 0 8.13981)
(7.33319 0 9.17113)
(7.28947 0 10.4766)
(7.74862 0 12.2011)
(7.93232 0 14.9203)
(9.99638 0 0.143407)
(9.98434 0 0.285096)
(9.96305 0 0.427256)
(9.93351 0 0.571886)
(9.89656 0 0.720678)
(9.85261 0 0.875189)
(9.80195 0 1.03693)
(9.7449 0 1.20737)
(9.68182 0 1.38797)
(9.61307 0 1.58018)
(9.53904 0 1.78549)
(9.46015 0 2.00543)
(9.37684 0 2.2416)
(9.28959 0 2.49573)
(9.19892 0 2.76971)
(9.1054 0 3.06565)
(9.0097 0 3.38598)
(8.91255 0 3.73354)
(8.81488 0 4.11179)
(8.71787 0 4.52499)
(8.62312 0 4.97856)
(8.53301 0 5.47952)
(8.45125 0 6.03719)
(8.38411 0 6.66416)
(8.34277 0 7.37765)
(8.34932 0 8.20107)
(8.44264 0 9.16455)
(8.67868 0 10.3013)
(9.32631 0 11.556)
(9.81742 0 12.6434)
(9.99688 0 0.147844)
(9.9865 0 0.293908)
(9.96819 0 0.440407)
(9.94282 0 0.589357)
(9.9112 0 0.742452)
(9.87376 0 0.901244)
(9.83084 0 1.06723)
(9.78281 0 1.24187)
(9.73011 0 1.42659)
(9.6732 0 1.62282)
(9.61259 0 1.83201)
(9.54884 0 2.05564)
(9.48256 0 2.29526)
(9.41446 0 2.55253)
(9.34533 0 2.82925)
(9.2761 0 3.12743)
(9.20785 0 3.44933)
(9.14194 0 3.79758)
(9.08005 0 4.17531)
(9.02439 0 4.58628)
(8.97798 0 5.03509)
(8.94511 0 5.5274)
(8.93207 0 6.0702)
(8.94837 0 6.67187)
(9.00853 0 7.34186)
(9.13468 0 8.08878)
(9.35784 0 8.91449)
(9.6875 0 9.80781)
(10.2534 0 10.7173)
(10.9412 0 11.4326)
(9.9974 0 0.151706)
(9.98873 0 0.30157)
(9.97346 0 0.451815)
(9.95238 0 0.604458)
(9.92622 0 0.761185)
(9.89543 0 0.923531)
(9.86039 0 1.09297)
(9.82155 0 1.27093)
(9.77939 0 1.4588)
(9.73447 0 1.65795)
(9.68742 0 1.86978)
(9.63892 0 2.09569)
(9.58976 0 2.33714)
(9.54084 0 2.59567)
(9.49319 0 2.87294)
(9.44807 0 3.17074)
(9.40695 0 3.49108)
(9.37167 0 3.83622)
(9.34451 0 4.20874)
(9.32846 0 4.61161)
(9.32743 0 5.04823)
(9.34675 0 5.52245)
(9.39365 0 6.03838)
(9.47804 0 6.59998)
(9.61312 0 7.21002)
(9.81572 0 7.86814)
(10.1086 0 8.56724)
(10.5004 0 9.29262)
(11.058 0 10.0341)
(11.8512 0 10.6786)
(9.99792 0 0.154946)
(9.99101 0 0.30799)
(9.97884 0 0.461344)
(9.96211 0 0.61701)
(9.94149 0 0.776657)
(9.91743 0 0.941789)
(9.89037 0 1.11384)
(9.86078 0 1.2942)
(9.82923 0 1.48419)
(9.79635 0 1.68513)
(9.76286 0 1.89832)
(9.72956 0 2.12506)
(9.69737 0 2.36668)
(9.66738 0 2.62456)
(9.64084 0 2.90016)
(9.61922 0 3.19499)
(9.60431 0 3.51073)
(9.59829 0 3.84914)
(9.60385 0 4.21214)
(9.62438 0 4.60177)
(9.6642 0 5.02015)
(9.72883 0 5.46926)
(9.82535 0 5.95074)
(9.96272 0 6.46527)
(10.152 0 7.01176)
(10.4062 0 7.58632)
(10.7427 0 8.18083)
(11.1731 0 8.78058)
(11.7204 0 9.37399)
(12.4734 0 9.88617)
(9.99845 0 0.157521)
(9.9933 0 0.313082)
(9.98427 0 0.468867)
(9.97193 0 0.62685)
(9.95688 0 0.788664)
(9.93959 0 0.955777)
(9.92051 0 1.12957)
(9.90018 0 1.31137)
(9.87919 0 1.50244)
(9.85826 0 1.704)
(9.83817 0 1.91725)
(9.81983 0 2.14336)
(9.80427 0 2.3835)
(9.7927 0 2.63886)
(9.78653 0 2.91065)
(9.7874 0 3.20008)
(9.79728 0 3.5084)
(9.81855 0 3.83685)
(9.85405 0 4.18665)
(9.9073 0 4.55894)
(9.98256 0 4.95459)
(10.0851 0 5.37409)
(10.2211 0 5.81717)
(10.3983 0 6.28237)
(10.6255 0 6.76643)
(10.9122 0 7.26356)
(11.2698 0 7.76455)
(11.7062 0 8.25383)
(12.2221 0 8.7147)
(12.8978 0 9.10564)
(9.99898 0 0.15939)
(9.9956 0 0.316769)
(9.9897 0 0.474271)
(9.98175 0 0.633827)
(9.97227 0 0.797027)
(9.96171 0 0.965285)
(9.95056 0 1.13992)
(9.93937 0 1.32219)
(9.92881 0 1.51327)
(9.91961 0 1.71428)
(9.91262 0 1.92629)
(9.90882 0 2.15033)
(9.90932 0 2.3874)
(9.9154 0 2.63846)
(9.92857 0 2.90444)
(9.95055 0 3.18624)
(9.98339 0 3.48467)
(10.0295 0 3.80045)
(10.0917 0 4.13414)
(10.1733 0 4.48603)
(10.2783 0 4.85603)
(10.4114 0 5.24344)
(10.5777 0 5.64667)
(10.7832 0 6.06291)
(11.0344 0 6.48767)
(11.3376 0 6.91427)
(11.6989 0 7.33334)
(12.1226 0 7.73147)
(12.6024 0 8.09408)
(13.2076 0 8.40068)
(9.99951 0 0.160522)
(9.99788 0 0.318984)
(9.9951 0 0.477459)
(9.99149 0 0.637818)
(9.98751 0 0.801596)
(9.98359 0 0.970141)
(9.98023 0 1.14471)
(9.97802 0 1.32646)
(9.97762 0 1.51648)
(9.97981 0 1.71578)
(9.98547 0 1.92528)
(9.99562 0 2.14587)
(10.0114 0 2.37835)
(10.0341 0 2.62345)
(10.0654 0 2.88184)
(10.1068 0 3.15406)
(10.1604 0 3.44053)
(10.2286 0 3.74149)
(10.314 0 4.05691)
(10.4195 0 4.38642)
(10.5487 0 4.72916)
(10.7054 0 5.0836)
(10.8936 0 5.44735)
(11.1178 0 5.8169)
(11.3822 0 6.18733)
(11.6905 0 6.55209)
(12.0456 0 6.9029)
(12.4491 0 7.22944)
(12.8933 0 7.52057)
(13.4361 0 7.76499)
(10 0 0.160888)
(10.0001 0 0.319673)
(10.0004 0 0.478351)
(10.0011 0 0.638722)
(10.0025 0 0.80225)
(10.005 0 0.970216)
(10.0093 0 1.14379)
(10.0157 0 1.32404)
(10.0252 0 1.51195)
(10.0383 0 1.70841)
(10.056 0 1.9142)
(10.0794 0 2.13003)
(10.1095 0 2.35653)
(10.1477 0 2.59419)
(10.1954 0 2.84341)
(10.2544 0 3.10443)
(10.3266 0 3.37731)
(10.4139 0 3.66186)
(10.5189 0 3.95759)
(10.644 0 4.26363)
(10.7921 0 4.57859)
(10.9663 0 4.90045)
(11.1695 0 5.22642)
(11.4046 0 5.55277)
(11.6742 0 5.87478)
(11.9803 0 6.18657)
(12.3236 0 6.48129)
(12.7039 0 6.75111)
(13.1135 0 6.98767)
(13.6011 0 7.18414)
(10.0005 0 0.160465)
(10.0023 0 0.318794)
(10.0056 0 0.476887)
(10.0104 0 0.636463)
(10.017 0 0.798909)
(10.0259 0 0.965425)
(10.0374 0 1.13709)
(10.0522 0 1.31488)
(10.071 0 1.49967)
(10.0945 0 1.6922)
(10.1236 0 1.89313)
(10.1592 0 2.10301)
(10.2026 0 2.32227)
(10.2549 0 2.5512)
(10.3176 0 2.78994)
(10.3922 0 3.03847)
(10.4803 0 3.29654)
(10.5839 0 3.56363)
(10.705 0 3.83892)
(10.8456 0 4.12117)
(11.008 0 4.40869)
(11.1944 0 4.69923)
(11.4068 0 4.98991)
(11.6469 0 5.27714)
(11.9163 0 5.55664)
(12.2153 0 5.82343)
(12.5435 0 6.07197)
(12.8998 0 6.29638)
(13.2769 0 6.49062)
(13.7166 0 6.65051)
(10.001 0 0.159241)
(10.0044 0 0.316317)
(10.0106 0 0.473028)
(10.0194 0 0.630997)
(10.0311 0 0.791526)
(10.0459 0 0.955729)
(10.0644 0 1.12459)
(10.0871 0 1.29899)
(10.1147 0 1.47967)
(10.1479 0 1.66727)
(10.1876 0 1.8623)
(10.2346 0 2.06515)
(10.29 0 2.27607)
(10.355 0 2.49518)
(10.4309 0 2.7224)
(10.519 0 2.95748)
(10.6207 0 3.19992)
(10.7378 0 3.44899)
(10.8717 0 3.70361)
(11.0241 0 3.96235)
(11.1966 0 4.22339)
(11.3908 0 4.48444)
(11.6079 0 4.74272)
(11.8488 0 4.99499)
(12.1138 0 5.23752)
(12.4028 0 5.46622)
(12.7146 0 5.67675)
(13.0473 0 5.86478)
(13.3947 0 6.02605)
(13.7934 0 6.15807)
(10.0015 0 0.157205)
(10.0065 0 0.312229)
(10.0154 0 0.466755)
(10.028 0 0.622306)
(10.0444 0 0.780093)
(10.065 0 0.941136)
(10.0901 0 1.10633)
(10.1202 0 1.27643)
(10.156 0 1.4521)
(10.1982 0 1.63383)
(10.2475 0 1.82201)
(10.3048 0 2.01689)
(10.371 0 2.21856)
(10.4472 0 2.42697)
(10.5345 0 2.64188)
(10.6341 0 2.86285)
(10.7471 0 3.08923)
(10.8749 0 3.3201)
(11.0187 0 3.55427)
(11.1797 0 3.79024)
(11.3589 0 4.02615)
(11.5574 0 4.25983)
(11.7756 0 4.48875)
(12.014 0 4.71004)
(12.2722 0 4.92061)
(12.5495 0 5.11716)
(12.8444 0 5.29639)
(13.1549 0 5.45513)
(13.4757 0 5.59046)
(13.8391 0 5.7009)
(10.0019 0 0.154358)
(10.0084 0 0.306528)
(10.0199 0 0.458072)
(10.0361 0 0.610403)
(10.0571 0 0.764638)
(10.083 0 0.921703)
(10.1142 0 1.08239)
(10.1512 0 1.24737)
(10.1946 0 1.41717)
(10.2449 0 1.59219)
(10.303 0 1.77269)
(10.3694 0 1.95879)
(10.4452 0 2.15045)
(10.5311 0 2.3475)
(10.6281 0 2.54955)
(10.7372 0 2.75604)
(10.8593 0 2.96621)
(10.9954 0 3.17905)
(11.1464 0 3.39333)
(11.3131 0 3.60755)
(11.4962 0 3.81994)
(11.6961 0 4.02851)
(11.9129 0 4.23102)
(12.1465 0 4.42505)
(12.3963 0 4.60806)
(12.6612 0 4.77747)
(12.9396 0 4.93079)
(13.2295 0 5.06576)
(13.5264 0 5.1804)
(13.8593 0 5.27384)
(10.0024 0 0.150706)
(10.0102 0 0.299227)
(10.0241 0 0.447002)
(10.0438 0 0.595329)
(10.0689 0 0.745226)
(10.0997 0 0.897526)
(10.1366 0 1.05293)
(10.1799 0 1.21199)
(10.2302 0 1.37516)
(10.2879 0 1.54271)
(10.3537 0 1.71481)
(10.4282 0 1.89147)
(10.5122 0 2.07255)
(10.6063 0 2.25776)
(10.7114 0 2.44662)
(10.8281 0 2.6385)
(10.9573 0 2.83257)
(11.0996 0 3.0278)
(11.2555 0 3.22297)
(11.4256 0 3.41666)
(11.6102 0 3.60725)
(11.8093 0 3.79295)
(12.0228 0 3.97186)
(12.2502 0 4.14196)
(12.4906 0 4.30122)
(12.7429 0 4.44765)
(13.0055 0 4.57941)
(13.2765 0 4.6949)
(13.5521 0 4.79279)
(13.8587 0 4.87264)
(10.0027 0 0.14626)
(10.0119 0 0.290354)
(10.0281 0 0.433589)
(10.0508 0 0.577149)
(10.0798 0 0.721955)
(10.1152 0 0.868744)
(10.1572 0 1.01812)
(10.2062 0 1.17056)
(10.2626 0 1.3264)
(10.3269 0 1.48584)
(10.3995 0 1.64894)
(10.4809 0 1.81564)
(10.5719 0 1.9857)
(10.6729 0 2.15876)
(10.7844 0 2.3343)
(10.9072 0 2.51163)
(11.0416 0 2.68991)
(11.1881 0 2.86813)
(11.3471 0 3.04514)
(11.5186 0 3.21962)
(11.7029 0 3.39013)
(11.8996 0 3.55513)
(12.1084 0 3.713)
(12.3286 0 3.86212)
(12.5592 0 4.00088)
(12.7992 0 4.12778)
(13.0468 0 4.24146)
(13.3006 0 4.34081)
(13.5572 0 4.42496)
(13.8409 0 4.49376)
(10.0031 0 0.14104)
(10.0134 0 0.279945)
(10.0317 0 0.417893)
(10.0573 0 0.555954)
(10.0898 0 0.69495)
(10.1293 0 0.835528)
(10.1759 0 0.978205)
(10.23 0 1.12337)
(10.2918 0 1.27127)
(10.3618 0 1.42204)
(10.4402 0 1.57566)
(10.5276 0 1.73198)
(10.6243 0 1.89074)
(10.7308 0 2.05151)
(10.8475 0 2.21374)
(10.9747 0 2.37674)
(11.1128 0 2.53969)
(11.2619 0 2.70164)
(11.4223 0 2.86151)
(11.5938 0 3.01813)
(11.7762 0 3.17024)
(11.9694 0 3.31654)
(12.1725 0 3.4557)
(12.385 0 3.58641)
(12.6059 0 3.70743)
(12.8338 0 3.81762)
(13.0676 0 3.91602)
(13.3057 0 4.00186)
(13.5454 0 4.0746)
(13.809 0 4.13423)
(10.0034 0 0.135068)