/*--------------------------------*- C++ -*----------------------------------*\
  =========                 |
  \\      /  F ield         | OpenFOAM: The Open Source CFD Toolbox
   \\    /   O peration     | Website:  https://openfoam.org
    \\  /    A nd           | Version:  dev
     \\/     M anipulation  |
\*---------------------------------------------------------------------------*/
FoamFile
{
    version     2.0;
    format      ascii;
    class       surfaceVectorField;
    location    "4.4";
    object      Uf;
}
// * * * * * * * * * * * * * * * * * * * * * * * * * * * * * * * * * * * * * //

dimensions      [0 1 -1 0 0 0 0];

internalField   nonuniform List<vector> 
5457
(
(9.92088 0 0.0251096)
(9.97125 0 0.0387458)
(9.82401 0 0.0328268)
(9.92859 0 0.0485852)
(9.70961 0 0.039312)
(9.85548 0 0.0587682)
(9.57544 0 0.0460115)
(9.7568 0 0.0705933)
(9.42138 0 0.0529488)
(9.63753 0 0.0830133)
(9.24755 0 0.060166)
(9.49861 0 0.0959363)
(9.05362 0 0.0678106)
(9.3393 0 0.109612)
(8.83893 0 0.0760341)
(9.15874 0 0.124288)
(8.60253 0 0.0849696)
(8.9561 0 0.140166)
(8.34327 0 0.0947441)
(8.73039 0 0.157432)
(8.05986 0 0.105486)
(8.48041 0 0.176268)
(7.75082 0 0.117327)
(8.20478 0 0.196855)
(7.41458 0 0.130394)
(7.90196 0 0.21936)
(7.04952 0 0.144809)
(7.57033 0 0.243921)
(6.65406 0 0.160671)
(7.20821 0 0.270631)
(6.22675 0 0.178043)
(6.81403 0 0.299498)
(5.76647 0 0.196927)
(6.38637 0 0.330412)
(5.27263 0 0.217232)
(5.92422 0 0.363082)
(4.74543 0 0.238735)
(5.42716 0 0.396974)
(4.18627 0 0.261031)
(4.89572 0 0.431235)
(3.59804 0 0.283487)
(4.33171 0 0.464618)
(2.98563 0 0.305202)
(3.73868 0 0.495425)
(2.3562 0 0.325069)
(3.12236 0 0.521513)
(1.71918 0 0.342549)
(2.49115 0 0.54056)
(1.08442 0 0.361882)
(1.85594 0 0.551677)
(0.45191 0 0.348704)
(1.24555 0 0.563023)
(-0.145794 0 0.102494)
(0.609004 0 0.544907)
(-0.423606 0 -0.207097)
(0.0946863 0 0.259399)
(-0.402153 0 -0.361273)
(-0.133625 0 -0.0205163)
(-0.119682 0 -0.393884)
(9.99641 0 0.0516725)
(9.99705 0 0.0405047)
(9.95879 0 0.0708616)
(9.97851 0 0.0674545)
(9.89824 0 0.0879868)
(9.93377 0 0.08987)
(9.81659 0 0.105985)
(9.86453 0 0.113555)
(9.71359 0 0.124921)
(9.77438 0 0.138514)
(9.58909 0 0.144853)
(9.66435 0 0.164646)
(9.44274 0 0.166089)
(9.53397 0 0.192331)
(9.27391 0 0.188966)
(9.3825 0 0.222029)
(9.08167 0 0.213781)
(9.20919 0 0.254147)
(8.86491 0 0.240814)
(9.01316 0 0.289062)
(8.62231 0 0.270335)
(8.79332 0 0.32715)
(8.3524 0 0.302604)
(8.54837 0 0.368783)
(8.05358 0 0.337854)
(8.27685 0 0.414313)
(7.72414 0 0.376259)
(7.97719 0 0.464042)
(7.3624 0 0.417899)
(7.64774 0 0.518184)
(6.96676 0 0.462704)
(7.28686 0 0.576802)
(6.53587 0 0.510383)
(6.89299 0 0.639721)
(6.06888 0 0.56033)
(6.46486 0 0.706423)
(5.56565 0 0.611518)
(6.00165 0 0.775905)
(5.02717 0 0.662382)
(5.50332 0 0.84652)
(4.45595 0 0.710707)
(4.97096 0 0.915803)
(3.85657 0 0.75354)
(4.40726 0 0.980305)
(3.23627 0 0.787198)
(3.81712 0 1.03546)
(2.60589 0 0.807506)
(3.20854 0 1.07549)
(1.98287 0 0.810474)
(2.59347 0 1.09316)
(1.40535 0 0.776912)
(1.99628 0 1.07709)
(0.929813 0 0.646425)
(1.41956 0 0.978436)
(0.439917 0 0.384375)
(0.937619 0 0.716825)
(0.0592032 0 -0.118582)
(0.44385 0 0.343562)
(0.174931 0 -0.335898)
(9.98903 0 0.0594309)
(9.99481 0 0.0458775)
(9.95434 0 0.0894765)
(9.97368 0 0.0848543)
(9.89729 0 0.118032)
(9.92984 0 0.119174)
(9.82046 0 0.147898)
(9.86357 0 0.153976)
(9.72416 0 0.179421)
(9.77736 0 0.190408)
(9.60821 0 0.212774)
(9.67227 0 0.228636)
(9.47235 0 0.248391)
(9.5481 0 0.269128)
(9.31608 0 0.286772)
(9.40432 0 0.312495)
(9.13869 0 0.328394)
(9.24034 0 0.359323)
(8.93925 0 0.373718)
(9.05549 0 0.41017)
(8.71665 0 0.423201)
(8.8489 0 0.465593)
(8.46961 0 0.47729)
(8.61952 0 0.526146)
(8.19669 0 0.536391)
(8.36617 0 0.592364)
(7.89634 0 0.600833)
(8.08753 0 0.664728)
(7.56694 0 0.6708)
(7.78222 0 0.743606)
(7.20687 0 0.746245)
(7.44876 0 0.829176)
(6.81461 0 0.82677)
(7.08572 0 0.921305)
(6.38892 0 0.911471)
(6.69175 0 1.01939)
(5.92909 0 0.998747)
(6.26577 0 1.12216)
(5.4352 0 1.08608)
(5.80718 0 1.22741)
(4.90862 0 1.16982)
(5.31614 0 1.33174)
(4.35251 0 1.24489)
(4.79405 0 1.43018)
(3.77267 0 1.30455)
(4.24405 0 1.51588)
(3.17881 0 1.33985)
(3.67189 0 1.57943)
(2.58671 0 1.33814)
(3.0864 0 1.60776)
(2.01993 0 1.273)
(2.503 0 1.5816)
(1.48701 0 1.09545)
(1.92881 0 1.46428)
(0.958343 0 0.769212)
(1.3853 0 1.21045)
(0.479907 0 0.202507)
(0.829579 0 0.801094)
(0.433749 0 0.134141)
(9.98515 0 0.071614)
(9.99367 0 0.053148)
(9.95039 0 0.11363)
(9.97087 0 0.102291)
(9.89436 0 0.154133)
(9.92691 0 0.147954)
(9.81882 0 0.195573)
(9.86185 0 0.193721)
(9.72442 0 0.23881)
(9.77746 0 0.241277)
(9.61112 0 0.284323)
(9.67467 0 0.291162)
(9.47874 0 0.332718)
(9.55343 0 0.343954)
(9.32695 0 0.384671)
(9.41336 0 0.400369)
(9.15523 0 0.440842)
(9.254 0 0.461135)
(8.96291 0 0.501878)
(9.07484 0 0.526956)
(8.74917 0 0.568421)
(8.8752 0 0.598529)
(8.51305 0 0.641103)
(8.6543 0 0.676553)
(8.25347 0 0.72052)
(8.41124 0 0.76171)
(7.96928 0 0.807177)
(8.14501 0 0.854623)
(7.6592 0 0.901423)
(7.85456 0 0.955803)
(7.32195 0 1.00333)
(7.53878 0 1.06555)
(6.95624 0 1.11255)
(7.19649 0 1.18383)
(6.56089 0 1.22812)
(6.82657 0 1.31006)
(6.13494 0 1.34815)
(6.42794 0 1.4429)
(5.67791 0 1.46958)
(5.99972 0 1.57988)
(5.19007 0 1.58776)
(5.54141 0 1.71706)
(4.67294 0 1.69602)
(5.05313 0 1.84853)
(4.12988 0 1.78515)
(4.53604 0 1.96583)
(3.56674 0 1.84253)
(3.99281 0 2.05731)
(2.99213 0 1.85074)
(3.42768 0 2.10715)
(2.41592 0 1.78252)
(2.84771 0 2.09451)
(1.8406 0 1.6005)
(2.2563 0 1.98878)
(1.25943 0 1.27848)
(1.66037 0 1.7531)
(0.666796 0 0.789602)
(1.024 0 1.36783)
(0.52305 0 0.787227)
(9.98337 0 0.0844075)
(9.99316 0 0.0612915)
(9.94821 0 0.136837)
(9.96958 0 0.119927)
(9.89314 0 0.188032)
(9.92575 0 0.17624)
(9.81906 0 0.240168)
(9.86199 0 0.232698)
(9.72663 0 0.294466)
(9.77964 0 0.291086)
(9.6159 0 0.351657)
(9.6794 0 0.352272)
(9.48671 0 0.412467)
(9.56128 0 0.416974)
(9.33879 0 0.477671)
(9.42497 0 0.486004)
(9.17171 0 0.548044)
(9.27009 0 0.560198)
(8.98493 0 0.624346)
(9.0962 0 0.640378)
(8.77779 0 0.707333)
(8.90275 0 0.727357)
(8.54954 0 0.797751)
(8.68907 0 0.821943)
(8.29936 0 0.89631)
(8.45445 0 0.924926)
(8.02636 0 1.00363)
(8.19809 0 1.03704)
(7.72959 0 1.12018)
(7.91914 0 1.15889)
(7.40808 0 1.24614)
(7.61671 0 1.2909)
(7.0608 0 1.38125)
(7.28988 0 1.43312)
(6.68673 0 1.52456)
(6.93766 0 1.58508)
(6.2849 0 1.67416)
(6.55903 0 1.74548)
(5.85444 0 1.82677)
(6.15292 0 1.91186)
(5.39477 0 1.97724)
(5.71828 0 2.08014)
(4.90582 0 2.11804)
(5.25415 0 2.24407)
(4.38833 0 2.2386)
(4.75981 0 2.39459)
(3.84402 0 2.32455)
(4.23503 0 2.51919)
(3.27552 0 2.35697)
(3.67997 0 2.60125)
(2.68547 0 2.31063)
(3.0958 0 2.61973)
(2.07275 0 2.15506)
(2.48176 0 2.54737)
(1.42942 0 1.86747)
(1.83998 0 2.35379)
(0.742636 0 1.41965)
(1.1314 0 2.02461)
(0.543323 0 1.51459)
(9.98264 0 0.0974977)
(9.99299 0 0.0697929)
(9.94744 0 0.159775)
(9.96925 0 0.137583)
(9.89354 0 0.221347)
(9.92597 0 0.203926)
(9.82134 0 0.284091)
(9.86381 0 0.270687)
(9.73134 0 0.349346)
(9.78385 0 0.339581)
(9.62367 0 0.418016)
(9.68664 0 0.411695)
(9.49819 0 0.490934)
(9.57218 0 0.487899)
(9.35465 0 0.568968)
(9.44021 0 0.569099)
(9.19269 0 0.652996)
(9.29043 0 0.656226)
(9.01183 0 0.743887)
(9.12242 0 0.750204)
(8.81152 0 0.842503)
(8.93572 0 0.851945)
(8.59109 0 0.949693)
(8.72973 0 0.962351)
(8.34986 0 1.06627)
(8.50382 0 1.0823)
(8.08707 0 1.19294)
(8.25729 0 1.21262)
(7.80194 0 1.33028)
(7.98939 0 1.35402)
(7.49362 0 1.47857)
(7.69931 0 1.507)
(7.16122 0 1.63766)
(7.38619 0 1.67173)
(6.80376 0 1.80672)
(7.04906 0 1.84789)
(6.42016 0 1.98394)
(6.68679 0 2.03433)
(6.00918 0 2.16611)
(6.29806 0 2.22881)
(5.56947 0 2.34808)
(5.88125 0 2.42745)
(5.09953 0 2.52219)
(5.43441 0 2.62424)
(4.59782 0 2.67756)
(4.95519 0 2.81028)
(4.06278 0 2.7995)
(4.44093 0 2.97322)
(3.49278 0 2.86913)
(3.88861 0 3.09664)
(2.88591 0 2.86296)
(3.29532 0 3.15994)
(2.23808 0 2.754)
(2.65698 0 3.13797)
(1.54249 0 2.52112)
(1.97491 0 3.00328)
(0.793674 0 2.13144)
(1.20728 0 2.74071)
(0.556756 0 2.29195)
(9.9825 0 0.110626)
(9.99302 0 0.0783615)
(9.9477 0 0.182324)
(9.96954 0 0.155037)
(9.89522 0 0.253816)
(9.92722 0 0.230885)
(9.82524 0 0.326765)
(9.86697 0 0.307508)
(9.73813 0 0.402552)
(9.78977 0 0.38652)
(9.63403 0 0.48223)
(9.69605 0 0.469145)
(9.51285 0 0.566752)
(9.58579 0 0.556393)
(9.37438 0 0.657085)
(9.4588 0 0.649264)
(9.21828 0 0.754203)
(9.3148 0 0.748778)
(9.04414 0 0.859072)
(9.15346 0 0.855951)
(8.85145 0 0.972648)
(8.97434 0 0.971787)
(8.63963 0 1.09587)
(8.77691 0 1.09728)
(8.40803 0 1.22962)
(8.56059 0 1.2334)
(8.15596 0 1.37473)
(8.3247 0 1.38105)
(7.88266 0 1.53184)
(8.06854 0 1.54105)
(7.58729 0 1.70135)
(7.79127 0 1.71402)
(7.26893 0 1.88327)
(7.49198 0 1.90027)
(6.92646 0 2.07694)
(7.16957 0 2.09967)
(6.55856 0 2.28083)
(6.8227 0 2.31136)
(6.16352 0 2.49203)
(6.44964 0 2.53346)
(5.7392 0 2.70581)
(6.04816 0 2.76262)
(5.28281 0 2.91497)
(5.61532 0 2.99344)
(4.79092 0 3.10915)
(5.14733 0 3.21783)
(4.25939 0 3.27421)
(4.63948 0 3.42427)
(3.68348 0 3.39189)
(4.08616 0 3.59717)
(3.05814 0 3.43974)
(3.48142 0 3.71658)
(2.37781 0 3.39188)
(2.81846 0 3.7582)
(1.63797 0 3.22628)
(2.09924 0 3.69409)
(0.839162 0 2.90097)
(1.27897 0 3.50461)
(0.573384 0 3.11385)
(9.98273 0 0.123581)
(9.99316 0 0.0868175)
(9.94873 0 0.204309)
(9.97027 0 0.172093)
(9.89794 0 0.285251)
(9.92926 0 0.256975)
(9.83051 0 0.367964)
(9.87123 0 0.342987)
(9.74671 0 0.453849)
(9.79715 0 0.431676)
(9.64668 0 0.544073)
(9.70735 0 0.524347)
(9.53038 0 0.639701)
(9.6018 0 0.62213)
(9.39762 0 0.741791)
(9.48038 0 0.726119)
(9.24813 0 0.851404)
(9.34286 0 0.837415)
(9.08153 0 0.969593)
(9.18894 0 0.95712)
(8.89736 0 1.0974)
(9.01824 0 1.08633)
(8.6951 0 1.23586)
(8.8303 0 1.22612)
(8.47414 0 1.38596)
(8.62455 0 1.37756)
(8.23377 0 1.5486)
(8.40037 0 1.54166)
(7.97324 0 1.72457)
(8.15703 0 1.71935)
(7.69163 0 1.91441)
(7.89365 0 1.9114)
(7.38788 0 2.11831)
(7.60922 0 2.11832)
(7.06066 0 2.33593)
(7.30245 0 2.34025)
(6.70825 0 2.56608)
(6.97169 0 2.57672)
(6.32842 0 2.80645)
(6.61477 0 2.82639)
(5.91817 0 3.05301)
(6.22878 0 3.08666)
(5.47354 0 3.29951)
(5.80983 0 3.35314)
(4.98941 0 3.53664)
(5.35275 0 3.61896)
(4.45945 0 3.75142)
(4.85099 0 3.87399)
(3.87633 0 3.9265)
(4.29654 0 4.10396)
(3.23244 0 4.03992)
(3.68068 0 4.28973)
(2.52093 0 4.06508)
(2.99363 0 4.40686)
(1.73845 0 3.97626)
(2.23748 0 4.4247)
(0.889512 0 3.71891)
(1.36343 0 4.31645)
(0.598784 0 3.98508)
(9.98321 0 0.136203)
(9.99339 0 0.0950405)
(9.95032 0 0.225572)
(9.97131 0 0.188589)
(9.90151 0 0.315496)
(9.93193 0 0.282049)
(9.83694 0 0.407502)
(9.87643 0 0.376959)
(9.75684 0 0.503009)
(9.80579 0 0.474838)
(9.66135 0 0.603272)
(9.7203 0 0.577046)
(9.55046 0 0.709452)
(9.61995 0 0.684809)
(9.42403 0 0.822692)
(9.50465 0 0.799308)
(9.28184 0 0.944133)
(9.37422 0 0.921723)
(9.12356 0 1.07492)
(9.22843 0 1.05324)
(8.94879 0 1.21617)
(9.06695 0 1.19502)
(8.75705 0 1.36902)
(8.88938 0 1.34825)
(8.54777 0 1.53456)
(8.6952 0 1.51409)
(8.32026 0 1.71381)
(8.48383 0 1.69367)
(8.07371 0 1.9077)
(8.25452 0 1.88807)
(7.80716 0 2.11698)
(8.00638 0 2.09822)
(7.51935 0 2.34211)
(7.73828 0 2.32492)
(7.20872 0 2.58311)
(7.44876 0 2.56863)
(6.87316 0 2.83934)
(7.1359 0 2.8294)
(6.50984 0 3.10922)
(6.79707 0 3.10658)
(6.11497 0 3.38976)
(6.42876 0 3.39856)
(5.68342 0 3.67599)
(6.02614 0 3.70225)
(5.2085 0 3.96019)
(5.5828 0 4.01245)
(4.68178 0 4.23099)
(5.09035 0 4.32095)
(4.09332 0 4.47234)
(4.53831 0 4.6154)
(3.43255 0 4.66261)
(3.91475 0 4.87791)
(2.69017 0 4.77325)
(3.20573 0 5.08366)
(1.86188 0 4.77254)
(2.41132 0 5.19809)
(0.954197 0 4.58989)
(1.47631 0 5.18447)
(0.639207 0 4.91965)
(9.98386 0 0.148369)
(9.99368 0 0.102944)
(9.95235 0 0.245971)
(9.9726 0 0.204395)
(9.90578 0 0.344399)
(9.9351 0 0.30597)
(9.84437 0 0.445197)
(9.88241 0 0.40927)
(9.76833 0 0.549808)
(9.81552 0 0.515815)
(9.6778 0 0.659555)
(9.73471 0 0.627008)
(9.57281 0 0.775681)
(9.63999 0 0.744152)
(9.45327 0 0.899408)
(9.53129 0 0.868508)
(9.31902 0 1.03195)
(9.40853 0 1.00133)
(9.16978 0 1.17454)
(9.27151 0 1.14386)
(9.00522 0 1.32838)
(9.11999 0 1.29736)
(8.82492 0 1.49469)
(8.95361 0 1.4631)
(8.62835 0 1.67467)
(8.77194 0 1.64234)
(8.41485 0 1.86951)
(8.57443 0 1.83633)
(8.18362 0 2.08029)
(8.36038 0 2.04631)
(7.93362 0 2.308)
(8.1289 0 2.27345)
(7.6635 0 2.55345)
(7.87882 0 2.51882)
(7.37147 0 2.81712)
(7.60857 0 2.78334)
(7.0551 0 3.09905)
(7.31602 0 3.06762)
(6.71108 0 3.39859)
(6.99825 0 3.37189)
(6.33488 0 3.71402)
(6.65125 0 3.69571)
(5.92034 0 4.04205)
(6.26949 0 4.0376)
(5.45927 0 4.37703)
(5.8454 0 4.39447)
(4.94107 0 4.70987)
(5.3689 0 4.76069)
(4.35273 0 5.02655)
(4.82681 0 5.12673)
(3.67959 0 5.30623)
(4.20319 0 5.47709)
(2.90751 0 5.51827)
(3.47792 0 5.78754)
(2.02766 0 5.62315)
(2.64505 0 6.01962)
(1.04511 0 5.52963)
(1.63773 0 6.1241)
(0.704476 0 5.94327)
(9.98465 0 0.159982)
(9.99402 0 0.110463)
(9.95473 0 0.265382)
(9.97409 0 0.219401)
(9.91065 0 0.371821)
(9.93867 0 0.328613)
(9.85266 0 0.480883)
(9.88905 0 0.439776)
(9.781 0 0.594043)
(9.82618 0 0.554433)
(9.69581 0 0.712677)
(9.75038 0 0.674023)
(9.59716 0 0.838102)
(9.66166 0 0.799912)
(9.48502 0 0.971607)
(9.56002 0 0.933428)
(9.35927 0 1.11448)
(9.44543 0 1.07588)
(9.21973 0 1.26801)
(9.31776 0 1.2286)
(9.06612 0 1.4335)
(9.17684 0 1.3929)
(8.8981 0 1.61225)
(9.0224 0 1.57013)
(8.71521 0 1.8056)
(8.85409 0 1.76165)
(8.51686 0 2.01485)
(8.67145 0 1.96886)
(8.30226 0 2.24132)
(8.47385 0 2.19316)
(8.07041 0 2.48625)
(8.26045 0 2.43595)
(7.81991 0 2.75084)
(8.03013 0 2.69865)
(7.54887 0 3.03612)
(7.78132 0 2.98261)
(7.25468 0 3.34291)
(7.51186 0 3.28914)
(6.93374 0 3.67163)
(7.21873 0 3.61941)
(6.58101 0 4.0221)
(6.89769 0 3.97432)
(6.18956 0 4.39308)
(6.54282 0 4.35427)
(5.74989 0 4.78158)
(6.14582 0 4.75876)
(5.24924 0 5.18172)
(5.6952 0 5.18553)
(4.67107 0 5.58284)
(5.17521 0 5.62923)
(3.99503 0 5.96663)
(4.56522 0 6.07886)
(3.19852 0 6.30184)
(3.83645 0 6.51369)
(2.26184 0 6.54085)
(2.97092 0 6.89422)
(1.18064 0 6.56531)
(1.87919 0 7.15806)
(0.812827 0 7.09963)
(9.98553 0 0.170964)
(9.9944 0 0.117547)
(9.95738 0 0.283699)
(9.97572 0 0.23352)
(9.916 0 0.397636)
(9.94258 0 0.34987)
(9.86169 0 0.514411)
(9.89623 0 0.468352)
(9.79468 0 0.635533)
(9.83764 0 0.590539)
(9.71517 0 0.762425)
(9.76713 0 0.717907)
(9.62324 0 0.896461)
(9.68475 0 0.851871)
(9.51894 0 1.03899)
(9.59055 0 0.993811)
(9.4022 0 1.19136)
(9.48455 0 1.1451)
(9.27293 0 1.35493)
(9.36673 0 1.3071)
(9.13093 0 1.53106)
(9.23698 0 1.48121)
(8.97595 0 1.72116)
(9.09514 0 1.66885)
(8.80763 0 1.92666)
(8.94095 0 1.87147)
(8.62546 0 2.14904)
(8.77407 0 2.09059)
(8.42877 0 2.38978)
(8.594 0 2.32776)
(8.21662 0 2.65046)
(8.40002 0 2.58465)
(7.98771 0 2.93264)
(8.19114 0 2.86297)
(7.7402 0 3.23797)
(7.96596 0 3.16458)
(7.47153 0 3.56808)
(7.72246 0 3.49145)
(7.17805 0 3.9246)
(7.4578 0 3.84574)
(6.85463 0 4.30904)
(7.1679 0 4.22977)
(6.494 0 4.72256)
(6.84696 0 4.64601)
(6.08589 0 5.16546)
(6.48663 0 5.09689)
(5.61585 0 5.63626)
(6.07489 0 5.5844)
(5.0638 0 6.12981)
(5.59425 0 6.10902)
(4.40243 0 6.63382)
(5.01984 0 6.66757)
(3.59632 0 7.12132)
(4.31279 0 7.2486)
(2.60446 0 7.5408)
(3.43588 0 7.82033)
(1.39437 0 7.74067)
(2.25659 0 8.31527)
(1.00267 0 8.46533)
(9.9865 0 0.181253)
(9.9948 0 0.124157)
(9.96026 0 0.300833)
(9.97747 0 0.246681)
(9.92176 0 0.421734)
(9.94676 0 0.369647)
(9.87133 0 0.54565)
(9.90387 0 0.494886)
(9.80923 0 0.674121)
(9.84977 0 0.624003)
(9.73567 0 0.80861)
(9.78478 0 0.758504)
(9.6508 0 0.950537)
(9.70902 0 0.899841)
(9.55471 0 1.1013)
(9.62258 0 1.04944)
(9.44742 0 1.2623)
(9.52555 0 1.20871)
(9.3289 0 1.43493)
(9.41798 0 1.37907)
(9.19907 0 1.62064)
(9.29987 0 1.56195)
(9.05779 0 1.82091)
(9.17117 0 1.75885)
(8.9048 0 2.03726)
(9.03176 0 1.97128)
(8.73974 0 2.2713)
(8.88141 0 2.20087)
(8.5621 0 2.52473)
(8.7198 0 2.44933)
(8.37111 0 2.79938)
(8.54641 0 2.71851)
(8.16566 0 3.09722)
(8.3605 0 3.01045)
(7.94416 0 3.42045)
(8.16095 0 3.32742)
(7.70434 0 3.77153)
(7.94612 0 3.67204)
(7.44291 0 4.15329)
(7.71364 0 4.04737)
(7.15511 0 4.56899)
(7.46008 0 4.4571)
(6.83407 0 5.02237)
(7.18041 0 4.90572)
(6.46974 0 5.51754)
(6.86724 0 5.39876)
(6.04724 0 6.05864)
(6.50953 0 5.94292)
(5.54433 0 6.64871)
(6.09031 0 6.54611)
(4.92737 0 7.28702)
(5.58343 0 7.21675)
(4.14529 0 7.96153)
(4.94285 0 7.96159)
(3.12201 0 8.63378)
(4.10963 0 8.7758)
(1.75639 0 9.12815)
(2.87871 0 9.62121)
(1.36487 0 10.1856)
(9.98754 0 0.1908)
(9.99523 0 0.130261)
(9.96332 0 0.316708)
(9.97932 0 0.258825)
(9.92785 0 0.444023)
(9.95115 0 0.387869)
(9.88147 0 0.574489)
(9.91187 0 0.519286)
(9.82448 0 0.709678)
(9.86243 0 0.654714)
(9.75712 0 0.851082)
(9.80317 0 0.795682)
(9.67957 0 1.00016)
(9.73424 0 0.943671)
(9.592 0 1.15834)
(9.65581 0 1.10014)
(9.4945 0 1.32706)
(9.56804 0 1.26652)
(9.38714 0 1.50776)
(9.47106 0 1.44426)
(9.26994 0 1.70194)
(9.36498 0 1.63484)
(9.14288 0 1.91111)
(9.24985 0 1.83978)
(9.00586 0 2.13691)
(9.1257 0 2.06067)
(8.85869 0 2.38104)
(8.99249 0 2.2992)
(8.70106 0 2.64537)
(8.85009 0 2.5572)
(8.53247 0 2.93195)
(8.69826 0 2.83668)
(8.35212 0 3.2431)
(8.53656 0 3.13991)
(8.15886 0 3.5815)
(8.36431 0 3.46951)
(7.95094 0 3.95034)
(8.18044 0 3.8286)
(7.72583 0 4.35351)
(7.98337 0 4.22098)
(7.47977 0 4.79585)
(7.77073 0 4.65145)
(7.2072 0 5.28357)
(7.53904 0 5.12622)
(6.89974 0 5.82464)
(7.28305 0 5.6535)
(6.54443 0 6.42944)
(6.99479 0 6.24443)
(6.12053 0 7.11137)
(6.66153 0 6.91453)
(5.59329 0 7.88758)
(6.26271 0 7.68607)
(4.90119 0 8.77796)
(5.75789 0 8.59255)
(3.9272 0 9.80176)
(5.08775 0 9.68523)
(2.43348 0 10.8572)
(3.97996 0 11.0497)
(2.14655 0 12.5691)
(9.98861 0 0.199564)
(9.99567 0 0.135836)
(9.96652 0 0.331263)
(9.98124 0 0.269908)
(9.9342 0 0.46442)
(9.9557 0 0.404474)
(9.89202 0 0.600822)
(9.92016 0 0.541477)
(9.8403 0 0.742066)
(9.87552 0 0.682583)
(9.77931 0 0.889668)
(9.82215 0 0.829338)
(9.70931 0 1.04511)
(9.76027 0 0.98324)
(9.63049 0 1.20984)
(9.69009 0 1.14576)
(9.54306 0 1.38533)
(9.61184 0 1.31836)
(9.44715 0 1.57304)
(9.52575 0 1.5025)
(9.34293 0 1.77449)
(9.43204 0 1.69967)
(9.23049 0 1.99124)
(9.3309 0 1.9114)
(9.10992 0 2.22498)
(9.2225 0 2.13934)
(8.98122 0 2.47749)
(9.10701 0 2.38519)
(8.84435 0 2.75074)
(8.98453 0 2.65087)
(8.6991 0 3.04697)
(8.85512 0 2.93848)
(8.54513 0 3.36872)
(8.71875 0 3.25044)
(8.38185 0 3.71902)
(8.57526 0 3.58956)
(8.20828 0 4.10159)
(8.42432 0 3.95929)
(8.02298 0 4.52109)
(8.26534 0 4.36388)
(7.82377 0 4.98356)
(8.09743 0 4.80881)
(7.60734 0 5.49704)
(7.91922 0 5.3013)
(7.36869 0 6.07259)
(7.72874 0 5.85123)
(7.09989 0 6.72588)
(7.52313 0 6.47253)
(6.78779 0 7.48009)
(7.29814 0 7.18578)
(6.40884 0 8.37198)
(7.04832 0 8.02338)
(5.91602 0 9.46603)
(6.76348 0 9.04184)
(5.19672 0 10.9086)
(6.46268 0 10.3569)
(3.88515 0 13.1797)
(6.191 0 12.3039)
(5.26085 0 16.3743)
(0.191797 0 -0.117127)
(0.111205 0 -0.187854)
(0.375827 0 -0.100576)
(0.271348 0 -0.175988)
(0.529537 0 -0.0786982)
(0.432626 0 -0.143522)
(0.653016 0 -0.0595625)
(0.57076 0 -0.112572)
(0.751217 0 -0.0443634)
(0.68199 0 -0.0874123)
(0.829288 0 -0.0326646)
(0.771087 0 -0.0678521)
(0.891636 0 -0.0238085)
(0.843545 0 -0.0529074)
(0.941916 0 -0.0172137)
(0.903597 0 -0.0416589)
(0.983115 0 -0.0123932)
(0.954326 0 -0.0333291)
(1.01764 0 -0.00894305)
(0.998091 0 -0.0272674)
(1.04738 0 -0.00652942)
(1.03676 0 -0.0229392)
(1.07381 0 -0.00487124)
(1.07181 0 -0.0199009)
(1.09798 0 -0.00372223)
(1.10434 0 -0.017768)
(1.12053 0 -0.00286067)
(1.13512 0 -0.0161922)
(1.14173 0 -0.00209026)
(1.1646 0 -0.0148562)
(1.16144 0 -0.00125373)
(1.1929 0 -0.0134874)
(1.17923 0 -0.000255105)
(1.21987 0 -0.0118897)
(1.19453 0 0.000923605)
(1.24513 0 -0.00998225)
(1.2068 0 0.0022345)
(1.26823 0 -0.00781353)
(1.21567 0 0.00361221)
(1.28877 0 -0.00551732)
(1.22097 0 0.00500613)
(1.30659 0 -0.00321695)
(1.22266 0 0.00633532)
(1.32162 0 -0.00100286)
(1.22044 0 0.0075498)
(1.33373 0 0.001286)
(1.21404 0 0.00864206)
(1.34251 0 0.00361933)
(1.20346 0 0.00945583)
(1.34754 0 0.00583739)
(1.18955 0 0.00970904)
(1.34871 0 0.00749664)
(1.17404 0 0.0091796)
(1.34678 0 0.00815818)
(1.15931 0 0.00779263)
(1.34383 0 0.0075668)
(1.14784 0 0.00532303)
(1.34197 0 0.00575217)
(1.34326 0 0.00257805)
(0.173551 0 -0.273268)
(0.0902842 0 -0.357837)
(0.342172 0 -0.241793)
(0.235641 0 -0.337241)
(0.485623 0 -0.195249)
(0.373348 0 -0.277465)
(0.604087 0 -0.153851)
(0.492102 0 -0.220571)
(0.702148 0 -0.120896)
(0.589077 0 -0.1747)
(0.784298 0 -0.0955252)
(0.668863 0 -0.13925)
(0.854175 0 -0.0762857)
(0.735944 0 -0.112204)
(0.914656 0 -0.0618873)
(0.793548 0 -0.0917701)
(0.968018 0 -0.0512628)
(0.843978 0 -0.0764977)
(1.01606 0 -0.0435391)
(0.888986 0 -0.0652135)
(1.06019 0 -0.038004)
(0.929951 0 -0.0569735)
(1.1015 0 -0.0340644)
(0.967962 0 -0.0510088)
(1.14081 0 -0.0312061)
(1.00385 0 -0.0466672)
(1.17867 0 -0.0289686)
(1.03823 0 -0.0433724)
(1.21541 0 -0.0269428)
(1.0715 0 -0.0406052)
(1.2511 0 -0.0247946)
(1.10388 0 -0.037913)
(1.28562 0 -0.0223103)
(1.13536 0 -0.0349516)
(1.31868 0 -0.0194399)
(1.16579 0 -0.0315517)
(1.35 0 -0.0162899)
(1.19488 0 -0.027767)
(1.37945 0 -0.0130302)
(1.22235 0 -0.0238279)
(1.40702 0 -0.00976593)
(1.24813 0 -0.0199601)
(1.43256 0 -0.00648167)
(1.27238 0 -0.0161491)
(1.45571 0 -0.00310009)
(1.29521 0 -0.0121128)
(1.47585 0 0.000330691)
(1.31648 0 -0.00776767)
(1.4925 0 0.00346121)
(1.33574 0 -0.00334972)
(1.50557 0 0.00567879)
(1.35245 0 0.000454097)
(1.5161 0 0.00644465)
(1.36629 0 0.00261735)
(1.52604 0 0.00565291)
(1.37745 0 0.00246334)
(1.5366 0 0.00362172)
(1.38675 0 0.00045359)
(1.39726 0 -0.00167332)
(0.143138 0 -0.428869)
(0.0684138 0 -0.498032)
(0.277297 0 -0.380408)
(0.186282 0 -0.465538)
(0.389037 0 -0.309773)
(0.286424 0 -0.381799)
(0.480459 0 -0.247364)
(0.372614 0 -0.303918)
(0.556044 0 -0.197875)
(0.441328 0 -0.241981)
(0.619645 0 -0.159765)
(0.497725 0 -0.194526)
(0.674121 0 -0.130722)
(0.54519 0 -0.158431)
(0.721593 0 -0.108771)
(0.585886 0 -0.131103)
(0.763697 0 -0.0923348)
(0.621333 0 -0.110559)
(0.801728 0 -0.0801486)
(0.652717 0 -0.0952526)
(0.836713 0 -0.0711906)
(0.68099 0 -0.0839546)
(0.869461 0 -0.0646164)
(0.706909 0 -0.0756677)
(0.900587 0 -0.0597002)
(0.731068 0 -0.069552)
(0.93054 0 -0.0557988)
(0.753923 0 -0.064874)
(0.959605 0 -0.05234)
(0.775819 0 -0.0609767)
(0.987901 0 -0.0488448)
(0.796996 0 -0.0572767)
(1.01537 0 -0.0449889)
(0.817566 0 -0.0533049)
(1.0418 0 -0.0406769)
(0.837489 0 -0.0487959)
(1.06694 0 -0.0360642)
(0.85653 0 -0.0437818)
(1.09068 0 -0.0314364)
(0.874345 0 -0.038589)
(1.11316 0 -0.0269383)
(0.890696 0 -0.033611)
(1.13474 0 -0.0223576)
(0.905842 0 -0.0289483)
(1.15575 0 -0.0173384)
(0.920455 0 -0.024273)
(1.17605 0 -0.0118941)
(0.935036 0 -0.0192456)
(1.19524 0 -0.00666709)
(0.949256 0 -0.0139384)
(1.21257 0 -0.0027937)
(0.962238 0 -0.00888289)
(1.22692 0 -0.00135336)
(0.972854 0 -0.00493158)
(1.23755 0 -0.00261126)
(0.97913 0 -0.00299905)
(1.24583 0 -0.00504194)
(0.980627 0 -0.00369984)
(0.977951 0 -0.00471603)
(0.110033 0 -0.544971)
(0.0467233 0 -0.605802)
(0.203931 0 -0.477599)
(0.131038 0 -0.555333)
(0.277597 0 -0.386517)
(0.187432 0 -0.450583)
(0.336059 0 -0.308237)
(0.237202 0 -0.357215)
(0.383373 0 -0.247114)
(0.272846 0 -0.284097)
(0.422726 0 -0.200421)
(0.301152 0 -0.228728)
(0.456014 0 -0.164898)
(0.323986 0 -0.186679)
(0.484519 0 -0.137978)
(0.342516 0 -0.15472)
(0.509223 0 -0.117712)
(0.357546 0 -0.130544)
(0.530921 0 -0.10258)
(0.369784 0 -0.112391)
(0.550259 0 -0.091362)
(0.379808 0 -0.0988686)
(0.567761 0 -0.0830527)
(0.388072 0 -0.0888462)
(0.583844 0 -0.0767947)
(0.394952 0 -0.0813768)
(0.598851 0 -0.0718362)
(0.40078 0 -0.0756466)
(0.613061 0 -0.0675067)
(0.405861 0 -0.0709363)
(0.626674 0 -0.0632259)
(0.410492 0 -0.066593)
(0.639769 0 -0.0585646)
(0.414925 0 -0.0620548)
(0.652234 0 -0.0533462)
(0.419323 0 -0.0569276)
(0.663768 0 -0.0477275)
(0.423516 0 -0.0511292)
(0.674058 0 -0.0421339)
(0.427074 0 -0.0449888)
(0.683117 0 -0.0369988)
(0.42911 0 -0.039112)
(0.691426 0 -0.0324105)
(0.429498 0 -0.0338744)
(0.699575 0 -0.0280073)
(0.428141 0 -0.0289908)
(0.707821 0 -0.0232957)
(0.426044 0 -0.0239065)
(0.715683 0 -0.0180259)
(0.423659 0 -0.0182775)
(0.721775 0 -0.0124854)
(0.420917 0 -0.0121656)
(0.724047 0 -0.00750432)
(0.418895 0 -0.006127)
(0.720879 0 -0.00425047)
(0.414813 0 -0.0013713)
(0.712089 0 -0.00310585)
(0.409974 0 0.000708938)
(0.397253 0 -0.0022127)
(0.0719495 0 -0.624111)
(0.0239367 0 -0.676272)
(0.121505 0 -0.536512)
(0.0693345 0 -0.602723)
(0.15381 0 -0.429078)
(0.0781206 0 -0.480748)
(0.176012 0 -0.340028)
(0.0892975 0 -0.377455)
(0.191319 0 -0.271631)
(0.0886456 0 -0.297723)
(0.202273 0 -0.21983)
(0.0854989 0 -0.238248)
(0.20982 0 -0.180379)
(0.0796301 0 -0.193083)
(0.214552 0 -0.150332)
(0.0717946 0 -0.158641)
(0.216995 0 -0.127565)
(0.0623799 0 -0.13252)
(0.217586 0 -0.11044)
(0.051835 0 -0.112858)
(0.216678 0 -0.0976453)
(0.040495 0 -0.0981679)
(0.214565 0 -0.0881069)
(0.0286027 0 -0.0872556)
(0.21151 0 -0.0809157)
(0.0163797 0 -0.0791308)
(0.207759 0 -0.0752794)
(0.00403947 0 -0.0729535)
(0.203571 0 -0.0704859)
(-0.00820182 0 -0.0680011)
(0.199238 0 -0.0658912)
(-0.0200851 0 -0.0636278)
(0.195027 0 -0.0609553)
(-0.0313059 0 -0.0592412)
(0.191043 0 -0.055339)
(-0.0415379 0 -0.0543285)
(0.187025 0 -0.0490267)
(-0.0507076 0 -0.0485695)
(0.182188 0 -0.0423347)
(-0.0590239 0 -0.0419808)
(0.175395 0 -0.0356854)
(-0.06734 0 -0.0349867)
(0.16588 0 -0.0292639)
(-0.076208 0 -0.0282327)
(0.153941 0 -0.0229519)
(-0.0865496 0 -0.0220797)
(0.140779 0 -0.0166151)
(-0.0979975 0 -0.0164669)
(0.12804 0 -0.0104287)
(-0.109984 0 -0.0112467)
(0.117389 0 -0.00466829)
(-0.121655 0 -0.00642662)
(0.108427 0 0.000237834)
(-0.13104 0 -0.0014119)
(0.101346 0 0.00334251)
(-0.138342 0 0.00226632)
(0.0954346 0 0.00129561)
(-0.143436 0 0.00367396)
(-0.152942 0 -3.03393e-05)
(0.0282841 0 -0.661182)
(-0.00137814 0 -0.703975)
(0.0304572 0 -0.552754)
(8.27583e-05 0 -0.604801)
(0.0189995 0 -0.432954)
(-0.0393603 0 -0.470049)
(0.00315321 0 -0.337062)
(-0.0692029 0 -0.363009)
(-0.0159138 0 -0.264513)
(-0.107152 0 -0.280751)
(-0.036778 0 -0.210672)
(-0.144065 0 -0.220115)
(-0.05877 0 -0.16989)
(-0.180554 0 -0.174421)
(-0.0812709 0 -0.139027)
(-0.215771 0 -0.139998)
(-0.10389 0 -0.115815)
(-0.249418 0 -0.114222)
(-0.126358 0 -0.0984871)
(-0.281226 0 -0.095111)
(-0.148497 0 -0.0856516)
(-0.311097 0 -0.0810937)
(-0.170171 0 -0.0761866)
(-0.339077 0 -0.0709357)
(-0.191264 0 -0.0691483)
(-0.365255 0 -0.0636226)
(-0.211676 0 -0.0637336)
(-0.389739 0 -0.0583009)
(-0.231272 0 -0.0592609)
(-0.412612 0 -0.0542661)
(-0.249838 0 -0.0551445)
(-0.433879 0 -0.0509226)
(-0.267055 0 -0.050869)
(-0.453408 0 -0.0477371)
(-0.282596 0 -0.0460219)
(-0.470965 0 -0.0441895)
(-0.296286 0 -0.0404143)
(-0.486384 0 -0.0398493)
(-0.308247 0 -0.0342027)
(-0.499746 0 -0.0345417)
(-0.318975 0 -0.0278371)
(-0.511465 0 -0.0284718)
(-0.329231 0 -0.0218127)
(-0.522202 0 -0.0221518)
(-0.339592 0 -0.0163767)
(-0.532711 0 -0.0160816)
(-0.350108 0 -0.0114651)
(-0.543466 0 -0.0105231)
(-0.36051 0 -0.00690798)
(-0.554571 0 -0.00550623)
(-0.370623 0 -0.00256369)
(-0.56534 0 -0.000977121)
(-0.379035 0 0.00128029)
(-0.57447 0 0.00301374)
(-0.385549 0 0.00357478)
(-0.581522 0 0.00561297)
(-0.389724 0 0.00300433)
(-0.588201 0 0.00576794)
(-0.594439 0 0.00263923)
(-0.0212006 0 -0.649784)
(-0.0315666 0 -0.68321)
(-0.0674376 0 -0.52216)
(-0.0773022 0 -0.560584)
(-0.121525 0 -0.396604)
(-0.163383 0 -0.419546)
(-0.17795 0 -0.300904)
(-0.235042 0 -0.311568)
(-0.233449 0 -0.229837)
(-0.308967 0 -0.231349)
(-0.287095 0 -0.177465)
(-0.378118 0 -0.173491)
(-0.337585 0 -0.138645)
(-0.44177 0 -0.131577)
(-0.384446 0 -0.109962)
(-0.499272 0 -0.101171)
(-0.427472 0 -0.0890198)
(-0.55075 0 -0.0794152)
(-0.466664 0 -0.0739593)
(-0.596655 0 -0.0641545)
(-0.502219 0 -0.0633029)
(-0.637526 0 -0.0536735)
(-0.534454 0 -0.0558842)
(-0.673995 0 -0.0466625)
(-0.563735 0 -0.0507558)
(-0.706678 0 -0.0420949)
(-0.590405 0 -0.047146)
(-0.736131 0 -0.039156)
(-0.614722 0 -0.0444283)
(-0.762808 0 -0.0372227)
(-0.636825 0 -0.0420849)
(-0.787019 0 -0.0357965)
(-0.656684 0 -0.0396336)
(-0.808866 0 -0.0344679)
(-0.674217 0 -0.0365906)
(-0.828281 0 -0.0327507)
(-0.689475 0 -0.0325791)
(-0.845243 0 -0.0301303)
(-0.702774 0 -0.0275018)
(-0.859979 0 -0.0262703)
(-0.714707 0 -0.0216293)
(-0.873015 0 -0.0212256)
(-0.725991 0 -0.0154738)
(-0.885065 0 -0.0154612)
(-0.737189 0 -0.00954685)
(-0.896812 0 -0.00959902)
(-0.748536 0 -0.00419824)
(-0.908711 0 -0.00410962)
(-0.759737 0 0.000411534)
(-0.920296 0 0.000675524)
(-0.76968 0 0.00412137)
(-0.930922 0 0.00438051)
(-0.777883 0 0.00656212)
(-0.939913 0 0.00732963)
(-0.784931 0 0.00699726)
(-0.948247 0 0.00923344)
(-0.790835 0 0.00502645)
(-0.955822 0 0.00872923)
(-0.960725 0 0.0059479)
(-0.0742981 0 -0.588948)
(-0.0684831 0 -0.61044)
(-0.170953 0 -0.449983)
(-0.163801 0 -0.468153)
(-0.268392 0 -0.325247)
(-0.297635 0 -0.328565)
(-0.363205 0 -0.232875)
(-0.408994 0 -0.225131)
(-0.45167 0 -0.167022)
(-0.5143 0 -0.152603)
(-0.532004 0 -0.121158)
(-0.60909 0 -0.103671)
(-0.603246 0 -0.0891606)
(-0.692818 0 -0.0711217)
(-0.665713 0 -0.0668433)
(-0.765541 0 -0.0494145)
(-0.720206 0 -0.0515964)
(-0.826983 0 -0.035332)
(-0.767767 0 -0.0415476)
(-0.879362 0 -0.0265873)
(-0.809467 0 -0.0352046)
(-0.924439 0 -0.021514)
(-0.846268 0 -0.0314313)
(-0.963734 0 -0.0189514)
(-0.878992 0 -0.0293511)
(-0.998448 0 -0.0180362)
(-0.908316 0 -0.0283019)
(-1.02953 0 -0.0181056)
(-0.934735 0 -0.0277908)
(-1.05766 0 -0.0187054)
(-0.95862 0 -0.0274559)
(-1.08333 0 -0.0194512)
(-0.980037 0 -0.026935)
(-1.1065 0 -0.0201577)
(-0.998959 0 -0.0257424)
(-1.12709 0 -0.020406)
(-1.0155 0 -0.0233978)
(-1.14509 0 -0.0195923)
(-1.03007 0 -0.019668)
(-1.1608 0 -0.0172114)
(-1.04331 0 -0.014741)
(-1.17487 0 -0.0131871)
(-1.0559 0 -0.00917106)
(-1.18811 0 -0.00799129)
(-1.06843 0 -0.00367952)
(-1.20125 0 -0.00234924)
(-1.08058 0 0.00111593)
(-1.21387 0 0.00276152)
(-1.09157 0 0.00502477)
(-1.22562 0 0.00673578)
(-1.10153 0 0.0081954)
(-1.23622 0 0.00974826)
(-1.11063 0 0.0104599)
(-1.24608 0 0.0121172)
(-1.11865 0 0.0109487)
(-1.25531 0 0.0133563)
(-1.1261 0 0.00936021)
(-1.26341 0 0.0124661)
(-1.26787 0 0.0101022)
(-0.134831 0 -0.475364)
(-0.116121 0 -0.478381)