/*--------------------------------*- C++ -*----------------------------------*\
  =========                 |
  \\      /  F ield         | OpenFOAM: The Open Source CFD Toolbox
   \\    /   O peration     | Website:  https://openfoam.org
    \\  /    A nd           | Version:  dev
     \\/     M anipulation  |
\*---------------------------------------------------------------------------*/
FoamFile
{
    version     2.0;
    format      ascii;
    class       volScalarField;
    location    "5.3";
    object      p;
}
// * * * * * * * * * * * * * * * * * * * * * * * * * * * * * * * * * * * * * //

dimensions      [0 2 -2 0 0 0 0];

internalField   nonuniform List<scalar> 
2790
(
146.973
146.88
147.148
147.719
148.499
149.456
150.588
151.895
153.372
155.013
156.812
158.763
160.857
163.082
165.422
167.858
170.362
172.901
175.433
177.907
180.265
182.443
184.373
185.994
187.254
188.128
188.564
188.619
188.67
188.883
146.77
146.788
147.08
147.648
148.425
149.379
150.507
151.807
153.276
154.909
156.699
158.64
160.723
162.936
165.266
167.691
170.187
172.721
175.251
177.729
180.097
182.292
184.247
185.895
187.18
188.054
188.451
188.506
188.638
188.923
146.572
146.659
146.971
147.528
148.292
149.233
150.346
151.628
153.076
154.684
156.446
158.355
160.403
162.579
164.867
167.249
169.701
172.192
174.684
177.131
179.481
181.674
183.646
185.336
186.687
187.663
188.256
188.611
188.926
189.225
146.347
146.465
146.789
147.338
148.087
149.012
150.105
151.363
152.782
154.357
156.08
157.946
159.944
162.065
164.293
166.611
168.996
171.419
173.846
176.236
178.543
180.715
182.697
184.437
185.891
187.043
187.911
188.582
189.135
189.654
146.086
146.218
146.551
147.092
147.824
148.728
149.796
151.023
152.405
153.936
155.61
157.419
159.355
161.406
163.558
165.793
168.091
170.426
172.768
175.081
177.326
179.461
181.443
183.234
184.804
186.147
187.277
188.24
189.051
189.798
145.785
145.923
146.258
146.79
147.502
148.38
149.416
150.605
151.942
153.422
155.037
156.779
158.64
160.608
162.669
164.807
167.002
169.231
171.468
173.684
175.846
177.924
179.886
181.706
183.369
184.871
186.217
187.423
188.443
189.361
145.442
145.582
145.913
146.432
147.121
147.969
148.968
150.113
151.399
152.819
154.366
156.032
157.807
159.679
161.637
163.662
165.738
167.844
169.957
172.053
174.108
176.099
178.007
179.817
181.523
183.124
184.617
185.997
187.161
188.208
145.058
145.195
145.519
146.022
146.685
147.499
148.456
149.552
150.779
152.132
153.603
155.182
156.861
158.627
160.467
162.366
164.307
166.271
168.239
170.191
172.108
173.976
175.783
177.525
179.203
180.822
182.377
183.849
185.099
186.25
144.632
144.765
145.079
145.561
146.196
146.972
147.883
148.924
150.087
151.366
152.752
154.237
155.809
157.457
159.168
160.926
162.716
164.519
166.318
168.097
169.841
171.539
173.187
174.787
176.349
177.884
179.392
180.863
182.134
183.372
144.165
144.293
144.594
145.054
145.657
146.391
147.252
148.233
149.327
150.525
151.82
153.202
154.658
156.179
157.748
159.352
160.974
162.596
164.202
165.775
167.304
168.778
170.196
171.564
172.897
174.216
175.536
176.874
178.074
179.379
143.66
143.781
144.067
144.502
145.07
145.761
146.568
147.484
148.503
149.616
150.813
152.084
153.418
154.801
156.218
157.654
159.091
160.513
161.899
163.234
164.502
165.692
166.799
167.827
168.791
169.72
170.65
171.649
172.611
173.93
143.118
143.232
143.5
143.909
144.44
145.083
145.833
146.682
147.622
148.644
149.738
150.893
152.096
153.333
154.588
155.845
157.083
158.284
159.426
160.488
161.45
162.292
163
163.566
163.992
164.303
164.546
164.854
165.236
166.41
142.541
142.647
142.897
143.277
143.769
144.363
145.053
145.831
146.689
147.616
148.603
149.636
150.702
151.787
152.872
153.938
154.965
155.929
156.804
157.563
158.176
158.611
158.833
158.808
158.505
157.907
157.033
156.042
155.095
155.6
141.931
142.03
142.26
142.609
143.06
143.603
144.231
144.936
145.708
146.538
147.414
148.322
149.247
150.174
151.082
151.951
152.756
153.47
154.062
154.493
154.723
154.7
154.362
153.63
152.407
150.578
148.016
144.716
140.77
138.736
141.292
141.382
141.592
141.91
142.318
142.808
143.372
144.002
144.687
145.417
146.179
146.959
147.74
148.506
149.234
149.9
150.478
150.934
151.23
151.32
151.147
150.637
149.692
148.177
145.898
142.566
137.724
130.711
120.254
108.04
1.07638
1.05806
0.995266
0.909018
0.81979
0.737193
0.663952
0.599979
0.544268
0.495514
0.452352
0.413506
0.37786
0.344485
0.312628
0.281715
0.251362
0.2214
0.191897
0.163158
0.135674
0.11001
0.0866497
0.0658992
0.0481824
0.0333617
0.0212937
0.0118946
0.00506588
9.95156e-05
1.03275
1.0119
0.952707
0.873284
0.791358
0.715142
0.647063
0.587162
0.53462
0.488297
0.446985
0.409542
0.374956
0.342363
0.311058
0.280493
0.250303
0.220333
0.190681
0.161707
0.133981
0.108158
0.0848464
0.0644894
0.0469882
0.0323016
0.020364
0.0111413
0.00469485
0.00139074
0.984566
0.959526
0.902563
0.829681
0.755736
0.68688
0.624957
0.570051
0.521481
0.478251
0.439317
0.403693
0.370487
0.338925
0.30836
0.278282
0.248347
0.218421
0.188644
0.159453
0.131516
0.105591
0.0823237
0.0620677
0.0447606
0.0302322
0.0182706
0.00909002
0.00331144
0.00158637
0.938386
0.909071
0.853694
0.786524
0.720082
0.65824
0.602253
0.552208
0.507566
0.467435
0.430911
0.39715
0.365374
0.334898
0.305135
0.275616
0.246019
0.216231
0.186429
0.157112
0.129038
0.103043
0.0798189
0.059717
0.0426633
0.028398
0.0166612
0.00766908
0.00196643
3.27048e-05
0.906793
0.87329
0.819461
0.756522
0.695636
0.638752
0.586864
0.54009
0.498083
0.460039
0.425147
0.392649
0.361841
0.332094
0.302869
0.27373
0.244371
0.214696
0.184913
0.15557
0.127479
0.101505
0.0783598
0.0583846
0.0414783
0.0274009
0.0157973
0.00696731
0.00192372
-0.000115504
0.901065
0.86235
0.809454
0.747983
0.689135
0.633753
0.582989
0.537095
0.495685
0.458076
0.423523
0.391285
0.360663
0.331037
0.301888
0.272799
0.243473
0.21384
0.184125
0.154894
0.12695
0.101112
0.0780656
0.0581716
0.04133
0.0274301
0.0162222
0.00734864
0.00153498
-0.000380022
0.931361
0.884911
0.829591
0.764689
0.70235
0.643928
0.590653
0.542785
0.499788
0.460932
0.425395
0.392375
0.361132
0.331004
0.301478
0.272154
0.242732
0.213168
0.183677
0.154775
0.127195
0.101649
0.0787665
0.0590189
0.0422166
0.0279753
0.0163119
0.00729755
0.00131956
-0.000422496
1.00356
0.945782
0.879367
0.803747
0.731678
0.665566
0.60627
0.553655
0.507114
0.465675
0.428246
0.393841
0.361579
0.330653
0.300529
0.270847
0.241322
0.211996
0.183044
0.154837
0.12792
0.10278
0.0798166
0.0595854
0.0425372
0.0285041
0.0168508
0.00728141
0.000746275
-0.000541303
1.11762
1.03706
0.949448
0.855142
0.767932
0.69122
0.624627
0.566287
0.514989
0.469985
0.42998
0.39376
0.360285
0.328656
0.298047
0.268025
0.238587
0.209798
0.181777
0.154547
0.128182
0.10314
0.0801671
0.0598716
0.042785
0.0288359
0.0171776
0.00714047
0.000138473
-0.000663031
1.25175
1.13683
1.02124
0.906444
0.801676
0.71029
0.633367
0.569535
0.515788
0.469292
0.428213
0.391229
0.357277
0.325318
0.294407
0.264116
0.234654
0.206425
0.179575
0.153754
0.128468
0.103713
0.0802963
0.0594496
0.0422014
0.0285133
0.0170905
0.00683603
-0.000412513
-0.000750369
1.36096
1.21693
1.0708
0.931815
0.812653
0.713631
0.631865
0.564767
0.509407
0.462416
0.421184
0.384222
0.350579
0.319072
0.288417
0.2581
0.228757
0.201406
0.176292
0.152472
0.128576
0.104038
0.0797928
0.0579208
0.0403393
0.0271824
0.0164799
0.00646198
-0.000771898
-0.00077008
1.44328
1.2505
1.07562
0.918696
0.790124
0.688546
0.607878
0.543265
0.491014
0.446972
0.407739
0.372089
0.339832
0.309813
0.280044
0.249714
0.220263
0.193954
0.171405
0.150673
0.128829
0.104377
0.0785643
0.0548471
0.0366367
0.0244509
0.0152691
0.00613086
-0.000849226
-0.000693479
1.4337
1.17292
0.980036
0.828197
0.712076
0.624818
0.55656
0.501829
0.458635
0.422204
0.387566
0.354304
0.324481
0.297406
0.269513
0.239027
0.208749
0.183391
0.164517
0.148533
0.12978
0.105222
0.0766572
0.0497518
0.0303936
0.0198743
0.0134753
0.00605873
-0.000547641
-0.000497268
1.15835
0.844364
0.716017
0.633079
0.562467
0.515069
0.476207
0.439744
0.411907
0.388917
0.361563
0.33067
0.303917
0.282046
0.257841
0.226793
0.193943
0.168823
0.155158
0.146573
0.132546
0.107505
0.0742867
0.0420318
0.0206258
0.01285
0.0112366
0.0066591
0.000271669
-0.000162989
0.442181
0.0780962
0.188775
0.322415
0.336392
0.367747
0.380118
0.361297
0.349472
0.348798
0.333493
0.303024
0.278475
0.264861
0.24726
0.214186
0.17467
0.147668
0.141566
0.145035
0.138555
0.112479
0.0717253
0.0307978
0.00584648
0.00245201
0.00886113
0.00869915
0.00182581
0.000318731
140.613
140.694
140.882
141.167
141.532
141.967
142.465
143.016
143.612
144.238
144.883
145.531
146.165
146.765
147.307
147.766
148.11
148.301
148.295
148.035
147.448
146.439
144.875
142.561
139.199
134.293
126.923
115.174
93.0216
33.2624
139.886
139.957
140.123
140.373
140.692
141.07
141.499
141.97
142.472
142.992
143.516
144.028
144.51
144.94
145.293
145.54
145.646
145.569
145.258
144.649
143.655
142.165
140.019
136.986
132.708
126.601
117.632
104.068
84.543
56.0822
139.116
139.178
139.32
139.534
139.806
140.125
140.483
140.871
141.278
141.689
142.09
142.465
142.793
143.052
143.214
143.25
143.12
142.78
142.175
141.232
139.861
137.941
135.308
131.732
126.886
120.317
111.432
99.5943
85.3516
68.7137
138.306
138.357
138.476
138.653
138.876
139.135
139.421
139.725
140.035
140.336
140.614
140.851
141.026
141.115
141.09
140.918
140.561
139.97
139.088
137.842
136.14
133.867
130.868
126.949
121.861
115.313
107.006
96.6078
84.0553
68.9088
137.456
137.497
137.591
137.731
137.904
138.103
138.317
138.536
138.749
138.941
139.096
139.196
139.22
139.143
138.937
138.567
137.994
137.171
136.039
134.529
132.554
130.008
126.763
122.661
117.523
111.148
103.336
93.8449
82.5056
69.5253
136.569
136.6
136.669
136.771
136.895
137.033
137.174
137.309
137.426
137.509
137.544
137.511
137.388
137.152
136.772
136.217
135.446
134.413
133.064
131.333
129.144
126.405
123.012
118.844
113.773
107.662
100.391
91.8576
82.054
71.3924
135.648
135.668
135.713
135.777
135.852
135.929
135.998
136.05
136.072
136.05
135.967
135.805
135.543
135.155
134.615
133.889
132.939
131.723
130.191
128.284
125.937
123.075
119.616
115.474
110.56
104.796
98.1272
90.5427
82.0857
73.0921
134.696
134.706
134.726
134.753
134.779
134.796
134.795
134.765
134.695
134.571
134.375
134.091
133.696
133.169
132.48
131.601
130.495
129.124
127.444
125.404
122.95
120.025
116.567
112.516
107.82
102.439
96.358
89.598
82.2085
74.4619
133.717
133.716
133.712
133.702
133.68
133.639
133.569
133.461
133.303
133.08
132.778
132.378
131.862
131.205
130.384
129.369
128.131
126.632
124.837
122.704
120.189
117.249
113.842
109.928
105.48
100.483
94.9418
88.8916
82.3857
75.6517
132.713
132.703
132.676
132.63
132.562
132.464
132.328
132.145
131.902
131.587
131.185
130.679
130.05
129.278
128.339
127.209
125.86
124.261
122.382
120.189
117.651
114.735
111.414
107.664
103.475
98.8469
93.797
88.3649
82.6037
76.6984
131.692
131.671
131.621
131.542
131.429
131.277
131.078
130.823
130.501
130.1
129.605
129.002
128.273
127.398
126.359
125.131
123.693
122.018
120.083
117.861
115.329
112.465
109.253
105.683
101.752
97.4706
92.8623
87.9664
82.8309
77.6041
130.656
130.626
130.555
130.442
130.287
130.084
129.826
129.504
129.108
128.627
128.048
127.358
126.539
125.576
124.451
123.145
121.637
119.909
117.941
115.714
113.212
110.421
107.333
103.945
100.264
96.3032
92.0882
87.6554
83.0467
78.3813
129.611
129.573
129.481
129.337
129.142
128.891
128.578
128.194
127.73
127.177
126.523
125.754
124.858
123.82
122.624
121.256
119.698
117.936
115.955
113.742
111.287
108.582
105.625
102.419
98.973
95.3044
91.4375
87.4047
83.2419
79.0453
128.564
128.517
128.406
128.233
128.001
127.705
127.341
126.9
126.376
125.757
125.036
124.2
123.237
122.137
120.885
119.469
117.877
116.098
114.12
111.936
109.54
106.929
104.105
101.073
97.8469
94.4423
90.8824
87.1955
83.4119
79.6096
127.52
127.465
127.337
127.137
126.87
126.534
126.123
125.631
125.051
124.375
123.595
122.701
121.684
120.532
119.237
117.788
116.175
114.392
112.43
110.286
107.957
105.443
102.75
99.8843
96.8595
93.6919
90.4022
87.0147
83.555
80.0863
126.485
126.424
126.279
126.055
125.756
125.383
124.93
124.392
123.764
123.038
122.208
121.265
120.202
119.011
117.683
116.212
114.592
112.815
110.879
108.782
106.524
104.109
101.541
98.8304
95.9895
93.0337
89.9814
86.8534
83.6712
80.4864
125.467
125.399
125.239
124.993
124.666
124.26
123.77
123.192
122.521
121.752
120.879
119.896
118.797
117.576
116.227
114.744
113.124
111.363
109.46
107.415
105.23
102.91
100.461
97.8939
95.2195
92.4523
89.6084
86.7057
83.762
80.8199
124.473
124.399
124.226
123.959
123.607
123.171
122.648
122.035
121.328
120.523
119.615
118.6
117.474
116.231
114.868
113.381
111.769
110.03
108.164
106.174
104.061
101.833
99.4964
97.0602
94.5357
91.9359
89.2747
86.5675
83.8294
81.0954
123.508
123.429
123.244
122.96
122.586
122.124
121.573
120.93
120.192
119.357
118.421
117.381
116.234
114.977
113.607
112.124
110.525
108.813
106.987
105.051
103.009
100.868
98.6343
96.3173
93.9271
91.4753
88.9742
86.4368
83.8761
81.3209
122.582
122.498
122.303
122.003
121.61
121.126
120.551
119.882
119.119
118.259
117.3
116.242
115.08
113.815
112.445
110.969
109.389
107.705
105.921
104.039
102.065
100.004
97.8651
95.6555
93.3849
91.0636
88.7024
86.3124
83.9048
81.5035
121.701
121.613
121.409
121.096
120.686
120.183
119.587
118.897
118.113
117.234
116.259
115.186
114.016
112.748
111.381
109.917
108.358
106.704
104.96
103.131
101.22
99.2339
97.1804
95.0671
92.9025
90.6957
88.4564
86.1942
83.9186
81.6495
120.873
120.782
120.57
120.245
119.821
119.302
118.689
117.983
117.182
116.288
115.3
114.218
113.043
111.776
110.416
108.966
107.429
105.806
104.102
102.321
100.468
98.5505
96.574
94.5462
92.4748
90.3682
88.2347
86.0827
83.9206
81.765
120.106
120.013
119.793
119.459
119.023
118.491
117.864
117.143
116.33
115.424
114.428
113.341
112.164
110.9
109.55
108.116
106.6
105.007
103.34
101.605
99.8057
97.9488
96.0406
94.088
92.0981
90.0782
88.0359
85.9787
83.9137
81.8549
119.409
119.313
119.088
118.745
118.298
117.755
117.117
116.386
115.563
114.649
113.647
112.557
111.382
110.123
108.783
107.365
105.871
104.306
102.674
100.98
99.2284
97.4255
95.5772
93.69
91.7705
89.8252
87.8609
85.8843
83.9018
81.9252
118.79
118.691
118.46
118.11
117.655
117.103
116.456
115.716
114.885
113.966
112.96
111.87
110.697
109.445
108.116
106.713
105.24
103.701
102.1
100.443
98.7328
96.9768
95.1802
93.3489
91.4892
89.607
87.7084
85.7996
83.8861
81.978
118.258
118.157
117.92
117.562
117.1
116.541
115.887
115.141
114.305
113.382
112.375
111.285
110.117
108.871
107.553
106.165
104.71
103.194
101.62
99.9941
98.3202
96.604
94.8509
93.0666
91.2567
89.427
87.5829
85.7301
83.8738
82.0224
117.824
117.718
117.474
117.109
116.64
116.075
115.415
114.664
113.825
112.9
111.892
110.804
109.639
108.401
107.092
105.716
104.278
102.781
101.23
99.6303
97.9858
96.302
94.5842
92.8377
91.0679
89.28
87.4793
85.6708
83.8594
82.052
117.498
117.386
117.134
116.761
116.288
115.718
115.055
114.3
113.458
112.531
111.524
110.438
109.277
108.044
106.743
105.378
103.953
102.472
100.94
99.3602
97.7389
96.0806
94.3904
92.6734
90.9347
89.1793
87.4122
85.6383
83.8621
82.0898
117.296
117.161
116.891
116.513
116.037
115.464
114.799
114.042
113.199
112.273
111.266
110.182
109.024
107.796
106.502
105.144
103.729
102.259
100.739
99.1735
97.5679
95.9268
94.255
92.5576
90.8394
89.1054
87.3601
85.6084
83.8544
82.1033
117.277
117.078
116.78
116.396
115.917
115.341
114.673
113.914
113.071
112.144
111.138
110.056
108.901
107.676
106.386
105.035
103.626
102.163
100.652
99.0962
97.501
95.871
94.211
92.526
90.8207
89.0998
87.3681
85.6299
83.8896
82.1514
-50.5464
-30.3108
-11.0966
35.7238
28.3099
16.3386
51.22
39.1449
27.952
52.6393
42.2219
34.1858
56.9761
48.6925
41.9402
61.3618
54.4564
48.5684
64.6328
58.754
53.7074
67.2268
62.2038
57.8964
69.4134
65.0825
61.3749
71.2589
67.4813
64.2551
72.8106
69.4811
66.6449
74.1179
71.156
68.638
75.2212
72.5639
70.3081
76.1529
73.7501
71.7125
76.9395
74.7513
72.8969
77.6027
75.597
73.8976
78.1609
76.3111
74.7438
78.6293
76.9134
75.4589
79.0208
77.4203
76.0626
79.3465
77.8455
76.571
79.6159
78.2007
76.9977
79.8375
78.4963
77.3545
80.0182
78.7404
77.6508
80.1659
78.942
77.8966
80.2831
79.1045
78.0963
80.3817
79.2404
78.2622
80.4529
79.3415
78.388
80.5253
79.4367
78.5004
80.5591
79.4868
78.5645
80.6281
79.5699
78.6541
-2.64687
-2.52697
-1.05476
0.0835446
0.113138
0.19997
0.264171
0.24453
0.255929
0.311604
0.318745
0.274657
0.242332
0.240587
0.237606
0.201668
0.149205
0.116965
0.12283
0.146629
0.152248
0.123481
0.070117
0.0149601
-0.0163349
-0.0129985
0.00693612
0.0137343
0.00460229
0.000949893
2.58187
-0.388065
1.16737
0.658936
-0.650485
-0.438055
0.167418
0.218959
0.228598
0.329952
0.317243
0.217416
0.168534
0.208037
0.250662
0.208257
0.125036
0.0740777
0.0932432
0.149623
0.17539
0.141231
0.0677192
-0.00971805
-0.0515411
-0.0374272
0.00631638
0.0248105
0.00966827
0.00168904
13.7002
5.31962
2.53907
0.118102
-0.241577
1.05047
1.24413
0.0406922
-0.358971
-0.0203413
0.334318
0.228578
0.147107
0.232237
0.299952
0.212231
0.0609502
-0.0290711
0.021395
0.15461
0.228449
0.180783
0.0739116
-0.0387681
-0.0997626
-0.0717626
0.0108973
0.0484868
0.0198339
0.00240041
23.442
13.5711
7.71319
3.94264
2.18173
1.58128
0.438331
-0.243222
0.0462387
1.22028
1.18632
0.113183
-0.289365
-0.135359
0.249229
0.287736
0.0458075
-0.104252
0.00718197
0.232132
0.324221
0.228658
0.0663249
-0.0999893
-0.192638
-0.142126
0.0116487
0.0909117
0.0399427
0.00255445
32.6016
22.8411
15.5267
10.2343
6.59415
4.11827
2.26528
1.25037
0.955117
0.993342
0.511179
-0.0623512
-0.196888
0.509669
1.04522
0.551414
-0.0930346
-0.474235
-0.427118
0.121796
0.437917
0.317203
0.0833504
-0.145396
-0.274565
-0.174605
0.050834
0.175936
0.0808441
0.00136349
40.5715
31.6471
23.7625
17.3327
12.4081
8.76366
6.09279
4.21204
2.94426
2.05795
1.29882
0.700628
0.421047
0.585037
0.583278
0.327759
-0.179104
-0.515116
-0.176354
0.714448
0.868463
0.378983
0.03356
-0.273653
-0.498356
-0.468789
-0.00745449
0.287722
0.146588
-0.00383598
47.0748
39.2699
31.4954
24.6067
18.9833
14.5256
11.0061
8.257
6.16555
4.5972
3.37642
2.40329
1.724
1.34637
1.04525
0.685802
0.195439
-0.11603
0.0499696
0.456234
0.59691
0.389813
0.0678654
-0.282656
-0.532225
-0.358219
0.324219
0.566457
0.231049
-0.0164716
52.3714
45.64
38.3828
31.554
25.673
20.7299
16.593
13.1739
10.4058
8.1917
6.3998
4.942
3.8117
2.98595
2.33936
1.72928
1.1333
0.724461
0.639706
0.751788
0.776533
0.554933
0.19237
-0.163286
-0.37096
-0.236051
0.174569
0.391586
0.315869
-0.059503
56.6919
50.8747
44.2903
37.8174
32.0009
26.8912
22.4241
18.5644
15.2821
12.521
10.2031
8.26693
6.68114
5.40686
4.35757
3.44139
2.64336
2.03826
1.68536
1.51044
1.32134
0.990737
0.578821
0.209323
-0.00502618
0.0330698
0.258453
0.39059
0.270851
-0.297426
60.2176
55.1494
49.2464
43.2617
37.7087
32.6651
28.102
24.0149
20.4051
17.2533
14.5212
12.1691
10.1638
8.4683
7.0266
5.78298
4.71698
3.85033
3.19996
2.71325
2.27139
1.79043
1.29295
0.85723
0.560851
0.452564
0.477344
0.443232
0.183557
-0.513678
63.113
58.6529
53.3723
47.904
42.708
37.8678
33.3703
29.2271
25.4589
22.0706
19.0497
16.3752
14.0245
11.971
10.18
8.61551
7.25619
6.10012
5.14339
4.34788
3.64215
2.96979
2.33097
1.76803
1.32841
1.03291
0.832967
0.595156
0.18277
-0.590773
65.511
61.5467
56.8081
51.8289
47.0142
42.4428
38.1075
34.0255
30.2262
26.728
23.5343
20.639
18.0314
15.6963
13.6133
11.7596
10.1173
8.67655
7.42578
6.33706
5.36564
4.47255
3.64856
2.91234
2.28785
1.77903
1.34462
0.891976
0.32018
-0.52082
67.5111
63.9552
59.6796
55.1402
50.6936
46.4105
42.2845
38.3327
34.5867
31.0711
27.7981
24.7718
21.9909
19.4495
17.1372
15.0411
13.1485
11.4487
9.92955
8.57026
7.34168
6.21662
5.18304
4.24517
3.41093
2.67489
2.00341
1.33225
0.59167
-0.329503
69.1887
65.9725
62.0904
57.9374
53.8292
49.828
45.9263
42.1387
38.4956
35.0231
31.7382
28.6505
25.7653
23.0832
20.6012
18.3134
16.2122
14.2893
12.5346
10.933
9.46521
8.11188
6.86099
5.709
4.65438
3.68729
2.78091
1.89092
0.971453
-0.0532241
70.6015
67.6705
64.1234
60.3064
56.5016
52.7635
49.083
45.4713
41.956
38.5627
35.3098
32.2102
29.2725
26.5023
23.9012
21.4684
19.2006
17.0926
15.1372
13.3243
11.6407
10.0725
8.60902
7.24321
5.96883
4.77457
3.63924
2.53217
1.42385
0.267768
71.7947
69.1046
65.8435
62.318
58.7819
55.2834
51.8117
48.3747
44.9966
41.7012
38.5071
35.428
32.4749
29.6557
26.9756
24.4369
22.0397
19.7819
17.6593
15.6654
13.7912
12.0269
10.3634
8.79274
7.30686
5.8945
4.53876
3.21789
1.9123
0.597706
72.8039
70.3183
67.3023
64.0293
60.7297
57.4464
54.1672
50.8968
47.656
44.4665
41.3458
38.3077
35.364
32.5241
29.795
27.1815
24.686
22.309
20.0487
17.9013
15.8613
13.9216
12.0747
10.313
8.62833
7.00996
5.44408
3.91431
2.40618
0.910779
73.6578
71.3463
68.5407
65.4867
62.3946
59.3029
56.1983
53.083
49.9744
46.8919
43.8515
40.8664
37.9484
35.1074
32.3517
29.6873
27.1185
24.6475
22.2747
19.9983
17.8152
15.7204
13.7081
11.7715
9.90272
8.09199
6.32743
4.59552
2.88371
1.19242
74.3797
72.2168
69.5921
66.7279
63.8172
60.8952
57.9476
54.9743
51.9898
49.0112
46.0528
43.1269
40.2447
37.4162
34.65
31.9531
29.3307
26.7865
24.3222
21.9379
19.6321
17.4014
15.2415
13.1464
11.1089
9.12014
7.16922
5.24393
3.33166
1.43756
74.9891
72.953
70.4839
67.7841
65.0317
62.2589
59.4512
56.6063
53.7364
50.8561
47.9782
45.1137
42.273
39.4659
36.7007
33.985
31.3246
28.7239
26.1859
23.7118
21.3012
18.9523
16.6616
14.4242
12.2335
10.0812
7.95699
5.84896
3.74359
1.64752
75.5019
73.574
71.2385
68.6808
66.066
63.424
60.7399
58.0101
55.2443
52.4551
49.6538
46.8502
44.0536
41.2732
38.5172
35.7929
33.1066
30.463
27.866
25.3174
22.818
20.3668
17.9613
15.5971
13.2683
10.9671
8.68328
6.40488
4.1172
1.82653
75.9321
74.0961
71.8753
69.4398
66.9441
64.4159
61.8403
59.2124
56.54
53.8339
51.1039
48.3585
45.6063
42.8554
40.1137
37.3882
34.6852
32.0098
29.3658
26.7562
24.182
21.6429
19.1372
16.6611
14.209
11.7734
9.34434
6.90935
4.45278
1.97957
76.2907
74.5326
72.4094
70.0787
67.6853
65.2555
62.7742
60.2355
57.6457
55.0142
52.3491
49.6581
46.9486
44.228
41.5036
38.7819
36.0692
33.3704
30.6898
28.0303
25.3935
22.7798
20.1875
17.6135
15.0525
12.4972
9.9375
7.36079
4.75062
2.11012
76.5887
74.896
72.8555
70.6137
68.3075
65.9616
63.5613
61.0999
58.5822
56.0162
53.4092
50.7675
48.0978
45.4067
42.7007
39.9861
37.2686
34.5533
31.8442
29.1445
26.456
23.7793
21.1132
18.4547
15.7988
13.1382
10.463
7.76023
5.01293
2.22197
76.8322
75.1939
73.2224
71.0551
68.822
66.5469
64.2151
61.8194
59.3634
56.854
54.2975
51.6995
49.0656
46.4018
43.714
41.0081
38.2893
35.5624
32.8315
30.0998
27.3691
24.6401
21.9118
19.1815
16.4443
13.693
10.9175
8.10478
5.23767
2.31473
77.0331
75.4389
73.5241
71.4181
69.2452
67.0284
64.7533
62.4121
60.0077
57.5459
55.0323
52.4716
49.8689
47.2294
44.5585
41.8616
39.1436
36.409
33.6617
30.9048
28.1403
25.3687
22.5894
19.7994
16.9942
14.1664
11.306
8.39982
5.43049
2.39355
77.188
75.6288
73.7587
71.7014
69.5762
67.4059
65.176
62.8786
60.5155
58.0922
55.6133
53.0832
50.5063
47.8872
45.2309
42.5423
39.826
37.0864
34.327
31.5509
28.7599
25.9548
23.1347
20.2969
17.4367
14.5469
11.6172
8.63449
5.58149
2.45142
77.3194
75.7858
73.9498
71.9294
69.8404
67.7051
65.5096
63.2453
60.9138
58.5198
56.0677
53.5611
51.0042
48.4011
45.7564
43.0746
40.3602
37.6172
34.8491
32.0588
29.248
26.4176
23.5664
20.6921
17.7896
14.8518
11.8685
8.82595
5.70698
2.50092
77.4002
75.8828
74.0691
72.0737
70.0091
67.8973
65.7247
63.4826
61.1723
58.7981
56.3639
53.8732
51.3298
48.7376
46.1009
43.424
40.7111
37.9661
35.1924
32.3927
29.5688
26.7214
23.8494
20.9504
18.0193
15.0488
12.0284
8.94439
5.77926
2.52078
77.4891
75.9727
74.1713
72.1909
70.14
68.0408
65.8803
63.65
61.3507
58.9865
56.5614
54.0785
51.5416
48.9543
46.3209
43.6456
40.9324
38.1852
35.4074
32.6016
29.7696
26.912
24.028
21.1148
18.1675
15.1786
12.1374
9.02903
5.83363
2.52727
)
;

boundaryField
{
    inlet
    {
        type            zeroGradient;
    }
    outlet
    {
        type            fixedValue;
        value           uniform 0;
    }
    flap
    {
        type            zeroGradient;
    }
    upperWall
    {
        type            zeroGradient;
    }
    lowerWall
    {
        type            zeroGradient;
    }
    frontAndBack
    {
        type            empty;
    }
}


// ************************************************************************* //
