/*--------------------------------*- C++ -*----------------------------------*\
  =========                 |
  \\      /  F ield         | OpenFOAM: The Open Source CFD Toolbox
   \\    /   O peration     | Website:  https://openfoam.org
    \\  /    A nd           | Version:  dev
     \\/     M anipulation  |
\*---------------------------------------------------------------------------*/
FoamFile
{
    version     2.0;
    format      ascii;
    class       volVectorField;
    location    "5.3";
    object      U;
}
// * * * * * * * * * * * * * * * * * * * * * * * * * * * * * * * * * * * * * //

dimensions      [0 1 -1 0 0 0 0];

internalField   nonuniform List<vector> 
2790
(
(9.94399 0 0.0205232)
(9.87572 0 0.0295876)
(9.77521 0 0.0359894)
(9.64944 0 0.0425561)
(9.50409 0 0.0493854)
(9.34007 0 0.0564283)
(9.15655 0 0.0638159)
(8.95263 0 0.0717117)
(8.72747 0 0.0802554)
(8.48009 0 0.0895739)
(8.20928 0 0.0997941)
(7.91365 0 0.111046)
(7.59169 0 0.123462)
(7.24179 0 0.137167)
(6.86233 0 0.152275)
(6.4518 0 0.168873)
(6.00888 0 0.187001)
(5.53268 0 0.206624)
(5.02296 0 0.227595)
(4.48044 0 0.249616)
(3.90715 0 0.272182)
(3.30682 0 0.29453)
(2.68527 0 0.315625)
(2.05061 0 0.334293)
(1.41179 0 0.35061)
(0.79803 0 0.372888)
(0.110701 0 0.325057)
(-0.469562 0 -0.114862)
(-0.453778 0 -0.297152)
(-0.231163 0 -0.423858)
(9.9985 0 0.0407029)
(9.98145 0 0.0623826)
(9.93575 0 0.0791399)
(9.86416 0 0.0966245)
(9.77098 0 0.115124)
(9.65715 0 0.134488)
(9.52206 0 0.154975)
(9.36486 0 0.176943)
(9.18472 0 0.200708)
(8.98068 0 0.22655)
(8.75153 0 0.254745)
(8.49589 0 0.285562)
(8.21221 0 0.319252)
(7.89883 0 0.356027)
(7.55405 0 0.396025)
(7.1762 0 0.439269)
(6.76379 0 0.4856)
(6.31566 0 0.534595)
(5.83125 0 0.58547)
(5.31088 0 0.636963)
(4.75615 0 0.687213)
(4.17041 0 0.733655)
(3.5593 0 0.77296)
(2.93155 0 0.801099)
(2.29995 0 0.813754)
(1.69296 0 0.807259)
(1.10716 0 0.747256)
(0.658899 0 0.547934)
(0.186453 0 0.224618)
(-0.00819896 0 -0.453729)
(9.99559 0 0.0432068)
(9.97556 0 0.0752714)
(9.9318 0 0.103346)
(9.8649 0 0.13237)
(9.77778 0 0.163059)
(9.67155 0 0.195398)
(9.54588 0 0.229742)
(9.40014 0 0.266602)
(9.23366 0 0.30647)
(9.04564 0 0.349807)
(8.8351 0 0.397073)
(8.60082 0 0.448723)
(8.34146 0 0.505195)
(8.05551 0 0.566867)
(7.74138 0 0.634015)
(7.39745 0 0.706736)
(7.02211 0 0.784843)
(6.61396 0 0.867731)
(6.17194 0 0.954202)
(5.69564 0 1.04226)
(5.18563 0 1.12889)
(4.64396 0 1.20979)
(4.0748 0 1.27916)
(3.48538 0 1.32934)
(2.88685 0 1.35009)
(2.29947 0 1.32643)
(1.73185 0 1.22078)
(1.21626 0 0.973014)
(0.701149 0 0.570156)
(0.358043 0 -0.156548)
(9.99403 0 0.049499)
(9.97181 0 0.0932059)
(9.92788 0 0.133571)
(9.86225 0 0.174208)
(9.77693 0 0.216433)
(9.67298 0 0.26066)
(9.55032 0 0.307429)
(9.40849 0 0.357414)
(9.24703 0 0.41129)
(9.06534 0 0.469705)
(8.86269 0 0.533302)
(8.6382 0 0.602724)
(8.39085 0 0.678594)
(8.11953 0 0.761477)
(7.82301 0 0.851824)
(7.50001 0 0.949879)
(7.14925 0 1.05555)
(6.76945 0 1.16824)
(6.3595 0 1.28661)
(5.9186 0 1.40827)
(5.44653 0 1.52947)
(4.94401 0 1.64469)
(4.41317 0 1.74615)
(3.85827 0 1.82322)
(3.28582 0 1.86137)
(2.70641 0 1.84033)
(2.12565 0 1.72601)
(1.55426 0 1.47787)
(0.957953 0 1.08371)
(0.509426 0 0.502337)
(9.99331 0 0.0572133)
(9.96994 0 0.110958)
(9.92593 0 0.162103)
(9.86146 0 0.213347)
(9.77799 0 0.266356)
(9.67635 0 0.321913)
(9.55654 0 0.380701)
(9.41822 0 0.443487)
(9.26098 0 0.511055)
(9.08434 0 0.58417)
(8.88771 0 0.663587)
(8.67039 0 0.750063)
(8.4316 0 0.844335)
(8.17046 0 0.947085)
(7.88608 0 1.05888)
(7.57748 0 1.18008)
(7.24367 0 1.31069)
(6.88361 0 1.45018)
(6.49629 0 1.59723)
(6.08073 0 1.74933)
(5.63616 0 1.90242)
(5.16212 0 2.05032)
(4.65878 0 2.18418)
(4.12722 0 2.29174)
(3.5694 0 2.35657)
(2.98889 0 2.35733)
(2.38684 0 2.26497)
(1.76639 0 2.04765)
(1.08999 0 1.69141)
(0.536652 0 1.15416)
(9.99302 0 0.0655383)
(9.96923 0 0.128701)
(9.92556 0 0.190113)
(9.86253 0 0.251842)
(9.78129 0 0.315577)
(9.68245 0 0.382317)
(9.56601 0 0.452873)
(9.43172 0 0.5281)
(9.27921 0 0.608879)
(9.10806 0 0.696083)
(8.91778 0 0.790579)
(8.70774 0 0.893224)
(8.47729 0 1.00486)
(8.22568 0 1.12626)
(7.95215 0 1.25809)
(7.65589 0 1.40081)
(7.33603 0 1.55454)
(6.99164 0 1.71886)
(6.62169 0 1.89255)
(6.22501 0 2.07322)
(5.80028 0 2.25685)
(5.34604 0 2.4372)
(4.86071 0 2.6052)
(4.3427 0 2.74822)
(3.7904 0 2.84955)
(3.20257 0 2.8882)
(2.57657 0 2.83824)
(1.91347 0 2.67162)
(1.17275 0 2.37401)
(0.549967 0 1.89442)
(9.99297 0 0.0740744)
(9.96927 0 0.146313)
(9.92637 0 0.217482)
(9.86509 0 0.289291)
(9.78643 0 0.363354)
(9.69085 0 0.440826)
(9.57835 0 0.522659)
(9.44872 0 0.609809)
(9.30165 0 0.703254)
(9.13678 0 0.803963)
(8.95365 0 0.912899)
(8.75171 0 1.03101)
(8.53034 0 1.15922)
(8.28888 0 1.2984)
(8.02659 0 1.4493)
(7.74269 0 1.61248)
(7.4363 0 1.78819)
(7.1064 0 1.97616)
(6.75181 0 2.17541)
(6.37101 0 2.38382)
(5.9621 0 2.59774)
(5.52264 0 2.81138)
(5.04953 0 3.01615)
(4.539 0 3.19997)
(3.98666 0 3.34668)
(3.3879 0 3.43597)
(2.73724 0 3.44332)
(2.03623 0 3.3415)
(1.24174 0 3.11359)
(0.563512 0 2.69316)
(9.99306 0 0.0825876)
(9.96981 0 0.163605)
(9.92807 0 0.244049)
(9.86885 0 0.325478)
(9.79313 0 0.409444)
(9.70126 0 0.497204)
(9.59323 0 0.589837)
(9.46888 0 0.688394)
(9.32796 0 0.793938)
(9.17015 0 0.907528)
(8.99503 0 1.03021)
(8.80211 0 1.16303)
(8.59082 0 1.30701)
(8.36051 0 1.46309)
(8.11045 0 1.63215)
(7.83981 0 1.81487)
(7.54761 0 2.01167)
(7.23267 0 2.22251)
(6.8935 0 2.44674)
(6.52817 0 2.68269)
(6.13409 0 2.92736)
(5.70785 0 3.17577)
(5.24497 0 3.42037)
(4.73978 0 3.6502)
(4.18547 0 3.85024)
(3.57475 0 4.00089)
(2.89951 0 4.07791)
(2.1621 0 4.05239)
(1.31611 0 3.9017)
(0.583214 0 3.54016)
(9.99326 0 0.0909277)
(9.97072 0 0.180407)
(9.93046 0 0.269666)
(9.87362 0 0.36024)
(9.80118 0 0.453645)
(9.71344 0 0.551207)
(9.61038 0 0.654109)
(9.49189 0 0.763493)
(9.35776 0 0.880502)
(9.20774 0 1.00628)
(9.04146 0 1.14196)
(8.85848 0 1.28866)
(8.65828 0 1.44752)
(8.44022 0 1.61959)
(8.20358 0 1.80586)
(7.94746 0 2.00721)
(7.67079 0 2.22425)
(7.37217 0 2.45728)
(7.0498 0 2.70606)
(6.70127 0 2.96957)
(6.32335 0 3.24566)
(5.91165 0 3.53054)
(5.46036 0 3.81807)
(4.962 0 4.09899)
(4.4074 0 4.35987)
(3.78638 0 4.5821)
(3.08754 0 4.74108)
(2.31268 0 4.80446)
(1.41062 0 4.74108)
(0.614298 0 4.44192)
(9.99352 0 0.0989915)
(9.97191 0 0.196578)
(9.9334 0 0.294193)
(9.87924 0 0.393415)
(9.8104 0 0.495753)
(9.72717 0 0.602586)
(9.62953 0 0.715179)
(9.51742 0 0.834759)
(9.39069 0 0.962541)
(9.24913 0 1.09974)
(9.09246 0 1.24759)
(8.92028 0 1.40729)
(8.73213 0 1.58006)
(8.52743 0 1.7671)
(8.30544 0 1.96956)
(8.06526 0 2.18848)
(7.80573 0 2.42479)
(7.5253 0 2.67917)
(7.22191 0 2.95192)
(6.89276 0 3.24282)
(6.53403 0 3.55079)
(6.14047 0 3.8735)
(5.70504 0 4.20671)
(5.21846 0 4.54339)
(4.66897 0 4.87244)
(4.04283 0 5.17697)
(3.32365 0 5.43231)
(2.50972 0 5.60196)
(1.54183 0 5.64348)
(0.664038 0 5.41802)
(9.99384 0 0.106703)
(9.9733 0 0.211999)
(9.9368 0 0.3175)
(9.88558 0 0.424853)
(9.82064 0 0.535586)
(9.74225 0 0.651117)
(9.65045 0 0.772784)
(9.54518 0 0.901881)
(9.42638 0 1.0397)
(9.29391 0 1.18751)
(9.14753 0 1.34663)
(8.98695 0 1.51835)
(8.81175 0 1.70399)
(8.62144 0 1.90487)
(8.41532 0 2.12231)
(8.19253 0 2.3576)
(7.95188 0 2.61196)
(7.69179 0 2.88654)
(7.41005 0 3.18229)
(7.10364 0 3.49987)
(6.76834 0 3.83948)
(6.39832 0 4.20055)
(5.98554 0 4.5812)
(5.51905 0 4.97734)
(4.98434 0 5.38133)
(4.36321 0 5.77956)
(3.63183 0 6.14914)
(2.78005 0 6.45065)
(1.73339 0 6.62848)
(0.7448 0 6.50305)
(9.9942 0 0.114005)
(9.97487 0 0.226573)
(9.94056 0 0.339471)
(9.89252 0 0.45442)
(9.83174 0 0.57298)
(9.75851 0 0.696605)
(9.67289 0 0.826689)
(9.57488 0 0.964588)
(9.46449 0 1.11165)
(9.34163 0 1.26921)
(9.20616 0 1.43864)
(9.05787 0 1.62133)
(8.89645 0 1.81868)
(8.72148 0 2.03216)
(8.53238 0 2.26323)
(8.32837 0 2.51344)
(8.10835 0 2.78435)
(7.87081 0 3.07757)
(7.61361 0 3.39473)
(7.33372 0 3.7375)
(7.0269 0 4.10747)
(6.68712 0 4.50604)
(6.30585 0 4.93413)
(5.87103 0 5.39147)
(5.3657 0 5.87538)
(4.7668 0 6.37826)
(4.0406 0 6.88323)
(3.16133 0 7.35348)
(2.02463 0 7.72315)
(0.880672 0 7.757)
(9.99459 0 0.120852)
(9.97657 0 0.240223)
(9.94461 0 0.360005)
(9.89995 0 0.481997)
(9.84356 0 0.607792)
(9.77576 0 0.738878)
(9.69662 0 0.876692)
(9.60623 0 1.02264)
(9.50464 0 1.17811)
(9.39185 0 1.34451)
(9.26782 0 1.52325)
(9.13243 0 1.71578)
(8.98548 0 1.9236)
(8.82669 0 2.14829)
(8.65563 0 2.39148)
(8.47168 0 2.65493)
(8.27393 0 2.94053)
(8.06108 0 3.25035)
(7.83126 0 3.58669)
(7.58178 0 3.95219)
(7.30876 0 4.34986)
(7.00661 0 4.78318)
(6.66715 0 5.25614)
(6.27839 0 5.77299)
(5.82234 0 6.33773)
(5.27233 0 6.95245)
(4.58434 0 7.61366)
(3.70975 0 8.3009)
(2.48798 0 8.95814)
(1.12436 0 9.29305)
(9.99501 0 0.12721)
(9.97838 0 0.252882)
(9.94891 0 0.379018)
(9.9078 0 0.507483)
(9.85598 0 0.639903)
(9.79382 0 0.777797)
(9.72143 0 0.922633)
(9.63894 0 1.07585)
(9.54648 0 1.23889)
(9.44413 0 1.41316)
(9.33196 0 1.60015)
(9.20995 0 1.80135)
(9.07806 0 2.01833)
(8.93615 0 2.25275)
(8.78398 0 2.50638)
(8.62117 0 2.78118)
(8.44709 0 3.07929)
(8.26081 0 3.4032)
(8.06094 0 3.75578)
(7.84543 0 4.14052)
(7.61127 0 4.56171)
(7.35402 0 5.02475)
(7.06706 0 5.53659)
(6.74029 0 6.10621)
(6.35776 0 6.74533)
(5.89385 0 7.469)
(5.3005 0 8.29638)
(4.50852 0 9.24798)
(3.26847 0 10.3417)
(1.60478 0 11.3588)
(9.99545 0 0.13305)
(9.98026 0 0.264502)
(9.95339 0 0.396439)
(9.91596 0 0.530785)
(9.86888 0 0.669194)
(9.81253 0 0.813207)
(9.74708 0 0.964316)
(9.67272 0 1.12399)
(9.58964 0 1.29367)
(9.49802 0 1.47483)
(9.39803 0 1.66895)
(9.28978 0 1.87756)
(9.17338 0 2.10228)
(9.04887 0 2.34484)
(8.91624 0 2.60709)
(8.77539 0 2.89112)
(8.62607 0 3.19928)
(8.46782 0 3.53432)
(8.29993 0 3.89956)
(8.12126 0 4.29909)
(7.93009 0 4.73813)
(7.72388 0 5.22352)
(7.49878 0 5.76449)
(7.2489 0 6.37385)
(6.96473 0 7.07004)
(6.63076 0 7.88089)
(6.21416 0 8.85183)
(5.66549 0 10.0658)
(4.6897 0 11.7309)
(2.68704 0 14.5916)
(0.11421 0 -0.113242)
(0.269266 0 -0.103184)
(0.42657 0 -0.0809468)
(0.557513 0 -0.0599548)
(0.658123 0 -0.0429598)
(0.733503 0 -0.029866)
(0.789785 0 -0.0200103)
(0.831889 0 -0.012744)
(0.863487 0 -0.00750698)
(0.88738 0 -0.00383046)
(0.905761 0 -0.00134053)
(0.920353 0 0.000251787)
(0.932509 0 0.00117247)
(0.943274 0 0.00160639)
(0.953423 0 0.00171469)
(0.963462 0 0.00164742)
(0.973604 0 0.00155093)
(0.983748 0 0.00156627)
(0.993479 0 0.00181309)
(1.00213 0 0.00236082)
(1.00893 0 0.0032001)
(1.01318 0 0.00422979)
(1.01451 0 0.0052418)
(1.01323 0 0.00592495)
(1.00933 0 0.00643712)
(1.00301 0 0.00688233)
(0.99428 0 0.00729278)
(0.98302 0 0.00762669)
(0.969383 0 0.00761025)
(0.952414 0 0.00600305)
(0.0993213 0 -0.26829)
(0.251247 0 -0.251055)
(0.39849 0 -0.203043)
(0.523522 0 -0.156784)
(0.62369 0 -0.119216)
(0.703691 0 -0.0902204)
(0.768654 0 -0.0683128)
(0.822522 0 -0.0520438)
(0.868167 0 -0.0401614)
(0.90773 0 -0.0316218)
(0.942833 0 -0.0256055)
(0.974713 0 -0.0214902)
(1.00432 0 -0.0187988)
(1.03238 0 -0.0171499)
(1.05944 0 -0.0162187)
(1.08589 0 -0.0157058)
(1.11201 0 -0.0153195)
(1.13788 0 -0.0147775)
(1.16345 0 -0.013837)
(1.18851 0 -0.0123498)
(1.21271 0 -0.0103141)
(1.2357 0 -0.00789299)
(1.25714 0 -0.0053827)
(1.27647 0 -0.00307998)
(1.29379 0 -0.000949238)
(1.30913 0 0.00113078)
(1.32253 0 0.0033625)
(1.33319 0 0.00563996)
(1.34065 0 0.00722612)
(1.34693 0 0.00632473)
(0.0796873 0 -0.425768)
(0.210997 0 -0.396545)
(0.328247 0 -0.322371)
(0.426986 0 -0.251827)
(0.50528 0 -0.195055)
(0.568041 0 -0.151369)
(0.619468 0 -0.118324)
(0.662532 0 -0.0936692)
(0.699411 0 -0.0755029)
(0.731712 0 -0.0622527)
(0.76062 0 -0.0526988)
(0.787029 0 -0.0459229)
(0.811622 0 -0.0412287)
(0.834922 0 -0.0380703)
(0.857329 0 -0.035995)
(0.879148 0 -0.0345957)
(0.900595 0 -0.0334816)
(0.921794 0 -0.0322748)
(0.942764 0 -0.0306478)
(0.963404 0 -0.0283941)
(0.983517 0 -0.0254961)
(1.00286 0 -0.0221406)
(1.02121 0 -0.0186334)
(1.03855 0 -0.0152132)
(1.055 0 -0.0120675)
(1.07085 0 -0.00909362)
(1.08632 0 -0.00596869)
(1.10227 0 -0.0026359)
(1.1182 0 0.000330442)
(1.13457 0 0.00203824)
(0.0602438 0 -0.551408)
(0.165107 0 -0.504646)
(0.245568 0 -0.406394)
(0.313361 0 -0.31629)
(0.36469 0 -0.245343)
(0.405451 0 -0.191355)
(0.438626 0 -0.150726)
(0.46601 0 -0.120461)
(0.489043 0 -0.0981106)
(0.508795 0 -0.0817174)
(0.525994 0 -0.0697888)
(0.541183 0 -0.0612096)
(0.554785 0 -0.0551388)
(0.567137 0 -0.0509249)
(0.57851 0 -0.0480371)
(0.589133 0 -0.0460078)
(0.59921 0 -0.0443924)
(0.60892 0 -0.0427546)
(0.618386 0 -0.0407025)
(0.627644 0 -0.0379718)
(0.636619 0 -0.0345114)
(0.645133 0 -0.0305077)
(0.652948 0 -0.026322)
(0.65991 0 -0.0223419)
(0.666068 0 -0.0188444)
(0.671665 0 -0.0158319)
(0.677077 0 -0.01306)
(0.682679 0 -0.0102949)
(0.688289 0 -0.00786024)
(0.694842 0 -0.00453817)
(0.0398225 0 -0.646588)
(0.112956 0 -0.577382)
(0.151265 0 -0.457918)
(0.186221 0 -0.353714)
(0.20758 0 -0.273554)
(0.223439 0 -0.213231)
(0.235054 0 -0.167919)
(0.243113 0 -0.134236)
(0.248419 0 -0.109219)
(0.251567 0 -0.0906703)
(0.252952 0 -0.0769778)
(0.252851 0 -0.0669449)
(0.251501 0 -0.0596724)
(0.249105 0 -0.0544694)
(0.245848 0 -0.050785)
(0.241925 0 -0.0481479)
(0.237568 0 -0.0461151)
(0.233059 0 -0.0442264)
(0.228653 0 -0.0420257)
(0.224511 0 -0.039155)
(0.220631 0 -0.0354752)
(0.216806 0 -0.0311168)
(0.212578 0 -0.0264477)
(0.207453 0 -0.0219676)
(0.201141 0 -0.0180073)
(0.193333 0 -0.0146534)
(0.184436 0 -0.0118263)
(0.175869 0 -0.00815423)
(0.165042 0 -0.00330825)
(0.147349 0 0.000280395)
(0.0177779 0 -0.705914)
(0.0539258 0 -0.610462)
(0.0465825 0 -0.473096)
(0.0474658 0 -0.36003)
(0.036564 0 -0.274459)
(0.0247177 0 -0.210885)
(0.0111195 0 -0.163073)
(-0.00388067 0 -0.127265)
(-0.019773 0 -0.101332)
(-0.0365806 0 -0.082164)
(-0.0538844 0 -0.0680425)
(-0.0714886 0 -0.057726)
(-0.0892048 0 -0.0502993)
(-0.10686 0 -0.0450709)
(-0.124295 0 -0.0415032)
(-0.141344 0 -0.0391405)
(-0.157796 0 -0.0375374)
(-0.173439 0 -0.0361716)
(-0.188169 0 -0.0344851)
(-0.202059 0 -0.0320373)
(-0.215341 0 -0.0286761)
(-0.228356 0 -0.0245643)
(-0.241439 0 -0.0200736)
(-0.254861 0 -0.0156948)
(-0.268779 0 -0.0114625)
(-0.283326 0 -0.00692269)
(-0.300219 0 -0.00229827)
(-0.319474 0 0.00188652)
(-0.332982 0 0.00479258)
(-0.339909 0 0.00457254)
(-0.00756466 0 -0.722237)
(-0.0139415 0 -0.597933)
(-0.0673038 0 -0.44856)
(-0.103811 0 -0.332967)
(-0.148208 0 -0.246834)
(-0.190842 0 -0.184376)
(-0.231792 0 -0.1384)
(-0.270611 0 -0.104208)
(-0.307541 0 -0.079204)
(-0.342527 0 -0.0611439)
(-0.375315 0 -0.0482638)
(-0.405842 0 -0.039244)
(-0.434166 0 -0.0331125)
(-0.460457 0 -0.0291338)
(-0.48494 0 -0.0267542)
(-0.507856 0 -0.0255223)
(-0.529378 0 -0.0250185)
(-0.549617 0 -0.0246947)
(-0.568741 0 -0.0239273)
(-0.587044 0 -0.0221954)
(-0.604893 0 -0.0192824)
(-0.622644 0 -0.0152926)
(-0.640534 0 -0.0105444)
(-0.65874 0 -0.00567143)
(-0.677631 0 -0.00133955)
(-0.694878 0 0.00236648)
(-0.708088 0 0.00551609)
(-0.718169 0 0.00763133)
(-0.727181 0 0.00826519)
(-0.732426 0 0.00751936)
(-0.0395346 0 -0.686933)
(-0.0926344 0 -0.539047)
(-0.190668 0 -0.388753)
(-0.267713 0 -0.275813)
(-0.345692 0 -0.193487)
(-0.418033 0 -0.135833)
(-0.483431 0 -0.0952056)
(-0.541425 0 -0.0658604)
(-0.592782 0 -0.0448375)
(-0.638529 0 -0.0303006)
(-0.679417 0 -0.0206256)
(-0.716139 0 -0.0145321)
(-0.749326 0 -0.0110208)
(-0.779564 0 -0.00932479)
(-0.807308 0 -0.0088995)
(-0.833208 0 -0.00935796)
(-0.857548 0 -0.010273)
(-0.880451 0 -0.0111039)
(-0.902103 0 -0.0111617)
(-0.922861 0 -0.00983644)
(-0.943251 0 -0.00697202)
(-0.963925 0 -0.00307997)
(-0.984304 0 0.000962409)
(-1.00227 0 0.00448502)
(-1.0167 0 0.00709929)
(-1.0288 0 0.00899005)
(-1.0395 0 0.0107174)
(-1.04899 0 0.0121671)
(-1.05691 0 0.0124632)
(-1.06114 0 0.011638)
(-0.0798273 0 -0.595193)
(-0.183358 0 -0.430778)
(-0.332752 0 -0.287798)
(-0.452779 0 -0.185692)
(-0.563513 0 -0.1136)
(-0.663328 0 -0.0641283)
(-0.752142 0 -0.0316914)
(-0.828767 0 -0.0115078)
(-0.890762 0 0.000245384)
(-0.941646 0 0.00708683)
(-0.984002 0 0.0107364)
(-1.02 0 0.0121992)
(-1.0513 0 0.0121868)
(-1.07927 0 0.0112579)
(-1.10509 0 0.00979179)
(-1.12934 0 0.00794216)
(-1.15245 0 0.00589603)
(-1.17459 0 0.00402338)
(-1.19572 0 0.00294807)
(-1.21578 0 0.00327705)
(-1.23467 0 0.00514448)
(-1.25201 0 0.0079493)
(-1.26796 0 0.0107077)
(-1.2831 0 0.0127782)
(-1.29682 0 0.0140643)
(-1.30863 0 0.0148705)
(-1.31869 0 0.0155954)
(-1.32748 0 0.0162114)
(-1.33467 0 0.0161385)
(-1.33824 0 0.015438)
(-0.135134 0 -0.441827)
(-0.300482 0 -0.269981)
(-0.513953 0 -0.142995)
(-0.688958 0 -0.0546616)
(-0.831832 0 -0.00157232)
(-0.941809 0 0.0258954)
(-1.02671 0 0.0386858)
(-1.09324 0 0.043017)
(-1.14884 0 0.0434164)
(-1.19573 0 0.0419654)
(-1.23604 0 0.039607)
(-1.27124 0 0.0366748)
(-1.30237 0 0.0333891)
(-1.3303 0 0.0300466)
(-1.35584 0 0.02683)
(-1.37952 0 0.0236684)
(-1.4015 0 0.0203991)
(-1.42161 0 0.0172297)
(-1.43983 0 0.0148389)
(-1.45657 0 0.0139911)
(-1.47258 0 0.0149505)
(-1.48856 0 0.0171944)
(-1.50455 0 0.0195907)
(-1.51992 0 0.021023)
(-1.53371 0 0.0211799)
(-1.54523 0 0.0206369)
(-1.55467 0 0.0201842)
(-1.56276 0 0.0200225)
(-1.56931 0 0.0197027)
(-1.57241 0 0.0191763)
(-0.216288 0 -0.239129)
(-0.459761 0 -0.0317294)
(-0.708511 0 0.0649355)
(-0.888774 0 0.0995529)
(-1.02852 0 0.108968)
(-1.13926 0 0.107908)
(-1.22724 0 0.101836)
(-1.29785 0 0.0936381)
(-1.35516 0 0.0847582)
(-1.40248 0 0.0762524)
(-1.4426 0 0.0685767)
(-1.47736 0 0.0615052)
(-1.50787 0 0.0548446)
(-1.53502 0 0.0487968)
(-1.55978 0 0.0435417)
(-1.58289 0 0.0387906)
(-1.60446 0 0.0340405)
(-1.62406 0 0.0293273)
(-1.64144 0 0.025522)
(-1.65709 0 0.023735)
(-1.67214 0 0.0243426)
(-1.68762 0 0.0265341)
(-1.70369 0 0.0287142)
(-1.71945 0 0.0294208)
(-1.73343 0 0.0282632)
(-1.74466 0 0.0261329)
(-1.75339 0 0.0243518)
(-1.76068 0 0.0234622)
(-1.76657 0 0.0230312)
(-1.76928 0 0.0227219)
(-0.299722 0 0.173893)
(-0.572466 0 0.261083)
(-0.849069 0 0.270134)
(-1.05014 0 0.252852)
(-1.20375 0 0.226008)
(-1.32046 0 0.197172)
(-1.41004 0 0.170372)
(-1.4801 0 0.146826)
(-1.53575 0 0.126588)
(-1.58097 0 0.110015)
(-1.61918 0 0.0968468)
(-1.6525 0 0.0857892)
(-1.68179 0 0.0758422)
(-1.7077 0 0.0671451)
(-1.73138 0 0.0600603)
(-1.75389 0 0.0540398)
(-1.77522 0 0.0479549)
(-1.79441 0 0.0414865)
(-1.81074 0 0.0358307)
(-1.82483 0 0.0327964)
(-1.83842 0 0.0331188)
(-1.85316 0 0.0356417)
(-1.8694 0 0.0380083)
(-1.88581 0 0.0381186)
(-1.90022 0 0.0354423)
(-1.91115 0 0.0313667)
(-1.91894 0 0.028034)
(-1.92518 0 0.0264676)
(-1.93028 0 0.0260718)
(-1.93262 0 0.0260042)
(-0.354247 0 0.57966)
(-0.694254 0 0.594905)
(-1.01852 0 0.509203)
(-1.23387 0 0.421915)
(-1.38809 0 0.348071)
(-1.49989 0 0.285508)
(-1.58291 0 0.235862)
(-1.64682 0 0.197026)
(-1.69686 0 0.165618)
(-1.73688 0 0.141169)
(-1.77102 0 0.123149)
(-1.80173 0 0.108747)
(-1.8291 0 0.095598)
(-1.85301 0 0.084053)
(-1.87485 0 0.075245)
(-1.89634 0 0.0684331)
(-1.91743 0 0.0613729)
(-1.93624 0 0.0530191)
(-1.95119 0 0.0450747)
(-1.96297 0 0.0405709)
(-1.97436 0 0.0409156)
(-1.98805 0 0.0444298)
(-2.00463 0 0.0475825)
(-2.02216 0 0.0473027)
(-2.03738 0 0.0428238)
(-2.04799 0 0.0362629)
(-2.05445 0 0.0310376)
(-2.0592 0 0.02889)
(-2.06334 0 0.0287778)
(-2.06533 0 0.0290071)
(-0.471282 0 1.09277)
(-0.90272 0 0.99777)
(-1.25964 0 0.769224)
(-1.45762 0 0.584334)
(-1.58998 0 0.459828)
(-1.68294 0 0.360894)
(-1.74876 0 0.290171)
(-1.79992 0 0.240448)
(-1.84048 0 0.199798)
(-1.87206 0 0.167464)
(-1.89973 0 0.145578)
(-1.9269 0 0.129434)
(-1.95202 0 0.113751)
(-1.97311 0 0.0993721)
(-1.99195 0 0.0893033)
(-2.01184 0 0.0828018)
(-2.03295 0 0.0754958)
(-2.05177 0 0.0649004)
(-2.06505 0 0.0535934)
(-2.07351 0 0.046901)
(-2.08166 0 0.0475549)
(-2.0939 0 0.052987)
(-2.11119 0 0.0577603)
(-2.13061 0 0.0573528)
(-2.14722 0 0.0506217)
(-2.15746 0 0.0407206)
(-2.16194 0 0.0330365)
(-2.16452 0 0.0304744)
(-2.16748 0 0.0310987)
(-2.16916 0 0.0317402)
(-0.701346 0 2.08549)
(-1.23586 0 1.66019)
(-1.61399 0 1.06082)
(-1.73899 0 0.671338)
(-1.81139 0 0.534304)
(-1.86921 0 0.419506)
(-1.90347 0 0.337187)
(-1.93591 0 0.281476)
(-1.9665 0 0.228302)
(-1.98728 0 0.183794)
(-2.00501 0 0.161129)
(-2.02765 0 0.148876)
(-2.05096 0 0.132556)
(-2.06859 0 0.114059)
(-2.08288 0 0.101591)
(-2.10052 0 0.0960325)
(-2.12261 0 0.0890157)
(-2.14265 0 0.075363)
(-2.15412 0 0.0590179)
(-2.15769 0 0.0492883)
(-2.16086 0 0.0512029)
(-2.17102 0 0.0605077)
(-2.1896 0 0.0684831)
(-2.21205 0 0.0685315)
(-2.23095 0 0.0590138)
(-2.24074 0 0.0445245)
(-2.24219 0 0.0334659)
(-2.24153 0 0.0307974)
(-2.24302 0 0.0330175)
(-2.24451 0 0.0343246)
(9.9959 0 0.138444)
(9.98225 0 0.275236)
(9.95811 0 0.412521)
(9.92453 0 0.552269)
(9.88242 0 0.696155)
(9.83216 0 0.845733)
(9.77399 0 1.00251)
(9.70815 0 1.16796)
(9.63492 0 1.34355)
(9.55458 0 1.53074)
(9.4674 0 1.73102)
(9.37364 0 1.94594)
(9.27356 0 2.17714)
(9.16743 0 2.42635)
(9.05549 0 2.69548)
(8.93796 0 2.98667)
(8.81504 0 3.30239)
(8.68686 0 3.6455)
(8.55349 0 4.01954)
(8.41493 0 4.42887)
(8.27111 0 4.87915)
(8.12191 0 5.37782)
(7.96728 0 5.93507)
(7.80748 0 6.56525)
(7.64372 0 7.28943)
(7.48096 0 8.14021)
(7.33245 0 9.17154)
(7.28822 0 10.477)
(7.74608 0 12.2013)
(7.92725 0 14.9199)
(9.99638 0 0.143404)
(9.98434 0 0.285091)
(9.96305 0 0.427249)
(9.93351 0 0.571878)
(9.89656 0 0.72067)
(9.85262 0 0.875181)
(9.80197 0 1.03692)
(9.74492 0 1.20736)
(9.68184 0 1.38797)
(9.61309 0 1.58019)
(9.53907 0 1.7855)
(9.46018 0 2.00545)
(9.37688 0 2.24162)
(9.28963 0 2.49577)
(9.19896 0 2.76976)
(9.10545 0 3.06571)
(9.00974 0 3.38606)
(8.9126 0 3.73365)
(8.81493 0 4.11192)
(8.7179 0 4.52515)
(8.62314 0 4.97876)
(8.533 0 5.47977)
(8.4512 0 6.0375)
(8.38399 0 6.66454)
(8.34255 0 7.37813)
(8.34894 0 8.20167)
(8.442 0 9.16532)
(8.67761 0 10.3024)
(9.32454 0 11.5575)
(9.81455 0 12.6466)
(9.99688 0 0.147841)
(9.98651 0 0.293902)
(9.96819 0 0.4404)
(9.94283 0 0.589348)
(9.91121 0 0.742443)
(9.87377 0 0.901235)
(9.83085 0 1.06722)
(9.78283 0 1.24186)
(9.73013 0 1.42659)
(9.67322 0 1.62282)
(9.61262 0 1.83202)
(9.54887 0 2.05565)
(9.4826 0 2.29528)
(9.41451 0 2.55256)
(9.34539 0 2.8293)
(9.27616 0 3.12749)
(9.20792 0 3.44941)
(9.14201 0 3.79769)
(9.08012 0 4.17545)
(9.02445 0 4.58645)
(8.97804 0 5.0353)
(8.94516 0 5.52767)
(8.93209 0 6.07054)
(8.94836 0 6.67232)
(9.00845 0 7.34244)
(9.13452 0 8.08955)
(9.35755 0 8.91555)
(9.68708 0 9.80933)
(10.2529 0 10.7195)
(10.9408 0 11.4363)
(9.9974 0 0.151703)
(9.98874 0 0.301564)
(9.97347 0 0.451806)
(9.95239 0 0.604447)
(9.92623 0 0.761173)
(9.89544 0 0.92352)
(9.86041 0 1.09296)
(9.82157 0 1.27092)
(9.77941 0 1.45879)
(9.73451 0 1.65795)
(9.68746 0 1.86979)
(9.63897 0 2.0957)
(9.58981 0 2.33716)
(9.54089 0 2.5957)
(9.49326 0 2.87298)
(9.44815 0 3.17079)
(9.40704 0 3.49115)
(9.37176 0 3.83632)
(9.34461 0 4.20887)
(9.32856 0 4.61178)
(9.32754 0 5.04845)
(9.34686 0 5.52273)
(9.39376 0 6.03874)
(9.47814 0 6.60045)
(9.61322 0 7.21064)
(9.81582 0 7.86897)
(10.1087 0 8.56837)
(10.5006 0 9.29416)
(11.0584 0 10.0362)
(11.8518 0 10.6814)
(9.99792 0 0.154942)
(9.99101 0 0.307983)
(9.97884 0 0.461334)
(9.96212 0 0.616998)
(9.9415 0 0.776643)
(9.91745 0 0.941775)
(9.89039 0 1.11383)
(9.8608 0 1.29418)
(9.82926 0 1.48418)
(9.79639 0 1.68513)
(9.7629 0 1.89832)
(9.72961 0 2.12506)
(9.69743 0 2.36669)
(9.66745 0 2.62458)
(9.64091 0 2.90019)
(9.61931 0 3.19504)
(9.60441 0 3.51079)
(9.59841 0 3.84923)
(9.60398 0 4.21226)
(9.62453 0 4.60193)
(9.66436 0 5.02036)
(9.72901 0 5.46954)
(9.82556 0 5.9511)
(9.96295 0 6.46573)
(10.1523 0 7.01236)
(10.4066 0 7.58711)
(10.7432 0 8.18185)
(11.1737 0 8.7819)
(11.7212 0 9.37567)
(12.4747 0 9.88824)
(9.99845 0 0.157516)
(9.9933 0 0.313074)
(9.98427 0 0.468855)
(9.97193 0 0.626836)
(9.95689 0 0.788649)
(9.9396 0 0.95576)
(9.92053 0 1.12955)
(9.9002 0 1.31136)
(9.87922 0 1.50243)
(9.8583 0 1.70399)
(9.83822 0 1.91724)
(9.81989 0 2.14335)
(9.80434 0 2.3835)
(9.79278 0 2.63888)
(9.78661 0 2.91067)
(9.7875 0 3.20012)
(9.7974 0 3.50845)
(9.81868 0 3.83693)
(9.85421 0 4.18676)
(9.90748 0 4.55908)
(9.98277 0 4.95478)
(10.0853 0 5.37434)
(10.2214 0 5.81749)
(10.3987 0 6.28278)
(10.6259 0 6.76696)
(10.9127 0 7.26424)
(11.2705 0 7.7654)
(11.707 0 8.25488)
(12.2233 0 8.71597)
(12.8994 0 9.10715)
(9.99898 0 0.159385)
(9.9956 0 0.316759)
(9.9897 0 0.474258)
(9.98176 0 0.633812)
(9.97228 0 0.797009)
(9.96172 0 0.965265)
(9.95058 0 1.1399)
(9.9394 0 1.32217)
(9.92884 0 1.51325)
(9.91965 0 1.71426)
(9.91267 0 1.92627)
(9.90888 0 2.15032)
(9.90939 0 2.38739)
(9.91549 0 2.63846)
(9.92866 0 2.90445)
(9.95066 0 3.18626)
(9.98352 0 3.48471)
(10.0296 0 3.80051)
(10.0919 0 4.13422)
(10.1735 0 4.48615)
(10.2786 0 4.85619)
(10.4117 0 5.24364)
(10.578 0 5.64693)
(10.7836 0 6.06324)
(11.0349 0 6.48809)
(11.3383 0 6.91479)
(11.6998 0 7.33397)
(12.1237 0 7.73222)
(12.6038 0 8.09496)
(13.2094 0 8.40165)
(9.99951 0 0.160517)
(9.99789 0 0.318974)
(9.9951 0 0.477444)
(9.9915 0 0.637801)
(9.98752 0 0.801575)
(9.9836 0 0.970118)
(9.98025 0 1.14468)
(9.97804 0 1.32643)
(9.97765 0 1.51646)
(9.97985 0 1.71575)
(9.98552 0 1.92526)
(9.99568 0 2.14585)
(10.0115 0 2.37833)
(10.0342 0 2.62344)
(10.0655 0 2.88184)
(10.1069 0 3.15407)
(10.1606 0 3.44055)
(10.2288 0 3.74152)
(10.3142 0 4.05696)
(10.4198 0 4.3865)
(10.549 0 4.72926)
(10.7057 0 5.08374)
(10.8941 0 5.44753)
(11.1183 0 5.81713)
(11.3828 0 6.18761)
(11.6913 0 6.55243)
(12.0466 0 6.9033)
(12.4503 0 7.2299)
(12.8947 0 7.52106)
(13.4379 0 7.76548)
(10 0 0.160882)
(10.0001 0 0.319662)
(10.0004 0 0.478335)
(10.0011 0 0.638702)
(10.0025 0 0.802227)
(10.0051 0 0.97019)
(10.0093 0 1.14376)
(10.0158 0 1.32401)
(10.0252 0 1.51192)
(10.0383 0 1.70838)
(10.0561 0 1.91417)
(10.0794 0 2.13)
(10.1096 0 2.3565)
(10.1478 0 2.59416)
(10.1956 0 2.84339)
(10.2546 0 3.10441)
(10.3267 0 3.3773)
(10.4141 0 3.66186)
(10.5191 0 3.95761)
(10.6443 0 4.26366)
(10.7925 0 4.57864)
(10.9667 0 4.90052)
(11.1699 0 5.22651)
(11.4051 0 5.55289)
(11.6749 0 5.87492)
(11.9811 0 6.18674)
(12.3246 0 6.48148)
(12.7051 0 6.75129)
(13.1149 0 6.98783)
(13.6028 0 7.18424)
(10.0005 0 0.160459)
(10.0023 0 0.318781)
(10.0056 0 0.476869)
(10.0104 0 0.636441)
(10.017 0 0.798883)
(10.0259 0 0.965395)
(10.0374 0 1.13706)
(10.0522 0 1.31485)
(10.071 0 1.49963)
(10.0945 0 1.69216)
(10.1236 0 1.89309)
(10.1593 0 2.10297)
(10.2027 0 2.32223)
(10.255 0 2.55115)
(10.3177 0 2.7899)
(10.3923 0 3.03843)
(10.4805 0 3.2965)
(10.5841 0 3.5636)
(10.7052 0 3.83889)
(10.8459 0 4.12115)
(11.0084 0 4.40868)
(11.1948 0 4.69923)
(11.4072 0 4.98991)
(11.6475 0 5.27715)
(11.9169 0 5.55665)
(12.2161 0 5.82343)
(12.5445 0 6.07196)
(12.9009 0 6.29633)
(13.2782 0 6.49049)
(13.7182 0 6.65029)
(10.001 0 0.159234)
(10.0044 0 0.316304)
(10.0106 0 0.473009)
(10.0194 0 0.630972)
(10.0311 0 0.791497)
(10.0459 0 0.955696)
(10.0644 0 1.12455)
(10.0872 0 1.29895)
(10.1148 0 1.47962)
(10.148 0 1.66722)
(10.1876 0 1.86225)
(10.2346 0 2.06509)
(10.2901 0 2.27602)
(10.3551 0 2.49512)
(10.431 0 2.72234)
(10.5191 0 2.95741)
(10.6209 0 3.19986)
(10.738 0 3.44892)
(10.8719 0 3.70354)
(11.0244 0 3.96228)
(11.197 0 4.22332)
(11.3912 0 4.48436)
(11.6084 0 4.74263)
(11.8493 0 4.99489)
(12.1145 0 5.2374)
(12.4036 0 5.46606)
(12.7155 0 5.67656)
(13.0484 0 5.86452)
(13.396 0 6.0257)
(13.7948 0 6.1576)
(10.0015 0 0.157198)
(10.0065 0 0.312214)
(10.0154 0 0.466734)
(10.028 0 0.622279)
(10.0444 0 0.780061)
(10.065 0 0.9411)
(10.0901 0 1.10629)
(10.1202 0 1.27639)
(10.1561 0 1.45205)
(10.1982 0 1.63377)
(10.2475 0 1.82195)
(10.3049 0 2.01682)
(10.3711 0 2.21849)
(10.4473 0 2.42689)
(10.5347 0 2.6418)
(10.6342 0 2.86276)
(10.7473 0 3.08914)
(10.8751 0 3.32)
(11.0189 0 3.55416)
(11.1799 0 3.79012)
(11.3592 0 4.02602)
(11.5577 0 4.25968)
(11.7761 0 4.48857)
(12.0145 0 4.70984)
(12.2728 0 4.92037)
(12.5503 0 5.11687)
(12.8453 0 5.29604)
(13.1559 0 5.4547)
(13.4768 0 5.58993)
(13.8403 0 5.70024)
(10.0019 0 0.15435)
(10.0084 0 0.306512)
(10.0199 0 0.45805)
(10.0361 0 0.610375)
(10.0571 0 0.764603)
(10.083 0 0.921663)
(10.1142 0 1.08235)
(10.1512 0 1.24732)
(10.1946 0 1.41711)
(10.245 0 1.59212)
(10.303 0 1.77262)
(10.3695 0 1.95871)
(10.4453 0 2.15037)
(10.5312 0 2.34741)
(10.6282 0 2.54945)
(10.7373 0 2.75593)
(10.8594 0 2.96609)
(10.9956 0 3.17892)
(11.1466 0 3.39318)
(11.3134 0 3.60738)
(11.4965 0 3.81975)
(11.6964 0 4.02829)
(11.9133 0 4.23077)
(12.147 0 4.42476)
(12.3969 0 4.60772)
(12.6619 0 4.77706)
(12.9403 0 4.93031)
(13.2303 0 5.0652)
(13.5273 0 5.17972)
(13.8604 0 5.27304)
(10.0024 0 0.150697)
(10.0102 0 0.299211)
(10.0241 0 0.446978)
(10.0438 0 0.595298)
(10.0689 0 0.745189)
(10.0997 0 0.897483)
(10.1366 0 1.05288)
(10.1799 0 1.21194)
(10.2302 0 1.37509)
(10.2879 0 1.54264)
(10.3537 0 1.71474)
(10.4283 0 1.89139)
(10.5122 0 2.07246)
(10.6064 0 2.25765)
(10.7115 0 2.4465)
(10.8283 0 2.63837)
(10.9575 0 2.83242)
(11.0997 0 3.02763)
(11.2557 0 3.22278)
(11.4259 0 3.41645)
(11.6105 0 3.607)
(11.8097 0 3.79268)
(12.0232 0 3.97154)
(12.2506 0 4.14159)
(12.4911 0 4.30079)
(12.7435 0 4.44716)
(13.0061 0 4.57884)
(13.2772 0 4.69423)
(13.5529 0 4.79201)
(13.8596 0 4.87174)
(10.0027 0 0.146251)
(10.0119 0 0.290336)
(10.0281 0 0.433564)
(10.0508 0 0.577117)
(10.0798 0 0.721915)
(10.1152 0 0.868698)
(10.1572 0 1.01807)
(10.2062 0 1.1705)
(10.2626 0 1.32633)
(10.3269 0 1.48576)
(10.3995 0 1.64886)
(10.481 0 1.81554)
(10.5719 0 1.98559)
(10.6729 0 2.15864)
(10.7845 0 2.33416)
(10.9073 0 2.51147)
(11.0417 0 2.68973)
(11.1883 0 2.86793)
(11.3472 0 3.04491)
(11.5188 0 3.21936)
(11.7031 0 3.38984)
(11.8999 0 3.5548)
(12.1087 0 3.71263)
(12.3289 0 3.86169)
(12.5597 0 4.00039)
(12.7996 0 4.12721)
(13.0473 0 4.24081)
(13.3011 0 4.34006)
(13.5578 0 4.42411)
(13.8415 0 4.49279)
(10.0031 0 0.14103)
(10.0134 0 0.279927)
(10.0317 0 0.417867)
(10.0573 0 0.555921)
(10.0898 0 0.694908)
(10.1293 0 0.835479)
(10.1759 0 0.978148)
(10.23 0 1.1233)
(10.2919 0 1.2712)
(10.3618 0 1.42195)
(10.4403 0 1.57556)
(10.5277 0 1.73188)
(10.6244 0 1.89062)
(10.7309 0 2.05137)
(10.8476 0 2.21359)
(10.9748 0 2.37657)
(11.1129 0 2.5395)
(11.2621 0 2.70141)
(11.4224 0 2.86125)
(11.5939 0 3.01784)
(11.7765 0 3.16992)
(11.9696 0 3.31617)
(12.1728 0 3.45528)
(12.3853 0 3.58593)
(12.6062 0 3.70688)
(12.8342 0 3.817)
(13.068 0 3.91532)
(13.3061 0 4.00107)
(13.5459 0 4.0737)
(13.8095 0 4.13323)
(10.0034 0 0.135059)