/*--------------------------------*- C++ -*----------------------------------*\
  =========                 |
  \\      /  F ield         | OpenFOAM: The Open Source CFD Toolbox
   \\    /   O peration     | Website:  https://openfoam.org
    \\  /    A nd           | Version:  dev
     \\/     M anipulation  |
\*---------------------------------------------------------------------------*/
FoamFile
{
    version     2.0;
    format      ascii;
    class       volScalarField;
    location    "5.1";
    object      p;
}
// * * * * * * * * * * * * * * * * * * * * * * * * * * * * * * * * * * * * * //

dimensions      [0 2 -2 0 0 0 0];

internalField   nonuniform List<scalar> 
2790
(
147.002
146.909
147.176
147.747
148.527
149.485
150.617
151.924
153.4
155.041
156.841
158.792
160.885
163.11
165.451
167.886
170.391
172.93
175.462
177.936
180.294
182.472
184.402
186.023
187.282
188.156
188.593
188.648
188.699
188.912
146.799
146.817
147.109
147.677
148.453
149.407
150.535
151.836
153.305
154.938
156.728
158.669
160.751
162.965
165.295
167.72
170.216
172.749
175.28
177.758
180.126
182.321
184.276
185.924
187.209
188.083
188.48
188.535
188.667
188.952
146.6
146.688
146.999
147.557
148.32
149.262
150.375
151.657
153.105
154.713
156.475
158.384
160.432
162.608
164.896
167.278
169.73
172.221
174.713
177.16
179.51
181.703
183.675
185.365
186.716
187.691
188.284
188.64
188.955
189.254
146.375
146.494
146.818
147.367
148.115
149.04
150.134
151.392
152.811
154.385
156.109
157.974
159.973
162.094
164.322
166.64
169.024
171.447
173.874
176.265
178.572
180.744
182.726
184.465
185.92
187.072
187.94
188.611
189.164
189.683
146.115
146.247
146.579
147.121
147.853
148.757
149.825
151.052
152.433
153.965
155.639
157.448
159.384
161.434
163.586
165.822
168.12
170.455
172.797
175.11
177.355
179.49
181.472
183.263
184.833
186.176
187.306
188.269
189.08
189.826
145.814
145.952
146.286
146.818
147.53
148.408
149.444
150.633
151.971
153.45
155.065
156.808
158.669
160.637
162.698
164.836
167.031
169.26
171.497
173.712
175.875
177.952
179.914
181.735
183.398
184.9
186.246
187.452
188.472
189.39
145.471
145.61
145.942
146.46
147.15
147.998
148.997
150.142
151.428
152.848
154.395
156.061
157.835
159.708
161.665
163.691
165.767
167.873
169.986
172.082
174.137
176.128
178.036
179.846
181.552
183.152
184.646
186.025
187.19
188.237
145.086
145.224
145.548
146.05
146.714
147.527
148.485
149.58
150.808
152.161
153.631
155.211
156.889
158.655
160.496
162.395
164.336
166.3
168.268
170.219
172.137
174.004
175.811
177.554
179.232
180.851
182.406
183.878
185.128
186.279
144.66
144.794
145.107
145.59
146.225
147.001
147.912
148.952
150.116
151.395
152.781
154.265
155.837
157.486
159.197
160.955
162.744
164.548
166.347
168.126
169.87
171.567
173.215
174.816
176.378
177.912
179.421
180.891
182.163
183.401
144.194
144.322
144.622
145.083
145.685
146.42
147.281
148.262
149.356
150.554
151.849
153.23
154.687
156.207
157.777
159.381
161.002
162.625
164.23
165.804
167.332
168.807
170.225
171.593
172.926
174.244
175.565
176.903
178.103
179.407
143.688
143.81
144.095
144.531
145.099
145.789
146.596
147.513
148.532
149.645
150.842
152.113
153.447
154.829
156.247
157.683
159.12
160.541
161.928
163.263
164.53
165.72
166.827
167.856
168.82
169.748
170.679
171.678
172.64
173.958
143.146
143.261
143.529
143.937
144.468
145.112
145.862
146.711
147.651
148.673
149.767
150.922
152.125
153.362
154.617
155.873
157.112
158.313
159.455
160.517
161.479
162.321
163.029
163.595
164.021
164.331
164.574
164.883
165.265
166.438
142.569
142.676
142.926
143.305
143.797
144.392
145.081
145.86
146.717
147.645
148.631
149.665
150.731
151.816
152.901
153.967
154.994
155.958
156.833
157.592
158.205
158.64
158.862
158.837
158.534
157.936
157.062
156.07
155.123
155.628
141.96
142.059
142.289
142.638
143.089
143.632
144.26
144.965
145.737
146.567
147.442
148.35
149.276
150.202
151.111
151.98
152.785
153.499
154.09
154.522
154.752
154.729
154.391
153.659
152.436
150.607
148.045
144.744
140.798
138.764
141.321
141.411
141.621
141.938
142.347
142.837
143.401
144.031
144.716
145.446
146.208
146.988
147.769
148.534
149.262
149.929
150.507
150.963
151.259
151.349
151.176
150.666
149.721
148.206
145.927
142.595
137.753
130.739
120.281
108.066
1.13451
1.11644
1.05353
0.966666
0.876292
0.792059
0.716762
0.650396
0.592041
0.540472
0.494393
0.452568
0.413901
0.377462
0.342495
0.308428
0.274895
0.241765
0.209173
0.177509
0.147351
0.119316
0.0938753
0.0712668
0.0518473
0.035496
0.0221895
0.011958
0.00477794
-0.000237431
1.09046
1.06971
1.01033
0.93031
0.847292
0.769502
0.699431
0.637197
0.582056
0.532955
0.488759
0.448367
0.410783
0.375143
0.340737
0.307016
0.27363
0.240471
0.207709
0.175803
0.14542
0.117271
0.0919335
0.0697539
0.0505531
0.0343017
0.0211106
0.0110616
0.00434106
0.00115102
1.04207
1.017
0.959773
0.886278
0.811251
0.740835
0.676945
0.619727
0.568563
0.522562
0.480759
0.442207
0.406026
0.371437
0.337784
0.304552
0.271411
0.238276
0.20537
0.173237
0.142664
0.114466
0.089244
0.067218
0.0482017
0.0320266
0.0186678
0.00870283
0.00286294
0.00148226
0.995962
0.966549
0.910824
0.843015
0.775458
0.712022
0.65404
0.601685
0.554422
0.511498
0.472103
0.435423
0.400689
0.367203
0.334367
0.301702
0.268899
0.235894
0.202945
0.170672
0.139958
0.111715
0.0865826
0.0647502
0.0459915
0.0300315
0.0168798
0.00707593
0.00127882
-0.000169756
0.964848
0.931214
0.877016
0.813432
0.751395
0.692872
0.63891
0.589777
0.545088
0.504197
0.466392
0.430947
0.397161
0.364395
0.332093
0.299804
0.26724
0.234353
0.201428
0.169125
0.138384
0.110157
0.0850954
0.0633855
0.0447993
0.029047
0.0160976
0.00656955
0.00149306
-0.000243069
0.959964
0.921133
0.867887
0.805751
0.745704
0.688644
0.635775
0.587345
0.543121
0.502587
0.465052
0.429805
0.396157
0.363482
0.331237
0.298991
0.266476
0.233662
0.200846
0.168678
0.138072
0.109945
0.084913
0.0631933
0.0446276
0.029003
0.0164526
0.00704038
0.00126623
-0.000445178
0.991223
0.944783
0.889011
0.823398
0.759786
0.699626
0.644214
0.593693
0.547781
0.505896
0.467282
0.431169
0.396833
0.363623
0.330985
0.2985
0.265927
0.233251
0.200738
0.168949
0.138682
0.110776
0.0858049
0.0640534
0.0455248
0.0297872
0.0167699
0.00699076
0.000955331
-0.000550694
1.06433
1.00638
0.939357
0.862873
0.789509
0.721639
0.66014
0.604899
0.555443
0.510937
0.470375
0.432811
0.397388
0.363368
0.330147
0.297313
0.264694
0.232324
0.200422
0.169376
0.139739
0.112197
0.0872465
0.0651277
0.0461067
0.0303098
0.0173268
0.00698958
0.000306707
-0.000728373
1.17881
1.09753
1.009
0.913531
0.82497
0.746535
0.677777
0.616913
0.562868
0.514948
0.471922
0.432629
0.396058
0.36129
0.327581
0.29452
0.262051
0.230335
0.199524
0.169674
0.140849
0.113366
0.0880003
0.0655761
0.0464914
0.030738
0.017676
0.00678885
-0.000439939
-0.00092381
1.31215
1.19605
1.0798
0.964001
0.857659
0.764571
0.685656
0.619486
0.563123
0.513832
0.469831
0.429835
0.392816
0.35776
0.32378
0.290482
0.258077
0.22702
0.197471
0.169094
0.141426
0.114388
0.0886747
0.0655867
0.0461775
0.0305381
0.0175735
0.00633841
-0.00120819
-0.00110361
1.41789
1.27416
1.12737
0.987785
0.86755
0.766894
0.683183
0.613881
0.556079
0.506456
0.462425
0.422521
0.385829
0.351224
0.317497
0.284199
0.252021
0.222024
0.194443
0.16828
0.142129
0.115365
0.0888477
0.0646384
0.0446965
0.0293508
0.0168906
0.00572932
-0.00185113
-0.00123565
1.497
1.30536
1.13037
0.972725
0.843188
0.740222
0.657818
0.591196
0.536716
0.490251
0.448388
0.409885
0.374594
0.34146
0.308609
0.275333
0.24316
0.214412
0.189675
0.166898
0.14304
0.116518
0.0884889
0.0623327
0.0414932
0.0267617
0.0155107
0.00504867
-0.00228033
-0.00129101
1.48327
1.22346
1.03151
0.879777
0.763081
0.674701
0.604953
0.548451
0.503265
0.464656
0.427585
0.391551
0.358646
0.328352
0.297306
0.263887
0.231016
0.203493
0.18282
0.165191
0.14475
0.11835
0.0876771
0.0582365
0.0358921
0.0223056
0.0133977
0.00447229
-0.00240561
-0.00124674
1.201
0.89057
0.764099
0.682046
0.611393
0.563065
0.522917
0.484938
0.455365
0.430502
0.400986
0.367411
0.337441
0.312122
0.284613
0.250609
0.215292
0.188342
0.173404
0.163716
0.148424
0.121833
0.0866717
0.0518058
0.0269519
0.0153556
0.0106071
0.00434564
-0.00210091
-0.00108487
0.478788
0.120708
0.234462
0.369509
0.383972
0.413952
0.425091
0.405183
0.391882
0.389659
0.372563
0.339477
0.311385
0.293842
0.272631
0.236531
0.194656
0.166215
0.159562
0.162677
0.155469
0.128202
0.0857616
0.0422187
0.0132577
0.00496553
0.00731735
0.00532135
-0.00117392
-0.000796558
140.642
140.722
140.911
141.195
141.56
141.996
142.493
143.045
143.64
144.267
144.912
145.56
146.194
146.793
147.336
147.795
148.139
148.33
148.324
148.064
147.477
146.468
144.904
142.59
139.228
134.322
126.952
115.202
93.0482
33.2816
139.915
139.986
140.152
140.402
140.721
141.099
141.528
141.999
142.5
143.02
143.545
144.057
144.539
144.969
145.322
145.568
145.675
145.598
145.287
144.678
143.684
142.194
140.048
137.015
132.738
126.63
117.661
104.097
84.5725
56.1131
139.145
139.206
139.349
139.563
139.834
140.154
140.512
140.9
141.306
141.718
142.119
142.494
142.822
143.081
143.243
143.279
143.149
142.809
142.204
141.261
139.89
137.971
135.338
131.761
126.916
120.347
111.463
99.6255
85.3845
68.7505
138.334
138.386
138.504
138.681
138.904
139.163
139.45
139.754
140.063
140.365
140.643
140.88
141.055
141.143
141.119
140.947
140.59
139.999
139.117
137.871
136.17
133.896
130.898
126.979
121.891
115.343
107.037
96.6401
84.0894
68.9456
137.485
137.526
137.62
137.759
137.933
138.131
138.345
138.565
138.777
138.969
139.125
139.225
139.249
139.172
138.965
138.596
138.023
137.2
136.068
134.558
132.583
130.038
126.792
122.691
117.553
111.179
103.368
93.8775
82.5396
69.5612
136.598
136.628
136.698
136.8
136.924
137.061
137.203
137.338
137.454
137.538
137.572
137.539
137.417
137.18
136.801
136.246
135.475
134.442
133.093
131.362
129.173
126.434
123.041
118.874
113.803
107.693
100.422
91.8902
82.0878
71.4278
135.677
135.697
135.742
135.806
135.881
135.957
136.027
136.079
136.101
136.078
135.996
135.834
135.571
135.184
134.644
133.917
132.968
131.753
130.22
128.314
125.967
123.105
119.646
115.504
110.59
104.827
98.1588
90.5752
82.1193
73.1269
134.725
134.734
134.755
134.782
134.807
134.824
134.823
134.794
134.724
134.599
134.404
134.119
133.725
133.197
132.509
131.629
130.524
129.153
127.473
125.433
122.98
120.055
116.597
112.546
107.851
102.47
96.3896
89.6302
82.2415
74.4959
133.745
133.744
133.741
133.731
133.709
133.668
133.598
133.49
133.331
133.109
132.807
132.407
131.89
131.234
130.413
129.398
128.159
126.661
124.866
122.733
120.218
117.279
113.871
109.958
105.511
100.513
94.9731
88.9234
82.4181
75.6849
132.742
132.731
132.704
132.659
132.59
132.493
132.357
132.173
131.931
131.616
131.213
130.707
130.079
129.307
128.368
127.238
125.888
124.29
122.411
120.218
117.68
114.765
111.443
107.694
103.506
98.8775
93.828
88.3963
82.6356
76.7308
131.72
131.7
131.65
131.57
131.457
131.305
131.107
130.852
130.53
130.129
129.634
129.031
128.301
127.427
126.387
125.16
123.722
122.047
120.112
117.89
115.358
112.495
109.283
105.713
101.782
97.5009
92.8929
87.9974
82.8622
77.6358
130.684
130.654
130.583
130.47
130.315
130.112
129.854
129.532
129.137
128.656
128.077
127.386
126.568
125.605
124.48
123.173
121.666
119.938
117.97
115.743
113.241
110.45
107.362
103.975
100.294
96.3332
92.1185
87.6859
83.0775
78.4124
129.64
129.601
129.509
129.366
129.17
128.919
128.606
128.222
127.759
127.206
126.551
125.783
124.887
123.848
122.653
121.284
119.727
117.965
115.984
113.771
111.316
108.611
105.654
102.448
99.0026
95.3341
91.4674
87.4348
83.2722
79.0757
128.592
128.545
128.435
128.262
128.029
127.734
127.369
126.929
126.404
125.786
125.064
124.228
123.266
122.165
120.913
119.498
117.906
116.126
114.149
111.965
109.569
106.958
104.134
101.103
97.8762
94.4717
90.9119
87.2251
83.4417
79.6394
127.548
127.494
127.365
127.165
126.898
126.562
126.151
125.659
125.08
124.404
123.624
122.73
121.712
120.561
119.265
117.816
116.204
114.421
112.459
110.315
107.986
105.472
102.779
99.9133
96.8886
93.721
90.4314
87.0439
83.5842
80.1156
126.514
126.452
126.307
126.083
125.785
125.411
124.958
124.421
123.792
123.066
122.236
121.293
120.231
119.039
117.712
116.241
114.62
112.844
110.908
108.811
106.553
104.137
101.57
98.8591
96.0183
93.0625
90.0102
86.8823
83.7
80.5152
125.496
125.428
125.268
125.021
124.695
124.288
123.798
123.22
122.549
121.78
120.908
119.925
118.826
117.605
116.255
114.772
113.152
111.391
109.488
107.443
105.258
102.938
100.49
97.9224
95.248
92.4808
89.6369
86.7341
83.7904
80.8482
124.501
124.427
124.254
123.987
123.636
123.2
122.677
122.064
121.356
120.551
119.643
118.629
117.502
116.259
114.896
113.41
111.798
110.058
108.193
106.202
104.09
101.862
99.5247
97.0884
94.564
91.9641
89.3029
86.5956
83.8574
81.1233
123.537
123.458
123.273
122.988
122.614
122.153
121.601
120.958
120.22
119.385
118.449
117.409
116.262
115.005
113.635
112.152
110.554
108.841
107.015
105.079
103.037
100.896
98.6624
96.3453
93.9551
91.5032
89.002
86.4646
83.9037
81.3484
122.61
122.527
122.331
122.032
121.638
121.154
120.579
119.91
119.147
118.287
117.329
116.27
115.109
113.843
112.473
110.998
109.417
107.733
105.949
104.067
102.093
100.032
97.8929
95.6833
93.4127
91.0913
88.7299
86.3399
83.9321
81.5307
121.729
121.642
121.437
121.124
120.714
120.211
119.615
118.926
118.142
117.262
116.287
115.215
114.044
112.776
111.409
109.945
108.386
106.732
104.988
103.158
101.247
99.2617
97.2081
95.0947
92.93
90.7232
88.4837
86.2214
83.9456
81.6764
120.901
120.81
120.598
120.273
119.849
119.33
118.718
118.011
117.21
116.316
115.328
114.246
113.072
111.804
110.444
108.994
107.457
105.834
104.13
102.349
100.496
98.5781
96.6015
94.5736
92.5021
90.3954
88.2617
86.1096
83.9473
81.7916
120.135
120.041
119.822
119.487
119.051
118.519
117.892
117.172
116.358
115.452
114.456
113.369
112.192
110.928
109.578
108.143
106.628
105.035
103.368
101.632
99.8332
97.9762
96.068
94.1152
92.1252
90.1052
88.0628
86.0053
83.9402
81.8812
119.437
119.341
119.116
118.773
118.326
117.783
117.145
116.414
115.591
114.677
113.675
112.585
111.41
110.151
108.811
107.393
105.899
104.334
102.702
101.007
99.2558
97.4528
95.6044
93.7171
91.7974
89.852
87.8875
85.9108
83.9281
81.9513
118.818
118.719
118.489
118.138
117.683
117.131
116.484
115.744
114.913
113.994
112.988
111.898
110.725
109.473
108.144
106.741
105.268
103.729
102.128
100.47
98.7601
97.004
95.2072
93.3759
91.516
89.6336
87.7349
85.8258
83.9122
82.0039
118.286
118.185
117.948
117.59
117.128
116.569
115.915
115.169
114.333
113.41
112.403
111.313
110.145
108.899
107.581
106.192
104.738
103.222
101.648
100.021
98.3474
96.631
94.8778
93.0934
91.2834
89.4535
87.6093
85.7562
83.8997
82.0481
117.852
117.746
117.503
117.137
116.668
116.103
115.443
114.693
113.853
112.928
111.92
110.832
109.667
108.428
107.119
105.744
104.306
102.809
101.258
99.6575
98.0129
96.329
94.6111
92.8644
91.0945
89.3064
87.5055
85.6968
83.8852
82.0776
117.526
117.415
117.162
116.79
116.316
115.746
115.083
114.328
113.486
112.559
111.551
110.465
109.304
108.072
106.771
105.406
103.981
102.499
100.967
99.3874
97.7659
96.1075
94.4172
92.7
90.9612
89.2056
87.4383
85.6642
83.8878
82.1153
117.324
117.189
116.919
116.541
116.065
115.493
114.827
114.07
113.227
112.301
111.294
110.21
109.052
107.824
106.529
105.172
103.756
102.286
100.766
99.2006
97.5949
95.9536
94.2817
92.5842
90.8658
89.1316
87.3862
85.6342
83.8801
82.1287
117.305
117.106
116.808
116.424
115.945
115.369
114.701
113.942
113.098
112.172
111.166
110.083
108.928
107.704
106.414
105.062
103.653
102.191
100.679
99.1233
97.528
95.8978
94.2377
92.5525
90.8471
89.126
87.3941
85.6557
83.9152
82.1768
-50.5467
-30.3145
-11.0864
35.759
28.3539
16.4
51.2624
39.1922
28.0057
52.6789
42.2637
34.2303
57.0143
48.7326
41.9821
61.3991
54.4951
48.6084
64.669
58.7912
53.7454
67.2618
62.2395
57.9328
69.4473
65.117
61.4098
71.2919
67.5146
64.2888
72.8427
69.5135
66.6774
74.1492
71.1875
68.6696
75.2518
72.5945
70.3388
76.1828
73.7801
71.7424
76.9688
74.7806
72.9262
77.6315
75.6257
73.9263
78.1892
76.3393
74.7719
78.6572
76.9411
75.4866
79.0482
77.4476
76.0898
79.3735
77.8724
76.5979
79.6426
78.2273
77.0242
79.8639
78.5226
77.3807
80.0443
78.7664
77.6767
80.1918
78.9678
77.9223
80.3088
79.1301
78.1217
80.4072
79.2659
78.2875
80.4783
79.3668
78.4132
80.5506
79.4619
78.5255
80.5844
79.5119
78.5895
80.6533
79.595
78.6791
-2.60142
-2.47711
-1.00671
0.126443
0.159035
0.243576
0.307123
0.287402
0.297131
0.351338
0.35742
0.310908
0.274634
0.2682
0.261082
0.222085
0.167439
0.134221
0.140506
0.165054
0.170604
0.141006
0.0862923
0.0286122
-0.0073867
-0.0105236
0.0038891
0.00874013
0.000803396
-0.000384258
2.64744
-0.330901
1.19927
0.701029
-0.591874
-0.38989
0.208089
0.261131
0.268226
0.369036
0.357158
0.255685
0.202038
0.234556
0.27145
0.226179
0.140942
0.0892125
0.10978
0.169023
0.195368
0.160719
0.0862713
0.00661093
-0.0405852
-0.0350514
0.000719802
0.0172496
0.00477713
0.000106413
13.7569
5.3729
2.58724
0.182932
-0.185932
1.07393
1.27035
0.0889071
-0.316547
0.0181606
0.37419
0.267398
0.178642
0.252643
0.31545
0.226529
0.0729524
-0.0181083
0.0355434
0.177178
0.251014
0.202587
0.0952002
-0.0188787
-0.0856188
-0.0690604
0.0010763
0.0369355
0.0134252
0.000544848
23.4898
13.6212
7.76592
3.99839
2.22909
1.61685
0.486171
-0.196872
0.0749803
1.24784
1.22841
0.158959
-0.247199
-0.105814
0.260207
0.297161
0.0549353
-0.0937859
0.0290358
0.252223
0.347632
0.252949
0.0911657
-0.0745071
-0.172628
-0.138012
-0.00475389
0.0731098
0.0310881
0.000377696
32.646
22.8878
15.5745
10.2817
6.63934
4.16187
2.31106
1.29175
0.989313
1.0354
0.559454
-0.00890426
-0.15588
0.503127
1.03703
0.569928
-0.0836281
-0.473759
-0.427751
0.14812
0.471432
0.344595
0.110728
-0.115868
-0.251684
-0.182383
0.0294872
0.151595
0.0700035
-0.00115303
40.6132
31.6903
23.8064
17.3768
12.4519
8.80635
6.13428
4.25219
2.98382
2.10121
1.34395
0.745047
0.452751
0.592522
0.591501
0.337221
-0.177902
-0.519844
-0.159546
0.753545
0.901617
0.406347
0.0612764
-0.240786
-0.46225
-0.445083
-0.0490169
0.246109
0.134331
-0.00688896
47.1139
39.3101
31.5364
24.6483
19.0248
14.5662
11.046
8.29663
6.20496
4.63697
3.41584
2.43954
1.75136
1.3617
1.05508
0.692683
0.199405
-0.111174
0.0703341
0.489237
0.631949
0.417948
0.096259
-0.247664
-0.496914
-0.365198
0.255484
0.518414
0.224171
-0.019925
52.4084
45.6778
38.4213
31.593
25.712
20.7686
16.6313
13.2118
10.4431
8.22825
6.43507
4.974
3.83733
3.00319
2.35055
1.73837
1.14216
0.736005
0.660178
0.781341
0.808558
0.582569
0.219119
-0.134493
-0.349182
-0.248203
0.123678
0.337643
0.296027
-0.0651015
56.7273
50.9105
44.3267
37.8541
32.0376
26.9277
22.4603
18.6
15.317
12.5548
10.2353
8.29607
6.70546
5.42525
4.37143
3.45347
2.6555
2.0526
1.7052
1.53632
1.349
1.01582
0.601678
0.229721
0.00494643
0.0174405
0.214428
0.343396
0.248768
-0.302536
60.2515
55.1836
49.281
43.2965
37.7435
32.6997
28.1361
24.0485
20.4378
17.2847
14.5509
12.1962
10.1873
8.48765
7.04262
5.7973
4.73113
3.86596
3.21889
2.7357
2.29482
1.81185
1.31114
0.870544
0.563611
0.436344
0.441909
0.405939
0.162957
-0.518951
63.1457
58.6858
53.4054
47.9371
42.7411
37.9006
33.4027
29.2588
25.4897
22.1001
19.0776
16.4009
14.0475
11.991
10.1974
8.63138
7.27164
6.1163
5.16126
4.36744
3.66186
2.9875
2.345
1.77648
1.32756
1.01847
0.806049
0.56667
0.164827
-0.596385
65.5426
61.5785
56.8399
51.8607
47.0459
42.4741
38.1383
34.0557
30.2555
26.7561
23.5609
20.6638
18.054
15.7167
13.6317
11.7765
10.1336
8.69284
7.44262
6.35434
5.38237
4.48716
3.6595
2.91793
2.28581
1.76737
1.32476
0.87072
0.305536
-0.526217
67.5419
63.986
59.7103
55.1708
50.7241
46.4405
42.314
38.3616
34.6148
31.0981
27.8238
24.796
22.0133
19.47
17.1561
15.0587
13.1651
11.465
9.94553
8.58588
7.35623
6.22898
5.19198
4.24941
3.40911
2.66622
1.98921
1.31685
0.580366
-0.334277
69.2187
66.0024
62.1202
57.967
53.8586
49.857
45.9548
42.1666
38.5226
35.0492
31.7631
28.6742
25.7874
23.1038
20.6204
18.3313
16.2291
14.3054
12.5499
10.9475
9.4783
8.1228
6.86883
5.71286
4.65348
3.68142
2.77118
1.88014
0.963101
-0.0572073
70.6308
67.6996
64.1524
60.3352
56.5301
52.7916
49.1106
45.4983
41.9822
38.588
35.3342
32.2334
29.2945
26.5229
23.9206
21.4865
19.2175
17.1085
15.1522
13.3381
11.6529
10.0826
8.6164
7.24725
5.96913
4.77115
3.63298
2.52494
1.41793
0.264611
71.8233
69.1331
65.8718
62.3461
58.8096
55.3108
51.8386
48.401
45.0222
41.726
38.531
35.4509
32.4966
29.6762
26.9949
24.455
22.0567
19.7977
17.674
15.6787
13.8029
12.0366
10.3707
8.79726
7.30838
5.89313
4.53518
3.21334
1.90831
0.595331
72.8319
70.3462
67.33
64.0568
60.7568
57.4731
54.1934
50.9224
47.681
44.4908
41.3692
38.3302
35.3855
32.5445
29.8143
27.1996
24.703
22.3247
20.0631
17.9144
15.8728
13.9312
12.0822
10.3182
8.63096
7.01026
5.44255
3.91179
2.40371
0.909098
73.6853
71.3737
68.5679
65.5136
62.4211
59.329
56.224
53.1081
49.9989
46.9157
43.8745
40.8886
37.9696
35.1276
32.3708
29.7053
27.1354
24.6632
22.289
20.0113
17.8266
15.7302
13.7159
11.7772
9.90632
8.09362
6.32745
4.59453
2.8824
1.19133
74.4068
72.2437
69.6188
66.7543
63.8433
60.9208
57.9728
54.9989
52.0139
49.0346
46.0755
43.1488
40.2657
37.4362
34.669
31.971
29.3475
26.8021
24.3365
21.9509
19.6435
17.4113
15.2496
13.1527
11.1134
9.12282
7.17044
5.24409
3.33125
1.43694
75.0158
72.9795
70.5101
67.81
65.0573
62.2841
59.4759
56.6306
53.7601
50.8792
48.0005
45.1353
42.2938
39.4857
36.7196
34.0028
31.3413
28.7395
26.2002
23.7247
21.3128
18.9623
16.6701
14.431
12.2386
10.0847
7.95913
5.85
3.74386
1.64729
75.5283
73.6001
71.2644
68.7063
66.0912
63.4488
60.7643
58.034
55.2676
52.4779
49.6759
46.8715
44.0741
41.2929
38.5359
35.8106
33.1232
30.4785
27.8803
25.3304
22.8297
20.3771
17.97
15.6043
13.274
10.9712
8.68613
6.40659
4.11799
1.8266
75.9581
74.1219
71.9008
69.465
66.9689
64.4404
61.8644
59.236
56.563
53.8563
51.1256
48.3796
45.6266
42.8749
40.1323
37.4058
34.7018
32.0252
29.3801
26.7692
24.1937
21.6533
19.1462
16.6686
14.2151
11.7781
9.34773
6.91157
4.45398
1.97987
76.3165
74.5582
72.4347
70.1036
67.7099
65.2797
62.7979
60.2588
57.6685
55.0363
52.3706
49.679
46.9687
44.2473
41.522
38.7994
36.0857
33.3858
30.7041
28.0434
25.4054
22.7903
20.1967
17.6213
15.059
12.5023
9.94132
7.3634
4.75212
2.1106
76.6142
74.9213
72.8805
70.6384
68.3318
65.9856
63.5849
61.123
58.6047
56.0382
53.4305
50.7882
48.1178
45.4258
42.719
40.0035
37.2851
34.5687
31.8585
29.1576
26.468
23.79
21.1226
18.4627
15.8055
13.1437
10.4672
7.76315
5.01467
2.22259
76.8575
75.219
73.2472
71.0796
68.8461
66.5706
64.2384
61.8422
59.3857
56.8758
54.3186
51.72
49.0854
46.4208
43.7322
41.0254
38.3056
35.5778
32.8458
30.1129
27.3811
24.6509
21.9214
19.1898
16.4513
13.6987
10.9219
8.10793
5.2396
2.31545
77.0582
75.4638
73.5487
71.4424
69.2691
67.0519
64.7764
62.4348
60.0298
57.5675
55.0532
52.4919
49.8885
47.2483
44.5766
41.8788
39.1599
36.4243
33.676
30.918
28.1524
25.3796
22.599
19.8079
17.0013
14.1723
11.3106
8.40315
5.43256
2.39436
77.213
75.6535
73.7832
71.7255
69.6
67.4293
65.199
62.9011
60.5375
58.1136
55.6342
53.1035
50.5258
47.906
45.2489
42.5595
39.8423
37.1017
34.3413
31.5641
28.772
25.9658
23.1444
20.3054
17.444
14.5529
11.622
8.63795
5.58366
2.45229
77.3443
75.8104
73.9742
71.9534
69.864
67.7284
65.5324
63.2677
60.9357
58.5412
56.0885
53.5813
51.0236
48.4198
45.7743
43.0918
40.3765
37.6325
34.8634
32.072
29.2602
26.4286
23.5763
20.7007
17.797
14.858
11.8733
8.82951
5.70923
2.50183
77.425
75.9073
74.0934
72.0976
70.0327
67.9205
65.7474
63.505
61.1941
58.8194
56.3846
53.8933
51.3492
48.7563
46.1188
43.4411
40.7273
37.9814
35.2067
32.4059
29.581
26.7324
23.8593
20.9591
18.0268
15.055
12.0334
8.94802
5.78156
2.52172
77.5138
75.9973
74.1956
72.2148
70.1636
68.064
65.9031
63.6723
61.3725
59.0078
56.5821
54.0986
51.561
48.973
46.3388
43.6627
40.9486
38.2005
35.4217
32.6148
29.7818
26.9231
24.0379
21.1235
18.175
15.1849
12.1424
9.0327
5.83597
2.52824
)
;

boundaryField
{
    inlet
    {
        type            zeroGradient;
    }
    outlet
    {
        type            fixedValue;
        value           uniform 0;
    }
    flap
    {
        type            zeroGradient;
    }
    upperWall
    {
        type            zeroGradient;
    }
    lowerWall
    {
        type            zeroGradient;
    }
    frontAndBack
    {
        type            empty;
    }
}


// ************************************************************************* //
