/*--------------------------------*- C++ -*----------------------------------*\
  =========                 |
  \\      /  F ield         | OpenFOAM: The Open Source CFD Toolbox
   \\    /   O peration     | Website:  https://openfoam.org
    \\  /    A nd           | Version:  dev
     \\/     M anipulation  |
\*---------------------------------------------------------------------------*/
FoamFile
{
    version     2.0;
    format      ascii;
    class       surfaceVectorField;
    location    "6.5";
    object      Uf;
}
// * * * * * * * * * * * * * * * * * * * * * * * * * * * * * * * * * * * * * //

dimensions      [0 1 -1 0 0 0 0];

internalField   nonuniform List<vector> 
5457
(
(9.92088 0 0.0251095)
(9.97125 0 0.0387456)
(9.82402 0 0.0328266)
(9.92859 0 0.0485848)
(9.70961 0 0.0393118)
(9.85548 0 0.0587677)
(9.57544 0 0.0460113)
(9.7568 0 0.0705928)
(9.42138 0 0.0529486)
(9.63754 0 0.0830128)
(9.24755 0 0.0601659)
(9.49862 0 0.0959359)
(9.05363 0 0.0678107)
(9.33931 0 0.109612)
(8.83893 0 0.0760344)
(9.15875 0 0.124288)
(8.60253 0 0.0849702)
(8.9561 0 0.140167)
(8.34327 0 0.094745)
(8.73039 0 0.157433)
(8.05985 0 0.105487)
(8.48041 0 0.17627)
(7.75081 0 0.117328)
(8.20478 0 0.196858)
(7.41457 0 0.130396)
(7.90196 0 0.219363)
(7.04951 0 0.144812)
(7.57031 0 0.243926)
(6.65404 0 0.160674)
(7.20819 0 0.270636)
(6.22672 0 0.178047)
(6.814 0 0.299504)
(5.76643 0 0.196931)
(6.38633 0 0.330419)
(5.27257 0 0.217236)
(5.92417 0 0.363089)
(4.74537 0 0.238739)
(5.4271 0 0.396981)
(4.18619 0 0.261036)
(4.89565 0 0.431242)
(3.59796 0 0.283491)
(4.33163 0 0.464625)
(2.98555 0 0.305205)
(3.7386 0 0.495429)
(2.35611 0 0.325071)
(3.12226 0 0.521516)
(1.71909 0 0.34255)
(2.49106 0 0.54056)
(1.08434 0 0.361883)
(1.85585 0 0.551675)
(0.451825 0 0.348681)
(1.24547 0 0.563021)
(-0.145846 0 0.10246)
(0.608903 0 0.544877)
(-0.423623 0 -0.207096)
(0.0946595 0 0.259366)
(-0.402158 0 -0.361258)
(-0.133678 0 -0.020528)
(-0.119681 0 -0.393889)
(9.99641 0 0.051672)
(9.99705 0 0.0405042)
(9.95879 0 0.0708609)
(9.97851 0 0.0674538)
(9.89824 0 0.087986)
(9.93378 0 0.089869)
(9.81659 0 0.105984)
(9.86453 0 0.113554)
(9.71359 0 0.124921)
(9.77438 0 0.138513)
(9.58909 0 0.144853)
(9.66436 0 0.164645)
(9.44275 0 0.166089)
(9.53398 0 0.192331)
(9.27391 0 0.188967)
(9.3825 0 0.22203)
(9.08167 0 0.213783)
(9.2092 0 0.254148)
(8.86491 0 0.240816)
(9.01317 0 0.289064)
(8.62231 0 0.270338)
(8.79332 0 0.327154)
(8.3524 0 0.302609)
(8.54836 0 0.368788)
(8.05356 0 0.33786)
(8.27684 0 0.41432)
(7.72412 0 0.376266)
(7.97717 0 0.464051)
(7.36237 0 0.417908)
(7.64772 0 0.518195)
(6.96672 0 0.462714)
(7.28683 0 0.576814)
(6.53583 0 0.510394)
(6.89295 0 0.639735)
(6.06882 0 0.560341)
(6.46481 0 0.706437)
(5.56558 0 0.611528)
(6.00159 0 0.77592)
(5.02709 0 0.662392)
(5.50325 0 0.846534)
(4.45587 0 0.710715)
(4.97088 0 0.915816)
(3.85648 0 0.753545)
(4.40717 0 0.980315)
(3.23618 0 0.7872)
(3.81703 0 1.03546)
(2.6058 0 0.807503)
(3.20844 0 1.07549)
(1.98278 0 0.810467)
(2.59338 0 1.09315)
(1.40527 0 0.776895)
(1.99619 0 1.07708)
(0.92974 0 0.646396)
(1.41948 0 0.978404)
(0.439845 0 0.384332)
(0.937564 0 0.716791)
(0.0591667 0 -0.11862)
(0.443782 0 0.343516)
(0.174918 0 -0.335938)
(9.98903 0 0.0594302)
(9.99481 0 0.0458769)
(9.95434 0 0.0894755)
(9.97368 0 0.0848531)
(9.8973 0 0.11803)
(9.92984 0 0.119172)
(9.82047 0 0.147897)
(9.86357 0 0.153974)
(9.72417 0 0.17942)
(9.77736 0 0.190406)
(9.60822 0 0.212774)
(9.67227 0 0.228635)
(9.47235 0 0.248391)
(9.5481 0 0.269127)
(9.31608 0 0.286773)
(9.40432 0 0.312495)
(9.13869 0 0.328397)
(9.24035 0 0.359325)
(8.93925 0 0.373722)
(9.0555 0 0.410174)
(8.71665 0 0.423207)
(8.8489 0 0.465599)
(8.46961 0 0.477297)
(8.61952 0 0.526154)
(8.19668 0 0.536401)
(8.36616 0 0.592375)
(7.89633 0 0.600845)
(8.08752 0 0.664741)
(7.56692 0 0.670814)
(7.7822 0 0.743622)
(7.20684 0 0.746261)
(7.44874 0 0.829195)
(6.81456 0 0.826788)
(7.08568 0 0.921326)
(6.38887 0 0.91149)
(6.6917 0 1.01941)
(5.92903 0 0.998765)
(6.26571 0 1.12218)
(5.43513 0 1.0861)
(5.80711 0 1.22743)
(4.90854 0 1.16983)
(5.31607 0 1.33176)
(4.35242 0 1.2449)
(4.79397 0 1.4302)
(3.77258 0 1.30455)
(4.24396 0 1.51588)
(3.17872 0 1.33984)
(3.6718 0 1.57943)
(2.58662 0 1.33812)
(3.08631 0 1.60775)
(2.01985 0 1.27297)
(2.50292 0 1.58158)
(1.48694 0 1.09541)
(1.92873 0 1.46425)
(0.958293 0 0.769164)
(1.38525 0 1.2104)
(0.479876 0 0.202443)
(0.829539 0 0.80103)
(0.433729 0 0.13407)
(9.98515 0 0.0716129)
(9.99367 0 0.0531471)
(9.95039 0 0.113629)
(9.97088 0 0.102289)
(9.89437 0 0.154131)
(9.92691 0 0.147952)
(9.81882 0 0.195571)
(9.86185 0 0.193719)
(9.72442 0 0.238809)
(9.77746 0 0.241275)
(9.61113 0 0.284322)
(9.67467 0 0.291161)
(9.47875 0 0.332718)
(9.55344 0 0.343953)
(9.32695 0 0.384673)
(9.41336 0 0.40037)
(9.15524 0 0.440845)
(9.25401 0 0.461138)
(8.96292 0 0.501883)
(9.07485 0 0.52696)
(8.74917 0 0.568428)
(8.87521 0 0.598536)
(8.51305 0 0.641114)
(8.6543 0 0.676563)
(8.25347 0 0.720533)
(8.41123 0 0.761723)
(7.96926 0 0.807194)
(8.145 0 0.85464)
(7.65918 0 0.901443)
(7.85455 0 0.955824)
(7.32192 0 1.00335)
(7.53875 0 1.06558)
(6.95621 0 1.11258)
(7.19646 0 1.18385)
(6.56084 0 1.22814)
(6.82653 0 1.31009)
(6.13488 0 1.34818)
(6.42789 0 1.44293)
(5.67784 0 1.46961)
(5.99966 0 1.57991)
(5.18999 0 1.58778)
(5.54133 0 1.71709)
(4.67286 0 1.69603)
(5.05304 0 1.84855)
(4.12979 0 1.78515)
(4.53595 0 1.96584)
(3.56664 0 1.84253)
(3.99272 0 2.05731)
(2.99204 0 1.85072)
(3.42759 0 2.10714)
(2.41584 0 1.78248)
(2.84762 0 2.09448)
(1.84054 0 1.60045)
(2.25622 0 1.98873)
(1.25938 0 1.27842)
(1.66031 0 1.75303)
(0.666773 0 0.789526)
(1.02396 0 1.36775)
(0.523035 0 0.787133)
(9.98337 0 0.0844061)
(9.99316 0 0.0612904)
(9.94821 0 0.136835)
(9.96959 0 0.119925)
(9.89315 0 0.188029)
(9.92575 0 0.176237)
(9.81907 0 0.240166)
(9.862 0 0.232695)
(9.72663 0 0.294464)
(9.77964 0 0.291083)
(9.6159 0 0.351655)
(9.6794 0 0.35227)
(9.48672 0 0.412467)
(9.56128 0 0.416973)
(9.33879 0 0.477673)
(9.42497 0 0.486004)
(9.17172 0 0.548048)
(9.2701 0 0.560201)
(8.98493 0 0.624352)
(9.09621 0 0.640384)
(8.77779 0 0.707342)
(8.90275 0 0.727366)
(8.54954 0 0.797764)
(8.68908 0 0.821956)
(8.29936 0 0.896327)
(8.45445 0 0.924942)
(8.02635 0 1.00366)
(8.19808 0 1.03706)
(7.72958 0 1.12021)
(7.91912 0 1.15892)
(7.40805 0 1.24617)
(7.61669 0 1.29093)
(7.06076 0 1.38128)
(7.28985 0 1.43316)
(6.68669 0 1.5246)
(6.93763 0 1.58511)
(6.28484 0 1.6742)
(6.55898 0 1.74551)
(5.85437 0 1.8268)
(6.15286 0 1.9119)
(5.39469 0 1.97726)
(5.71821 0 2.08018)
(4.90574 0 2.11806)
(5.25406 0 2.2441)
(4.38823 0 2.23861)
(4.75972 0 2.39461)
(3.84393 0 2.32454)
(4.23493 0 2.5192)
(3.27542 0 2.35695)
(3.67987 0 2.60124)
(2.68538 0 2.31058)
(3.0957 0 2.61969)
(2.07268 0 2.15499)
(2.48168 0 2.54731)
(1.42937 0 1.86738)
(1.83991 0 2.3537)
(0.742608 0 1.41955)
(1.13136 0 2.0245)
(0.543303 0 1.51447)
(9.98264 0 0.0974959)
(9.99299 0 0.0697915)
(9.94744 0 0.159772)
(9.96925 0 0.137581)
(9.89355 0 0.221344)
(9.92597 0 0.203923)
(9.82134 0 0.284088)
(9.86381 0 0.270684)
(9.73134 0 0.349343)
(9.78386 0 0.339577)
(9.62367 0 0.418014)
(9.68665 0 0.411691)
(9.4982 0 0.490933)
(9.57219 0 0.487897)
(9.35466 0 0.568969)
(9.44022 0 0.569099)
(9.1927 0 0.653)
(9.29044 0 0.656229)
(9.01184 0 0.743894)
(9.12243 0 0.75021)
(8.81152 0 0.842515)
(8.93572 0 0.851954)
(8.59109 0 0.949709)
(8.72974 0 0.962365)
(8.34986 0 1.06629)
(8.50382 0 1.08232)
(8.08707 0 1.19297)
(8.25729 0 1.21265)
(7.80193 0 1.33031)
(7.98938 0 1.35405)
(7.4936 0 1.47861)
(7.6993 0 1.50704)
(7.16119 0 1.6377)
(7.38617 0 1.67178)
(6.80372 0 1.80676)
(7.04902 0 1.84793)
(6.4201 0 1.98399)
(6.68674 0 2.03438)
(6.00911 0 2.16615)
(6.298 0 2.22885)
(5.56939 0 2.34812)
(5.88118 0 2.4275)
(5.09944 0 2.52222)
(5.43432 0 2.62427)
(4.59772 0 2.67758)
(4.95509 0 2.81031)
(4.06268 0 2.7995)
(4.44082 0 2.97323)
(3.49268 0 2.8691)
(3.88849 0 3.09663)
(2.88581 0 2.86291)
(3.29521 0 3.15989)
(2.238 0 2.75391)
(2.65688 0 3.13789)
(1.54243 0 2.52101)
(1.97482 0 3.00317)
(0.793642 0 2.13131)
(1.20723 0 2.74057)
(0.556731 0 2.2918)
(9.9825 0 0.110624)
(9.99302 0 0.0783598)
(9.94771 0 0.182321)
(9.96954 0 0.155034)
(9.89523 0 0.253813)
(9.92722 0 0.230881)
(9.82524 0 0.326761)
(9.86697 0 0.307503)
(9.73814 0 0.402549)
(9.78978 0 0.386516)
(9.63404 0 0.482227)
(9.69606 0 0.469141)
(9.51286 0 0.566751)
(9.5858 0 0.55639)
(9.37439 0 0.657086)
(9.45881 0 0.649263)
(9.21829 0 0.754207)
(9.31482 0 0.748781)
(9.04415 0 0.85908)
(9.15348 0 0.855957)
(8.85146 0 0.97266)
(8.97435 0 0.971797)
(8.63964 0 1.09588)
(8.77692 0 1.09729)
(8.40804 0 1.22965)
(8.56059 0 1.23342)
(8.15596 0 1.37476)
(8.32471 0 1.38108)
(7.88265 0 1.53187)
(8.06853 0 1.54109)
(7.58728 0 1.7014)
(7.79126 0 1.71406)
(7.2689 0 1.88331)
(7.49196 0 1.90032)
(6.92642 0 2.07699)
(7.16954 0 2.09972)
(6.5585 0 2.28088)
(6.82265 0 2.31142)
(6.16346 0 2.49208)
(6.44958 0 2.53352)
(5.73911 0 2.70586)
(6.04808 0 2.76267)
(5.28271 0 2.91501)
(5.61522 0 2.99349)
(4.79081 0 3.10917)
(5.14722 0 3.21787)
(4.25927 0 3.27421)
(4.63936 0 3.42429)
(3.68336 0 3.39186)
(4.08603 0 3.59715)
(3.05802 0 3.43967)
(3.48128 0 3.71653)
(2.37771 0 3.39177)
(2.81834 0 3.75811)
(1.63789 0 3.22614)
(2.09913 0 3.69395)
(0.839122 0 2.90081)
(1.2789 0 3.50444)
(0.573352 0 3.11366)
(9.98273 0 0.123579)
(9.99316 0 0.0868156)
(9.94873 0 0.204305)
(9.97027 0 0.172089)
(9.89794 0 0.285246)
(9.92927 0 0.25697)
(9.83051 0 0.367959)
(9.87124 0 0.342981)
(9.74671 0 0.453844)
(9.79716 0 0.43167)
(9.64669 0 0.544069)
(9.70736 0 0.524342)
(9.53039 0 0.639699)
(9.60182 0 0.622126)
(9.39763 0 0.741792)
(9.48039 0 0.726117)
(9.24814 0 0.851408)
(9.34287 0 0.837416)
(9.08154 0 0.969601)
(9.18895 0 0.957125)
(8.89738 0 1.09742)
(9.01826 0 1.08634)
(8.69511 0 1.23588)
(8.83031 0 1.22613)
(8.47414 0 1.38598)
(8.62456 0 1.37758)
(8.23378 0 1.54864)
(8.40038 0 1.54169)
(7.97324 0 1.72461)
(8.15703 0 1.71939)
(7.69162 0 1.91446)
(7.89365 0 1.91144)
(7.38786 0 2.11837)
(7.60921 0 2.11838)
(7.06062 0 2.33599)
(7.30243 0 2.34031)
(6.7082 0 2.56615)
(6.97165 0 2.57679)
(6.32836 0 2.80651)
(6.61471 0 2.82646)
(5.91809 0 3.05307)
(6.22871 0 3.08673)
(5.47343 0 3.29955)
(5.80973 0 3.3532)
(4.98928 0 3.53668)
(5.35263 0 3.61901)
(4.45931 0 3.75142)
(4.85085 0 3.87401)
(3.87619 0 3.92646)
(4.29639 0 4.10395)
(3.2323 0 4.03984)
(3.68051 0 4.28968)
(2.5208 0 4.06496)
(2.99347 0 4.40675)
(1.73835 0 3.97609)
(2.23734 0 4.42454)
(0.889459 0 3.71871)
(1.36333 0 4.31624)
(0.598741 0 3.98483)
(9.98321 0 0.1362)
(9.99339 0 0.0950382)
(9.95032 0 0.225567)
(9.97131 0 0.188585)
(9.90151 0 0.31549)
(9.93193 0 0.282043)
(9.83694 0 0.407495)
(9.87644 0 0.376952)
(9.75685 0 0.503003)
(9.8058 0 0.474831)
(9.66136 0 0.603267)
(9.72031 0 0.57704)
(9.55047 0 0.709449)
(9.61997 0 0.684804)
(9.42405 0 0.822691)
(9.50466 0 0.799305)
(9.28185 0 0.944137)
(9.37424 0 0.921724)
(9.12358 0 1.07492)
(9.22845 0 1.05324)
(8.94881 0 1.21619)
(9.06698 0 1.19503)
(8.75707 0 1.36904)
(8.8894 0 1.34827)
(8.54778 0 1.53458)
(8.69522 0 1.51412)
(8.32027 0 1.71385)
(8.48384 0 1.69371)
(8.07372 0 1.90775)
(8.25453 0 1.88811)
(7.80715 0 2.11704)
(8.00638 0 2.09828)
(7.51934 0 2.34218)
(7.73827 0 2.32498)
(7.20869 0 2.58318)
(7.44874 0 2.56871)
(6.87311 0 2.83942)
(7.13586 0 2.82948)
(6.50977 0 3.1093)
(6.79702 0 3.10667)
(6.11488 0 3.38984)
(6.42867 0 3.39865)
(5.6833 0 3.67605)
(6.02603 0 3.70234)
(5.20836 0 3.96024)
(5.58266 0 4.01252)
(4.68162 0 4.23101)
(5.09019 0 4.32099)
(4.09314 0 4.47232)
(4.53812 0 4.6154)
(3.43237 0 4.66252)
(3.91454 0 4.87786)
(2.69 0 4.77311)
(3.20553 0 5.08355)
(1.86175 0 4.77233)
(2.41114 0 5.1979)
(0.954124 0 4.58963)
(1.47618 0 5.18421)
(0.639146 0 4.91934)
(9.98386 0 0.148366)
(9.99368 0 0.102941)
(9.95235 0 0.245965)
(9.97261 0 0.204389)
(9.90579 0 0.344392)
(9.9351 0 0.305963)
(9.84438 0 0.445189)
(9.88242 0 0.409262)
(9.76834 0 0.549801)
(9.81553 0 0.515806)
(9.67781 0 0.659548)
(9.73472 0 0.627)
(9.57282 0 0.775676)
(9.64 0 0.744146)
(9.45329 0 0.899406)
(9.53131 0 0.868504)
(9.31904 0 1.03196)
(9.40855 0 1.00133)
(9.1698 0 1.17455)
(9.27154 0 1.14386)
(9.00525 0 1.32839)
(9.12001 0 1.29737)
(8.82495 0 1.49471)
(8.95364 0 1.46312)
(8.62837 0 1.6747)
(8.77197 0 1.64236)
(8.41487 0 1.86955)
(8.57445 0 1.83636)
(8.18363 0 2.08034)
(8.3604 0 2.04636)
(7.93362 0 2.30807)
(8.12892 0 2.27351)
(7.66349 0 2.55353)
(7.87883 0 2.5189)
(7.37145 0 2.81721)
(7.60856 0 2.78342)
(7.05506 0 3.09915)
(7.31599 0 3.06772)
(6.71101 0 3.39869)
(6.9982 0 3.372)
(6.33478 0 3.71412)
(6.65117 0 3.69582)
(5.92022 0 4.04214)
(6.26937 0 4.03771)
(5.45911 0 4.3771)
(5.84525 0 4.39456)
(4.94088 0 4.70991)
(5.3687 0 4.76076)
(4.35251 0 5.02653)
(4.82658 0 5.12676)
(3.67936 0 5.30615)
(4.20293 0 5.47705)
(2.90729 0 5.5181)
(3.47764 0 5.78742)
(2.02748 0 5.62289)
(2.64479 0 6.01939)
(1.045 0 5.5293)
(1.63754 0 6.12376)
(0.704385 0 5.94285)
(9.98465 0 0.159978)
(9.99402 0 0.11046)
(9.95473 0 0.265376)
(9.97409 0 0.219395)
(9.91065 0 0.371813)
(9.93868 0 0.328605)
(9.85267 0 0.480874)
(9.88905 0 0.439767)
(9.78101 0 0.594034)
(9.82619 0 0.554422)
(9.69582 0 0.712669)
(9.75039 0 0.674013)
(9.59718 0 0.838095)
(9.66168 0 0.799904)
(9.48504 0 0.971604)
(9.56005 0 0.933422)
(9.35929 0 1.11448)
(9.44545 0 1.07588)
(9.21975 0 1.26802)
(9.31778 0 1.2286)
(9.06615 0 1.43351)
(9.17687 0 1.39291)
(8.89813 0 1.61228)
(9.02243 0 1.57014)
(8.71524 0 1.80563)
(8.85413 0 1.76168)
(8.51688 0 2.0149)
(8.67148 0 1.9689)
(8.30228 0 2.24137)
(8.47388 0 2.19321)
(8.07042 0 2.48632)
(8.26048 0 2.43602)
(7.81991 0 2.75092)
(8.03014 0 2.69873)
(7.54885 0 3.03622)
(7.78132 0 2.98271)
(7.25465 0 3.34302)
(7.51184 0 3.28925)
(6.93368 0 3.67175)
(7.21869 0 3.61954)
(6.58092 0 4.02223)
(6.89762 0 3.97446)
(6.18943 0 4.3932)
(6.5427 0 4.35441)
(5.74971 0 4.78169)
(6.14565 0 4.75889)
(5.24902 0 5.18179)
(5.69498 0 5.18564)
(4.6708 0 5.58285)
(5.17493 0 5.6293)
(3.99472 0 5.96655)
(4.56489 0 6.07885)
(3.19821 0 6.30165)
(3.83608 0 6.51357)
(2.26157 0 6.54053)
(2.97056 0 6.89395)
(1.18048 0 6.56487)
(1.8789 0 7.15762)
(0.812681 0 7.09906)
(9.98554 0 0.170959)
(9.9944 0 0.117543)
(9.95739 0 0.283692)
(9.97572 0 0.233513)
(9.91601 0 0.397626)
(9.94259 0 0.349861)
(9.8617 0 0.514401)
(9.89624 0 0.468341)
(9.7947 0 0.635522)
(9.83765 0 0.590527)
(9.71518 0 0.762415)
(9.76714 0 0.717895)
(9.62326 0 0.896453)
(9.68477 0 0.85186)
(9.51896 0 1.03899)
(9.59057 0 0.993803)
(9.40223 0 1.19136)
(9.48458 0 1.14509)
(9.27296 0 1.35493)
(9.36676 0 1.3071)
(9.13097 0 1.53107)
(9.23701 0 1.48122)
(8.97599 0 1.72119)
(9.09518 0 1.66886)
(8.80766 0 1.9267)
(8.941 0 1.8715)
(8.62549 0 2.14908)
(8.77412 0 2.09062)
(8.4288 0 2.38984)
(8.59404 0 2.32782)
(8.21664 0 2.65053)
(8.40006 0 2.58472)
(7.98772 0 2.93274)
(8.19117 0 2.86306)
(7.7402 0 3.23808)
(7.96597 0 3.16469)
(7.4715 0 3.56821)
(7.72245 0 3.49158)
(7.17799 0 3.92475)
(7.45776 0 3.84589)
(6.85454 0 4.3092)
(7.16783 0 4.22994)
(6.49386 0 4.72272)
(6.84685 0 4.64619)
(6.08569 0 5.1656)
(6.48646 0 5.09708)
(5.61559 0 5.63638)
(6.07464 0 5.58456)
(5.06347 0 6.12986)
(5.59392 0 6.10915)
(4.40203 0 6.63376)
(5.01942 0 6.66762)
(3.59589 0 7.12111)
(4.31229 0 7.24851)
(2.60406 0 7.5404)
(3.43534 0 7.82003)
(1.39411 0 7.74007)
(2.25613 0 8.3147)
(1.00242 0 8.46451)
(9.9865 0 0.181248)
(9.9948 0 0.124153)
(9.96027 0 0.300824)
(9.97747 0 0.246673)
(9.92177 0 0.421723)
(9.94676 0 0.369637)
(9.87134 0 0.545637)
(9.90388 0 0.494873)
(9.80924 0 0.674108)
(9.84978 0 0.623989)
(9.73569 0 0.808597)
(9.7848 0 0.758489)
(9.65082 0 0.950526)
(9.70904 0 0.899828)
(9.55474 0 1.10129)
(9.6226 0 1.04943)
(9.44745 0 1.26229)
(9.52558 0 1.2087)
(9.32894 0 1.43494)
(9.41802 0 1.37907)
(9.19912 0 1.62066)
(9.29992 0 1.56196)
(9.05783 0 1.82093)
(9.17122 0 1.75886)
(8.90484 0 2.03729)
(9.03181 0 1.97131)
(8.73979 0 2.27134)
(8.88146 0 2.20091)
(8.56214 0 2.52479)
(8.71985 0 2.44939)
(8.37114 0 2.79946)
(8.54646 0 2.71859)
(8.16569 0 3.09732)
(8.36055 0 3.01055)
(7.94418 0 3.42057)
(8.16098 0 3.32754)
(7.70433 0 3.77168)
(7.94613 0 3.67218)
(7.44286 0 4.15347)
(7.71363 0 4.04754)
(7.15502 0 4.56919)
(7.46003 0 4.4573)
(6.83393 0 5.02257)
(7.18031 0 4.90595)
(6.46953 0 5.51774)
(6.86707 0 5.399)
(6.04694 0 6.05882)
(6.50926 0 5.94317)
(5.54392 0 6.64883)
(6.08993 0 6.54633)
(4.92685 0 7.28703)
(5.58291 0 7.21689)
(4.14468 0 7.96134)
(4.94218 0 7.96158)
(3.12139 0 8.63329)
(4.10884 0 8.77551)
(1.75594 0 9.12729)
(2.87792 0 9.62048)
(1.36438 0 10.1843)
(9.98754 0 0.190793)
(9.99523 0 0.130256)
(9.96333 0 0.316698)
(9.97932 0 0.258816)
(9.92786 0 0.44401)
(9.95115 0 0.387857)
(9.88148 0 0.574474)
(9.91188 0 0.519271)
(9.8245 0 0.709662)
(9.86244 0 0.654697)
(9.75713 0 0.851067)
(9.80318 0 0.795664)
(9.6796 0 1.00014)
(9.73427 0 0.943655)
(9.59203 0 1.15833)
(9.65584 0 1.10012)
(9.49454 0 1.32705)
(9.56808 0 1.26651)
(9.38718 0 1.50776)
(9.4711 0 1.44426)
(9.26999 0 1.70194)
(9.36502 0 1.63485)
(9.14293 0 1.91113)
(9.2499 0 1.83979)
(9.00591 0 2.13694)
(9.12576 0 2.0607)
(8.85875 0 2.38109)
(8.99255 0 2.29924)
(8.70112 0 2.64544)
(8.85016 0 2.55726)
(8.53252 0 2.93204)
(8.69833 0 2.83676)
(8.35217 0 3.24322)
(8.53663 0 3.14002)
(8.15889 0 3.58165)
(8.36436 0 3.46964)
(7.95095 0 3.95052)
(8.18048 0 3.82876)
(7.72581 0 4.35371)
(7.98338 0 4.22118)
(7.4797 0 4.79609)
(7.77071 0 4.65169)
(7.20707 0 5.28384)
(7.53896 0 5.1265)
(6.89952 0 5.82493)
(7.28289 0 5.65382)
(6.5441 0 6.42972)
(6.99452 0 6.24477)
(6.12004 0 7.11161)
(6.66112 0 6.91488)
(5.59262 0 7.88772)
(6.2621 0 7.68637)
(4.90033 0 8.77787)
(5.75701 0 8.59271)
(3.9262 0 9.80122)
(5.08656 0 9.68507)
(2.43261 0 10.8559)
(3.97853 0 11.0488)
(2.14549 0 12.5669)
(9.98862 0 0.199557)
(9.99567 0 0.135831)
(9.96652 0 0.331252)
(9.98124 0 0.269898)
(9.9342 0 0.464405)
(9.95571 0 0.40446)
(9.89203 0 0.600805)
(9.92017 0 0.54146)
(9.84031 0 0.742048)
(9.87553 0 0.682564)
(9.77933 0 0.889649)
(9.82217 0 0.829317)
(9.70933 0 1.04509)
(9.7603 0 0.98322)
(9.63053 0 1.20983)
(9.69012 0 1.14574)
(9.5431 0 1.38532)
(9.61188 0 1.31835)
(9.4472 0 1.57304)
(9.5258 0 1.50249)
(9.34299 0 1.77449)
(9.43209 0 1.69966)
(9.23056 0 1.99126)
(9.33096 0 1.91141)
(9.10999 0 2.22501)
(9.22257 0 2.13935)
(8.9813 0 2.47753)
(9.10708 0 2.38523)
(8.84442 0 2.75081)
(8.98461 0 2.65093)
(8.69918 0 3.04706)
(8.85521 0 2.93856)
(8.54521 0 3.36884)
(8.71884 0 3.25054)
(8.38191 0 3.71917)
(8.57534 0 3.5897)
(8.20832 0 4.10178)
(8.42439 0 3.95947)
(8.02299 0 4.52132)
(8.26539 0 4.3641)
(7.82373 0 4.98384)
(8.09744 0 4.80908)
(7.60724 0 5.49737)
(7.91918 0 5.30164)
(7.36849 0 6.07297)
(7.72863 0 5.85163)
(7.09955 0 6.72629)
(7.52289 0 6.47299)
(6.78725 0 7.48051)
(7.29773 0 7.1863)
(6.40803 0 8.37234)
(7.04765 0 8.02393)
(5.91484 0 9.46619)
(6.76241 0 9.04234)
(5.19508 0 10.9082)
(6.46095 0 10.3571)
(3.88323 0 13.1775)
(6.188 0 12.3033)
(5.25595 0 16.3703)
(0.188018 0 -0.111194)
(0.110242 0 -0.184152)
(0.365266 0 -0.0931813)
(0.267648 0 -0.169504)
(0.509065 0 -0.069704)
(0.422859 0 -0.134267)
(0.618733 0 -0.0487821)
(0.551603 0 -0.0999809)
(0.698808 0 -0.0318556)
(0.649744 0 -0.0712778)
(0.754567 0 -0.0187167)
(0.72179 0 -0.0484601)
(0.790967 0 -0.00883578)
(0.773469 0 -0.0308885)
(0.812448 0 -0.00166787)
(0.809691 0 -0.0177982)
(0.822868 0 0.00328583)
(0.834394 0 -0.00842932)
(0.825555 0 0.00640002)
(0.85074 0 -0.00212292)
(0.822993 0 0.00802926)
(0.861228 0 0.00197594)
(0.817257 0 0.00861191)
(0.867808 0 0.00431968)
(0.810066 0 0.00852912)
(0.872023 0 0.00528694)
(0.802559 0 0.00804073)
(0.875067 0 0.00538858)
(0.795524 0 0.00732372)
(0.877808 0 0.00493058)
(0.789461 0 0.00650729)
(0.880824 0 0.00414903)
(0.784631 0 0.00569113)
(0.884465 0 0.00322786)
(0.781074 0 0.00496008)
(0.888887 0 0.00232013)
(0.778617 0 0.00439151)
(0.894054 0 0.00156515)
(0.776872 0 0.00404311)
(0.899736 0 0.0010854)
(0.775318 0 0.00392277)
(0.905561 0 0.000943911)
(0.773438 0 0.0039795)
(0.911115 0 0.00111421)
(0.770861 0 0.00413807)
(0.916062 0 0.00149201)
(0.767353 0 0.00434544)
(0.920189 0 0.00198313)
(0.762707 0 0.00458687)
(0.923344 0 0.00256399)
(0.756645 0 0.00483952)
(0.925336 0 0.0032662)
(0.748926 0 0.00504977)
(0.925885 0 0.0040614)
(0.739518 0 0.00507279)
(0.924612 0 0.00483305)
(0.729281 0 0.00441619)
(0.921756 0 0.00513421)
(0.917935 0 0.00391237)
(0.173912 0 -0.266575)
(0.0919702 0 -0.354489)
(0.339787 0 -0.230921)
(0.237926 0 -0.328131)
(0.477819 0 -0.180029)
(0.374153 0 -0.26315)
(0.587561 0 -0.133758)
(0.488642 0 -0.200029)
(0.673236 0 -0.0959595)
(0.578168 0 -0.14754)
(0.739482 0 -0.0663614)
(0.646962 0 -0.106035)
(0.790503 0 -0.0438622)
(0.699766 0 -0.0741844)
(0.82993 0 -0.0272726)
(0.740549 0 -0.0504654)
(0.860749 0 -0.0154606)
(0.772471 0 -0.0333606)
(0.885194 0 -0.00744147)
(0.79798 0 -0.0214313)
(0.905093 0 -0.00235751)
(0.818919 0 -0.0133703)
(0.921824 0 0.000549657)
(0.836634 0 -0.00827909)
(0.936455 0 0.00189463)
(0.852183 0 -0.00546971)
(0.949905 0 0.0021635)
(0.866368 0 -0.00426657)
(0.962817 0 0.0017306)
(0.87977 0 -0.00411966)
(0.975624 0 0.000887249)
(0.892779 0 -0.0046151)
(0.988591 0 -0.000119017)
(0.905656 0 -0.00543599)
(1.0018 0 -0.00106357)
(0.918547 0 -0.00630069)
(1.01517 0 -0.00174799)
(0.93148 0 -0.00695105)
(1.02847 0 -0.00203409)
(0.944354 0 -0.00718147)
(1.04139 0 -0.00189097)
(0.956988 0 -0.00690366)
(1.05371 0 -0.00139656)
(0.969188 0 -0.00619084)
(1.0653 0 -0.000668002)
(0.980832 0 -0.00521514)
(1.07608 0 0.000230499)
(0.991906 0 -0.00411216)
(1.08595 0 0.00133806)
(1.00245 0 -0.00288459)
(1.0946 0 0.00271117)
(1.01243 0 -0.00139481)
(1.10161 0 0.00415585)
(1.02162 0 0.00037428)
(1.1067 0 0.00519446)
(1.02977 0 0.00221983)
(1.11055 0 0.00509451)
(1.0366 0 0.00320321)
(1.04337 0 0.00281617)
(0.147155 0 -0.422451)
(0.0718842 0 -0.498618)
(0.283291 0 -0.36726)
(0.194598 0 -0.458318)
(0.394884 0 -0.289583)
(0.298309 0 -0.367347)
(0.48319 0 -0.219286)
(0.385904 0 -0.280535)
(0.552297 0 -0.162025)
(0.453501 0 -0.209055)
(0.606117 0 -0.117267)
(0.505577 0 -0.152809)
(0.648137 0 -0.0833193)
(0.545755 0 -0.109842)
(0.681341 0 -0.0583295)
(0.577015 0 -0.0779769)
(0.708151 0 -0.0404824)
(0.601811 0 -0.0550487)
(0.730378 0 -0.0281073)
(0.622043 0 -0.0389881)
(0.749393 0 -0.0198449)
(0.639064 0 -0.0280343)
(0.766179 0 -0.0146882)
(0.653778 0 -0.0209189)
(0.781448 0 -0.0118298)
(0.66683 0 -0.016696)
(0.795737 0 -0.0105649)
(0.678732 0 -0.014524)
(0.809352 0 -0.010332)
(0.689787 0 -0.0136623)
(0.822518 0 -0.0107134)
(0.700137 0 -0.0136246)
(0.835396 0 -0.01136)
(0.709909 0 -0.0140412)
(0.848086 0 -0.0119574)
(0.719219 0 -0.0145796)
(0.860604 0 -0.0122352)
(0.728145 0 -0.014925)
(0.872872 0 -0.0120197)
(0.736699 0 -0.0148115)
(0.884756 0 -0.0112997)
(0.744812 0 -0.0141198)
(0.896187 0 -0.0102147)
(0.7524 0 -0.0129683)
(0.90723 0 -0.00894143)
(0.75945 0 -0.0116084)
(0.91805 0 -0.00756355)
(0.766104 0 -0.010228)
(0.928826 0 -0.00598376)
(0.772583 0 -0.00883166)
(0.939499 0 -0.00405715)
(0.779082 0 -0.00714588)
(0.949753 0 -0.00195524)
(0.785552 0 -0.00502071)
(0.959528 0 -0.000149346)
(0.791901 0 -0.00280149)
(0.968255 0 0.000997525)
(0.797349 0 -0.00117373)
(0.802671 0 -0.00010478)
(0.117674 0 -0.54394)
(0.0516934 0 -0.613872)
(0.218496 0 -0.468254)
(0.145399 0 -0.554735)
(0.297653 0 -0.367938)
(0.210255 0 -0.441257)
(0.359306 0 -0.279017)
(0.267482 0 -0.336742)
(0.407185 0 -0.207278)
(0.309252 0 -0.251674)
(0.44421 0 -0.151486)
(0.341219 0 -0.184988)
(0.472967 0 -0.109363)
(0.36545 0 -0.134245)
(0.495663 0 -0.0784913)
(0.383825 0 -0.0967817)
(0.514083 0 -0.0564768)
(0.398012 0 -0.0699492)
(0.529418 0 -0.0411445)
(0.40933 0 -0.0511008)
(0.542395 0 -0.0307963)
(0.418549 0 -0.038043)
(0.55357 0 -0.024207)
(0.425966 0 -0.0293333)
(0.563432 0 -0.0203808)
(0.431815 0 -0.0239465)
(0.572301 0 -0.0184109)
(0.436477 0 -0.020891)
(0.580215 0 -0.0176101)
(0.440071 0 -0.0192088)
(0.587265 0 -0.0175264)
(0.44252 0 -0.0184496)
(0.593563 0 -0.0177855)
(0.443907 0 -0.018249)
(0.59922 0 -0.018043)
(0.444378 0 -0.01827)
(0.604307 0 -0.017982)
(0.44411 0 -0.0181656)
(0.608796 0 -0.017384)
(0.443219 0 -0.0176033)
(0.612565 0 -0.0162497)
(0.441711 0 -0.016409)
(0.615599 0 -0.01479)
(0.439541 0 -0.0147668)
(0.618089 0 -0.013225)
(0.436678 0 -0.0130503)
(0.620339 0 -0.0116403)
(0.433295 0 -0.0114996)
(0.622784 0 -0.00988224)
(0.429665 0 -0.0101808)
(0.625397 0 -0.00777249)
(0.426057 0 -0.00855419)
(0.627724 0 -0.00559375)
(0.422898 0 -0.0062449)
(0.629485 0 -0.00396353)
(0.419605 0 -0.00370583)
(0.630675 0 -0.0025847)
(0.413309 0 -0.00177088)
(0.405206 0 -2.93211e-05)
(0.0832737 0 -0.632639)
(0.0303381 0 -0.695433)
(0.144489 0 -0.536063)
(0.0894161 0 -0.613276)
(0.187648 0 -0.418182)
(0.110455 0 -0.481555)
(0.219795 0 -0.316746)
(0.13522 0 -0.36605)
(0.243816 0 -0.235717)
(0.148317 0 -0.273056)
(0.26154 0 -0.173015)
(0.157705 0 -0.200392)
(0.274509 0 -0.125909)
(0.163309 0 -0.14525)
(0.284081 0 -0.0915756)
(0.165975 0 -0.104712)
(0.291435 0 -0.0671462)
(0.16656 0 -0.075898)
(0.297087 0 -0.0499652)
(0.16587 0 -0.0555652)
(0.301003 0 -0.0380842)
(0.164187 0 -0.0410632)
(0.303223 0 -0.0302435)
(0.161069 0 -0.0310051)
(0.304068 0 -0.0254056)
(0.156251 0 -0.0245679)
(0.303781 0 -0.0224517)
(0.150049 0 -0.020685)
(0.302051 0 -0.02062)
(0.142631 0 -0.0179961)
(0.298963 0 -0.019568)
(0.133765 0 -0.0163359)
(0.294666 0 -0.018963)
(0.123678 0 -0.0153778)
(0.289395 0 -0.0184773)
(0.112654 0 -0.0148316)
(0.283374 0 -0.0177586)
(0.101015 0 -0.0143301)
(0.276677 0 -0.0165463)
(0.0889217 0 -0.0134383)
(0.269154 0 -0.0149224)
(0.0763214 0 -0.0118408)
(0.260708 0 -0.0132613)
(0.0626615 0 -0.00975882)
(0.2516 0 -0.011935)
(0.046902 0 -0.00777786)
(0.242111 0 -0.0109741)
(0.0297205 0 -0.00613614)
(0.232948 0 -0.0099341)
(0.0123184 0 -0.00512354)
(0.224451 0 -0.00804622)
(-0.00446922 0 -0.00397546)
(0.215044 0 -0.00480847)
(-0.019453 0 -0.00129593)
(0.202334 0 -0.00117084)
(-0.0309693 0 0.00282339)
(0.187628 0 0.00117489)
(-0.0422154 0 0.00560521)
(-0.0549168 0 0.00524765)
(0.0435598 0 -0.683443)
(0.00659942 0 -0.738097)
(0.0606324 0 -0.566284)
(0.0251895 0 -0.629602)
(0.0651443 0 -0.436159)
(-0.000388409 0 -0.485768)
(0.0656877 0 -0.32791)
(-0.0112503 0 -0.366545)
(0.0631633 0 -0.241932)
(-0.0295465 0 -0.270809)
(0.0586437 0 -0.175692)
(-0.0461656 0 -0.196464)
(0.0527817 0 -0.126171)
(-0.0627463 0 -0.140276)
(0.046099 0 -0.0903929)
(-0.0793232 0 -0.0991754)
(0.0390728 0 -0.0651904)
(-0.0959542 0 -0.070214)
(0.0316554 0 -0.0472926)
(-0.11222 0 -0.0497064)
(0.0232187 0 -0.0343926)
(-0.127943 0 -0.0345567)
(0.013245 0 -0.0254864)
(-0.143982 0 -0.023495)
(0.00177546 0 -0.0198053)
(-0.161507 0 -0.0161353)
(-0.0115363 0 -0.0161822)
(-0.181398 0 -0.0111292)
(-0.0260344 0 -0.013757)
(-0.201862 0 -0.00783447)
(-0.0416687 0 -0.0122634)
(-0.222993 0 -0.00563678)
(-0.058205 0 -0.0115521)
(-0.244697 0 -0.0043286)
(-0.0753074 0 -0.0113136)
(-0.266879 0 -0.00367415)
(-0.0926666 0 -0.0109838)
(-0.28937 0 -0.00327244)
(-0.110329 0 -0.00981029)
(-0.311971 0 -0.00245313)
(-0.129241 0 -0.00725141)
(-0.334307 0 -0.000356339)
(-0.150844 0 -0.00372001)
(-0.355738 0 0.00304949)
(-0.175405 0 -0.000613439)
(-0.37662 0 0.006441)
(-0.200797 0 0.00115707)
(-0.397422 0 0.00821631)
(-0.225126 0 0.00209803)
(-0.417788 0 0.0083033)
(-0.247015 0 0.00355747)
(-0.436957 0 0.00781916)
(-0.264575 0 0.0062771)
(-0.453821 0 0.00794283)
(-0.276751 0 0.00877339)
(-0.466007 0 0.00907847)
(-0.285419 0 0.00878795)
(-0.474233 0 0.00995275)
(-0.480737 0 0.0087721)
(-0.00518994 0 -0.689397)
(-0.022035 0 -0.733014)
(-0.0335544 0 -0.55344)
(-0.0494368 0 -0.602477)
(-0.0693293 0 -0.417676)
(-0.122073 0 -0.452364)
(-0.10426 0 -0.309259)
(-0.174027 0 -0.3347)
(-0.137407 0 -0.224057)
(-0.227038 0 -0.241303)
(-0.168213 0 -0.159238)
(-0.273979 0 -0.169691)
(-0.196882 0 -0.111447)
(-0.316449 0 -0.115947)
(-0.223855 0 -0.077677)
(-0.355658 0 -0.0768273)
(-0.249123 0 -0.0544237)
(-0.393309 0 -0.0497733)
(-0.272899 0 -0.0375637)
(-0.430444 0 -0.0309261)
(-0.295931 0 -0.0242884)
(-0.465037 0 -0.016794)
(-0.319549 0 -0.0138367)
(-0.495589 0 -0.005711)
(-0.345075 0 -0.0062012)
(-0.523334 0 0.00263206)
(-0.371905 0 -0.00128838)
(-0.549803 0 0.00813048)
(-0.398961 0 0.00163601)
(-0.575309 0 0.0111289)
(-0.425986 0 0.00347465)
(-0.60015 0 0.0128571)
(-0.453133 0 0.00462432)
(-0.624508 0 0.0138107)
(-0.480499 0 0.00538623)
(-0.648525 0 0.0141794)
(-0.507946 0 0.00618085)
(-0.672303 0 0.014211)
(-0.534864 0 0.00755796)
(-0.695821 0 0.0142884)
(-0.559767 0 0.00981236)
(-0.718682 0 0.0147658)
(-0.581094 0 0.0123403)
(-0.739591 0 0.0156948)
(-0.599029 0 0.0139741)
(-0.757574 0 0.0168236)
(-0.614965 0 0.0140752)
(-0.773486 0 0.0172239)
(-0.629623 0 0.0130036)
(-0.788067 0 0.016393)
(-0.64286 0 0.0117729)
(-0.801286 0 0.0149516)
(-0.654292 0 0.0112593)
(-0.812794 0 0.0139575)
(-0.663584 0 0.0112987)
(-0.822342 0 0.0138517)
(-0.670854 0 0.010801)
(-0.829786 0 0.0135994)
(-0.834105 0 0.0124142)
(-0.0561162 0 -0.644705)
(-0.0575571 0 -0.678052)
(-0.137018 0 -0.496813)
(-0.134649 0 -0.525111)
(-0.217678 0 -0.363397)
(-0.257371 0 -0.37705)
(-0.29354 0 -0.260709)
(-0.356353 0 -0.265539)
(-0.361921 0 -0.181913)
(-0.448576 0 -0.180435)
(-0.422604 0 -0.122595)
(-0.52949 0 -0.11695)
(-0.476823 0 -0.0781915)
(-0.599958 0 -0.0699374)
(-0.527301 0 -0.0452602)
(-0.661557 0 -0.0350044)
(-0.57637 0 -0.0218196)
(-0.713619 0 -0.0100775)
(-0.623248 0 -0.00608169)
(-0.7592 0 0.00610079)
(-0.664991 0 0.00434319)
(-0.799119 0 0.0153993)
(-0.6999 0 0.0115786)
(-0.833458 0 0.0205751)
(-0.728569 0 0.0165334)
(-0.86283 0 0.0237099)
(-0.753294 0 0.0195574)
(-0.888064 0 0.0258792)
(-0.776379 0 0.0212547)
(-0.91142 0 0.0273091)
(-0.798478 0 0.0220944)
(-0.933523 0 0.0279804)
(-0.819694 0 0.0222582)
(-0.954596 0 0.0279864)
(-0.840088 0 0.0219152)
(-0.974705 0 0.0274845)
(-0.859814 0 0.0213553)
(-0.993976 0 0.0267763)
(-0.879037 0 0.0209315)
(-1.01266 0 0.0262438)
(-0.897749 0 0.0209099)
(-1.03097 0 0.026129)
(-0.915682 0 0.0212402)
(-1.04881 0 0.0263273)
(-0.932167 0 0.021382)
(-1.06562 0 0.0263669)
(-0.946824 0 0.0206988)
(-1.08083 0 0.0255085)
(-0.95969 0 0.0191982)
(-1.09421 0 0.0234938)
(-0.970856 0 0.0175835)
(-1.10569 0 0.0209681)
(-0.980319 0 0.0164863)
(-1.11536 0 0.0189365)
(-0.987981 0 0.0157337)
(-1.12344 0 0.0177876)
(-0.994452 0 0.0147619)
(-1.12977 0 0.0168451)
(-1.13302 0 0.0157931)