/*--------------------------------*- C++ -*----------------------------------*\
  =========                 |
  \\      /  F ield         | OpenFOAM: The Open Source CFD Toolbox
   \\    /   O peration     | Website:  https://openfoam.org
    \\  /    A nd           | Version:  dev
     \\/     M anipulation  |
\*---------------------------------------------------------------------------*/
FoamFile
{
    version     2.0;
    format      ascii;
    class       volVectorField;
    location    "2.1";
    object      U;
}
// * * * * * * * * * * * * * * * * * * * * * * * * * * * * * * * * * * * * * //

dimensions      [0 1 -1 0 0 0 0];

internalField   nonuniform List<vector> 
2790
(
(9.94398 0 0.0205261)
(9.8757 0 0.0295934)
(9.77516 0 0.0359976)
(9.64935 0 0.0425664)
(9.50396 0 0.0493974)
(9.3399 0 0.0564417)
(9.15633 0 0.0638303)
(8.95236 0 0.0717268)
(8.72715 0 0.0802709)
(8.47972 0 0.0895894)
(8.20886 0 0.0998092)
(7.91319 0 0.111061)
(7.59119 0 0.123475)
(7.24125 0 0.137179)
(6.86176 0 0.152285)
(6.45121 0 0.168881)
(6.00828 0 0.187006)
(5.53207 0 0.206626)
(5.02236 0 0.227594)
(4.47985 0 0.249612)
(3.90658 0 0.272174)
(3.30628 0 0.294519)
(2.68477 0 0.315608)
(2.05015 0 0.334271)
(1.41139 0 0.350577)
(0.79768 0 0.372818)
(0.110466 0 0.324846)
(-0.469315 0 -0.114714)
(-0.453675 0 -0.296754)
(-0.231012 0 -0.423532)
(9.9985 0 0.040712)
(9.98143 0 0.0623999)
(9.9357 0 0.0791643)
(9.86408 0 0.0966549)
(9.77085 0 0.115159)
(9.65698 0 0.134527)
(9.52184 0 0.155017)
(9.36458 0 0.176987)
(9.1844 0 0.200752)
(8.9803 0 0.226594)
(8.75111 0 0.254788)
(8.49542 0 0.285602)
(8.2117 0 0.319288)
(7.89828 0 0.356058)
(7.55347 0 0.39605)
(7.1756 0 0.439288)
(6.76317 0 0.48561)
(6.31504 0 0.534597)
(5.83063 0 0.585462)
(5.31026 0 0.636945)
(4.75555 0 0.687183)
(4.16984 0 0.733614)
(3.55876 0 0.772907)
(2.93106 0 0.801032)
(2.29951 0 0.813668)
(1.69257 0 0.807135)
(1.10683 0 0.74706)
(0.658624 0 0.547713)
(0.186017 0 0.224175)
(-0.00815634 0 -0.453703)
(9.99559 0 0.0432222)
(9.97554 0 0.0753005)
(9.93175 0 0.103387)
(9.86481 0 0.132422)
(9.77766 0 0.163118)
(9.67138 0 0.195464)
(9.54566 0 0.229812)
(9.39987 0 0.266676)
(9.23334 0 0.306545)
(9.04527 0 0.349881)
(8.83468 0 0.397145)
(8.60036 0 0.448791)
(8.34095 0 0.505257)
(8.05497 0 0.566921)
(7.74082 0 0.63406)
(7.39686 0 0.70677)
(7.02151 0 0.784864)
(6.61335 0 0.867737)
(6.17133 0 0.954192)
(5.69504 0 1.04223)
(5.18505 0 1.12884)
(4.6434 0 1.20973)
(4.07427 0 1.27908)
(3.4849 0 1.32923)
(2.88642 0 1.34996)
(2.29909 0 1.32626)
(1.73152 0 1.22056)
(1.21597 0 0.972813)
(0.700946 0 0.570001)
(0.357812 0 -0.15669)
(9.99402 0 0.0495206)
(9.97179 0 0.0932465)
(9.92783 0 0.133629)
(9.86216 0 0.17428)
(9.77681 0 0.216515)
(9.67281 0 0.260752)
(9.5501 0 0.307527)
(9.40822 0 0.357517)
(9.2467 0 0.411394)
(9.06496 0 0.469809)
(8.86227 0 0.533403)
(8.63773 0 0.602819)
(8.39035 0 0.67868)
(8.11898 0 0.761552)
(7.82244 0 0.851885)
(7.49942 0 0.949925)
(7.14865 0 1.05558)
(6.76884 0 1.16825)
(6.35889 0 1.28659)
(5.91801 0 1.40823)
(5.44596 0 1.52941)
(4.94346 0 1.6446)
(4.41267 0 1.74603)
(3.85781 0 1.82308)
(3.28542 0 1.86119)
(2.70605 0 1.84011)
(2.12535 0 1.72576)
(1.55402 0 1.47762)
(0.957787 0 1.08345)
(0.509314 0 0.50208)
(9.9933 0 0.0572411)
(9.96992 0 0.111011)
(9.92588 0 0.162177)
(9.86137 0 0.213438)
(9.77786 0 0.266462)
(9.67618 0 0.322031)
(9.55632 0 0.380828)
(9.41794 0 0.44362)
(9.26065 0 0.51119)
(9.08396 0 0.584303)
(8.88728 0 0.663717)
(8.66991 0 0.750186)
(8.43108 0 0.844447)
(8.16991 0 0.947182)
(7.8855 0 1.05896)
(7.57688 0 1.18013)
(7.24305 0 1.31072)
(6.88299 0 1.45019)
(6.49567 0 1.5972)
(6.08014 0 1.74927)
(5.63559 0 1.90233)
(5.16159 0 2.0502)
(4.65829 0 2.18402)
(4.12678 0 2.29155)
(3.56902 0 2.35634)
(2.98857 0 2.35706)
(2.38657 0 2.26466)
(1.76618 0 2.04733)
(1.08986 0 1.69107)
(0.536574 0 1.15381)
(9.99301 0 0.0655723)
(9.96921 0 0.128765)
(9.92551 0 0.190203)
(9.86244 0 0.251955)
(9.78116 0 0.315708)
(9.68227 0 0.382463)
(9.56578 0 0.453029)
(9.43143 0 0.528263)
(9.27887 0 0.609045)
(9.10768 0 0.696248)
(8.91734 0 0.790739)
(8.70725 0 0.893375)
(8.47675 0 1.00499)
(8.2251 0 1.12638)
(7.95154 0 1.25819)
(7.65526 0 1.40088)
(7.33539 0 1.55458)
(6.99099 0 1.71887)
(6.62105 0 1.89252)
(6.22439 0 2.07315)
(5.79969 0 2.25674)
(5.3455 0 2.43705)
(4.86022 0 2.605)
(4.34227 0 2.74798)
(3.79003 0 2.84927)
(3.20228 0 2.88788)
(2.57634 0 2.83788)
(1.91329 0 2.67123)
(1.17265 0 2.3736)
(0.549912 0 1.89398)
(9.99296 0 0.0741147)
(9.96924 0 0.146389)
(9.92632 0 0.217589)
(9.865 0 0.289424)
(9.78629 0 0.363509)
(9.69067 0 0.440998)
(9.57812 0 0.522845)
(9.44843 0 0.610004)
(9.30131 0 0.703452)
(9.13638 0 0.804161)
(8.95319 0 0.913092)
(8.7512 0 1.03119)
(8.52978 0 1.15939)
(8.28828 0 1.29854)
(8.02595 0 1.44942)
(7.74202 0 1.61257)
(7.43561 0 1.78823)
(7.10571 0 1.97617)
(6.75112 0 2.17536)
(6.37035 0 2.38372)
(5.96148 0 2.59759)
(5.52206 0 2.81118)
(5.04901 0 3.0159)
(4.53856 0 3.19967)
(3.9863 0 3.34634)
(3.38762 0 3.43559)
(2.73704 0 3.4429)
(2.03609 0 3.34105)
(1.24167 0 3.11311)
(0.563475 0 2.69266)
(9.99306 0 0.0826342)
(9.96979 0 0.163693)
(9.92802 0 0.244173)
(9.86876 0 0.325633)
(9.79299 0 0.409625)
(9.70108 0 0.497406)
(9.593 0 0.590054)
(9.46859 0 0.688621)
(9.32761 0 0.794171)
(9.16973 0 0.907761)
(8.99455 0 1.03044)
(8.80158 0 1.16325)
(8.59023 0 1.3072)
(8.35988 0 1.46326)
(8.10977 0 1.63229)
(7.8391 0 1.81497)
(7.54688 0 2.01172)
(7.23193 0 2.22252)
(6.89276 0 2.44668)
(6.52745 0 2.68257)
(6.13341 0 2.92717)
(5.70722 0 3.17552)
(5.24441 0 3.42005)
(4.73931 0 3.64983)
(4.1851 0 3.84982)
(3.57447 0 4.00043)
(2.89932 0 4.07742)
(2.16199 0 4.05188)
(1.31606 0 3.90118)
(0.583194 0 3.53962)
(9.99325 0 0.0909809)
(9.9707 0 0.180508)
(9.93041 0 0.269808)
(9.87353 0 0.360417)
(9.80104 0 0.453851)
(9.71325 0 0.551438)
(9.61014 0 0.654358)
(9.49158 0 0.763755)
(9.3574 0 0.880771)
(9.20731 0 1.00655)
(9.04097 0 1.14222)
(8.85793 0 1.28892)
(8.65766 0 1.44775)
(8.43955 0 1.61979)
(8.20286 0 1.80603)
(7.9467 0 2.00733)
(7.66999 0 2.22432)
(7.37135 0 2.45728)
(7.04898 0 2.70599)
(6.70048 0 2.96943)
(6.32259 0 3.24544)
(5.91095 0 3.53023)
(5.45974 0 3.81769)
(4.96149 0 4.09853)
(4.407 0 4.35936)
(3.78611 0 4.58155)
(3.08738 0 4.74051)
(2.31261 0 4.80389)
(1.41061 0 4.74052)
(0.6143 0 4.44136)
(9.99352 0 0.0990512)
(9.97188 0 0.196691)
(9.93335 0 0.294353)
(9.87915 0 0.393614)
(9.81026 0 0.495986)
(9.72698 0 0.602846)
(9.62928 0 0.715461)
(9.51711 0 0.835056)
(9.39031 0 0.962848)
(9.24869 0 1.10005)
(9.09195 0 1.24789)
(8.9197 0 1.40758)
(8.73149 0 1.58034)
(8.52671 0 1.76735)
(8.30467 0 1.96976)
(8.06444 0 2.18864)
(7.80487 0 2.42488)
(7.52441 0 2.67919)
(7.22101 0 2.95186)
(6.89187 0 3.24266)
(6.53317 0 3.55053)
(6.13968 0 3.87313)
(5.70434 0 4.20624)
(5.21789 0 4.54283)
(4.66853 0 4.87181)
(4.04255 0 5.1763)
(3.32352 0 5.43163)
(2.5097 0 5.60132)
(1.54188 0 5.64289)
(0.664075 0 5.41747)
(9.99384 0 0.106769)
(9.97328 0 0.212124)
(9.93674 0 0.317677)
(9.88549 0 0.425075)
(9.8205 0 0.535846)
(9.74206 0 0.651409)
(9.65019 0 0.7731)
(9.54486 0 0.902217)
(9.42599 0 1.04004)
(9.29345 0 1.18787)
(9.147 0 1.34698)
(8.98634 0 1.51869)
(8.81107 0 1.70431)
(8.62068 0 1.90516)
(8.4145 0 2.12255)
(8.19164 0 2.35779)
(7.95094 0 2.61209)
(7.69081 0 2.88658)
(7.40905 0 3.18222)
(7.10263 0 3.49969)
(6.76737 0 3.83918)
(6.39741 0 4.20012)
(5.98473 0 4.58063)
(5.51838 0 4.97666)
(4.98384 0 5.38055)
(4.36292 0 5.77874)
(3.63174 0 6.14832)
(2.78012 0 6.44992)
(1.73353 0 6.62788)
(0.744901 0 6.50257)
(9.9942 0 0.114078)
(9.97485 0 0.226711)
(9.9405 0 0.339666)
(9.89242 0 0.454666)
(9.83159 0 0.573268)
(9.75831 0 0.696929)
(9.67263 0 0.827042)
(9.57456 0 0.964963)
(9.46409 0 1.11204)
(9.34115 0 1.26961)
(9.20561 0 1.43904)
(9.05723 0 1.62172)
(8.89573 0 1.81905)
(8.72067 0 2.03249)
(8.53149 0 2.26353)
(8.32741 0 2.51367)
(8.10733 0 2.78451)
(7.86973 0 3.07763)
(7.61248 0 3.39468)
(7.33259 0 3.73731)
(7.02578 0 4.10713)
(6.68606 0 4.50555)
(6.30489 0 4.93346)
(5.87023 0 5.39064)
(5.36512 0 5.87441)
(4.76649 0 6.37722)
(4.04058 0 6.88221)
(3.16156 0 7.35261)
(2.02497 0 7.72256)
(0.880904 0 7.75672)
(9.99459 0 0.120932)
(9.97655 0 0.240373)
(9.94456 0 0.360219)
(9.89986 0 0.482266)
(9.84342 0 0.608108)
(9.77555 0 0.739234)
(9.69636 0 0.877082)
(9.6059 0 1.02306)
(9.50423 0 1.17855)
(9.39136 0 1.34496)
(9.26724 0 1.5237)
(9.13176 0 1.71622)
(8.98472 0 1.92403)
(8.82584 0 2.14869)
(8.65469 0 2.39183)
(8.47064 0 2.65522)
(8.2728 0 2.94074)
(8.05988 0 3.25045)
(7.83 0 3.58667)
(7.58048 0 3.95201)
(7.30747 0 4.3495)
(7.00536 0 4.78262)
(6.666 0 5.25535)
(6.27742 0 5.77198)
(5.82163 0 6.33653)
(5.27198 0 6.95111)
(4.58442 0 7.61232)
(3.71024 0 8.2998)
(2.4887 0 8.95758)
(1.12488 0 9.29325)
(9.995 0 0.127296)
(9.97835 0 0.253046)
(9.94885 0 0.379251)
(9.9077 0 0.507776)
(9.85584 0 0.640249)
(9.79361 0 0.778187)
(9.72116 0 0.923061)
(9.63859 0 1.07631)
(9.54605 0 1.23937)
(9.44362 0 1.41366)
(9.33136 0 1.60066)
(9.20926 0 1.80186)
(9.07726 0 2.01882)
(8.93525 0 2.25321)
(8.78297 0 2.5068)
(8.62005 0 2.78154)
(8.44586 0 3.07957)
(8.25948 0 3.40336)
(8.05953 0 3.75581)
(7.84396 0 4.14037)
(7.60977 0 4.56134)
(7.35253 0 5.02414)
(7.06566 0 5.53569)
(6.73906 0 6.10501)
(6.35684 0 6.74382)
(5.8934 0 7.46725)
(5.30068 0 8.29454)
(4.50947 0 9.2464)
(3.26999 0 10.3411)
(1.60599 0 11.3602)
(9.99544 0 0.133143)
(9.98024 0 0.264678)
(9.95334 0 0.39669)
(9.91586 0 0.531102)
(9.86873 0 0.669569)
(9.81232 0 0.813632)
(9.7468 0 0.964784)
(9.67236 0 1.12449)
(9.5892 0 1.29421)
(9.4975 0 1.47539)
(9.39741 0 1.66952)
(9.28905 0 1.87813)
(9.17254 0 2.10285)
(9.04791 0 2.34538)
(8.91516 0 2.60759)
(8.77418 0 2.89156)
(8.62473 0 3.19963)
(8.46636 0 3.53456)
(8.29836 0 3.89965)
(8.11958 0 4.29899)
(7.92835 0 4.73779)
(7.72211 0 5.22288)
(7.49706 0 5.76349)
(7.24733 0 6.37244)
(6.96348 0 7.06818)
(6.63007 0 7.87858)
(6.21438 0 8.84917)
(5.66711 0 10.0632)
(4.69304 0 11.7296)
(2.69011 0 14.5964)
(0.198466 0 -0.220044)
(0.44302 0 -0.188686)
(0.699408 0 -0.154668)
(0.928064 0 -0.127373)
(1.1233 0 -0.106137)
(1.29136 0 -0.0892777)
(1.43859 0 -0.0756667)
(1.56912 0 -0.0645276)
(1.68543 0 -0.0551665)
(1.78895 0 -0.0469097)
(1.88003 0 -0.0392118)
(1.95819 0 -0.0318631)
(2.02294 0 -0.0250708)
(2.07479 0 -0.0191193)
(2.11487 0 -0.013897)
(2.14305 0 -0.00896125)
(2.15811 0 -0.00399676)
(2.16155 0 0.00194133)
(2.15656 0 0.00772704)
(2.14568 0 0.01122)
(2.1319 0 0.0110951)
(2.11999 0 0.00655337)
(2.1153 0 -0.00172806)
(2.12143 0 -0.0118357)
(2.13972 0 -0.0215078)
(2.16928 0 -0.0288781)
(2.20892 0 -0.0333086)
(2.25832 0 -0.0355238)
(2.31839 0 -0.0359507)
(2.40721 0 -0.0330121)
(0.139939 0 -0.435825)
(0.36772 0 -0.394535)
(0.591291 0 -0.332553)
(0.793417 0 -0.279354)
(0.968934 0 -0.237044)
(1.12245 0 -0.20308)
(1.25877 0 -0.17544)
(1.38107 0 -0.152664)
(1.49142 0 -0.133344)
(1.59118 0 -0.115938)
(1.68093 0 -0.0990312)
(1.76013 0 -0.0820729)
(1.82764 0 -0.0659385)
(1.88344 0 -0.0516695)
(1.92982 0 -0.037468)
(1.96834 0 -0.0210471)
(1.99662 0 -0.00820366)
(2.01531 0 -0.00250952)
(2.02342 0 -0.00104036)
(2.01367 0 0.000609246)
(1.98348 0 0.00199588)
(1.93212 0 0.0020574)
(1.86376 0 0.00110971)
(1.78604 0 -0.000180754)
(1.70832 0 -0.0018028)
(1.64231 0 -0.0045667)
(1.59671 0 -0.00870169)
(1.56829 0 -0.0146869)
(1.56601 0 -0.0246244)
(1.62242 0 -0.0376261)
(0.0944435 0 -0.655601)
(0.276415 0 -0.607512)
(0.438976 0 -0.519833)
(0.588322 0 -0.441736)
(0.716848 0 -0.378475)
(0.828246 0 -0.326962)
(0.925544 0 -0.284506)
(1.01072 0 -0.249183)
(1.08516 0 -0.219203)
(1.14995 0 -0.192422)
(1.20623 0 -0.166349)
(1.25378 0 -0.139156)
(1.28993 0 -0.112423)
(1.31229 0 -0.0920508)
(1.32409 0 -0.0803665)
(1.33519 0 -0.0665223)
(1.31698 0 -0.0414694)
(1.23833 0 -0.0115843)
(1.12861 0 0.0167724)
(1.01471 0 0.0447293)
(0.899657 0 0.0677162)
(0.785356 0 0.0811599)
(0.676635 0 0.0840362)
(0.580002 0 0.0764204)
(0.503022 0 0.0586303)
(0.455614 0 0.0315423)
(0.438742 0 0.00422636)
(0.467195 0 -0.0238528)
(0.528669 0 -0.0644279)
(0.657443 0 -0.106637)
(0.0554076 0 -0.803215)
(0.180402 0 -0.741592)
(0.270539 0 -0.631936)
(0.357948 0 -0.53566)
(0.428286 0 -0.457088)
(0.486054 0 -0.392397)
(0.53227 0 -0.338413)
(0.567606 0 -0.292799)
(0.59217 0 -0.253748)
(0.605986 0 -0.219624)
(0.611541 0 -0.188384)
(0.61111 0 -0.156935)
(0.600796 0 -0.122796)
(0.573949 0 -0.0828652)
(0.483502 0 -0.0354786)
(0.33888 0 0.014161)
(0.233858 0 0.0635454)
(0.150593 0 0.0999694)
(0.0604125 0 0.120712)
(-0.0249962 0 0.132316)
(-0.103779 0 0.137736)
(-0.174067 0 0.13503)
(-0.23054 0 0.122591)
(-0.269355 0 0.100157)
(-0.28709 0 0.068784)
(-0.283086 0 0.0304973)
(-0.272077 0 -0.0135844)
(-0.221152 0 -0.0619316)
(-0.162126 0 -0.111446)
(-0.0875884 0 -0.151741)
(0.0168044 0 -0.885693)
(0.0756955 0 -0.805744)
(0.0869343 0 -0.6787)
(0.106139 0 -0.570636)
(0.10983 0 -0.481077)
(0.104742 0 -0.406468)
(0.0899604 0 -0.343307)
(0.0654686 0 -0.288332)
(0.0287564 0 -0.238491)
(-0.0238848 0 -0.192302)
(-0.0923934 0 -0.147758)
(-0.176229 0 -0.100013)
(-0.274369 0 -0.0462619)
(-0.390124 0 0.00983819)
(-0.466214 0 0.0535051)
(-0.533905 0 0.0823235)
(-0.602483 0 0.10758)
(-0.667732 0 0.134305)
(-0.728446 0 0.155163)
(-0.781773 0 0.165276)
(-0.82557 0 0.165207)
(-0.857779 0 0.15496)
(-0.876685 0 0.13382)
(-0.881857 0 0.102556)
(-0.874054 0 0.0634566)
(-0.856042 0 0.0186762)
(-0.832862 0 -0.0321993)
(-0.797963 0 -0.0843181)
(-0.766069 0 -0.131374)
(-0.745281 0 -0.164894)
(-0.0240799 0 -0.893866)
(-0.0386352 0 -0.791488)
(-0.105963 0 -0.652851)
(-0.16056 0 -0.537621)
(-0.227554 0 -0.44046)
(-0.300977 0 -0.358737)
(-0.381764 0 -0.288651)
(-0.469324 0 -0.226972)
(-0.562514 0 -0.171436)
(-0.659851 0 -0.120207)
(-0.760532 0 -0.0713695)
(-0.863796 0 -0.0245663)
(-0.958133 0 0.0184837)
(-1.02753 0 0.0558297)
(-1.09399 0 0.090217)
(-1.15616 0 0.121804)
(-1.21326 0 0.147502)
(-1.26327 0 0.168259)
(-1.30473 0 0.181916)
(-1.33667 0 0.185764)
(-1.35844 0 0.179075)
(-1.36976 0 0.16182)
(-1.37097 0 0.134219)
(-1.36312 0 0.0975959)
(-1.34802 0 0.05423)
(-1.32827 0 0.00623532)
(-1.30213 0 -0.0454731)
(-1.27843 0 -0.0968006)
(-1.26161 0 -0.142966)
(-1.2551 0 -0.17667)
(-0.0710204 0 -0.822978)
(-0.160058 0 -0.701583)
(-0.300203 0 -0.560715)
(-0.425348 0 -0.444671)
(-0.55416 0 -0.34765)
(-0.681557 0 -0.266723)
(-0.806352 0 -0.19822)
(-0.927565 0 -0.13856)
(-1.04456 0 -0.0852254)
(-1.1566 0 -0.0372391)
(-1.26074 0 0.00531623)
(-1.3479 0 0.0417554)
(-1.42296 0 0.0743268)
(-1.49271 0 0.105094)
(-1.55596 0 0.133709)
(-1.61208 0 0.158901)
(-1.6603 0 0.179211)
(-1.69951 0 0.193539)
(-1.72896 0 0.200179)
(-1.74846 0 0.197427)
(-1.75826 0 0.184574)
(-1.75892 0 0.161686)
(-1.75144 0 0.129428)
(-1.73729 0 0.0892823)
(-1.71872 0 0.0432999)
(-1.69912 0 -0.0061579)
(-1.6774 0 -0.0563868)
(-1.66206 0 -0.104801)
(-1.65461 0 -0.148752)
(-1.65411 0 -0.181119)
(-0.120714 0 -0.67677)
(-0.277176 0 -0.544582)
(-0.483307 0 -0.409566)
(-0.665745 0 -0.301954)
(-0.839774 0 -0.215171)
(-1.00207 0 -0.143914)
(-1.15213 0 -0.0841821)
(-1.2899 0 -0.0334996)
(-1.41118 0 0.00823965)
(-1.51544 0 0.0428835)
(-1.60533 0 0.0726808)
(-1.6883 0 0.100398)
(-1.76387 0 0.126741)
(-1.83178 0 0.151372)
(-1.8914 0 0.17345)
(-1.9423 0 0.19185)
(-1.98407 0 0.205404)
(-2.01621 0 0.212862)
(-2.03849 0 0.212733)
(-2.05111 0 0.203741)
(-2.05467 0 0.185333)
(-2.05011 0 0.157729)
(-2.03877 0 0.12189)
(-2.02248 0 0.0795074)
(-2.00374 0 0.0326463)
(-1.98568 0 -0.0163129)
(-1.96975 0 -0.0641868)
(-1.96143 0 -0.10926)
(-1.96103 0 -0.150225)
(-1.96408 0 -0.180136)
(-0.173317 0 -0.464685)
(-0.389614 0 -0.335412)
(-0.652631 0 -0.21865)
(-0.88019 0 -0.125732)
(-1.08484 0 -0.0514567)
(-1.26101 0 0.00166022)
(-1.41192 0 0.0407037)
(-1.54079 0 0.0704187)
(-1.65443 0 0.0954753)
(-1.75671 0 0.118241)
(-1.84889 0 0.139561)
(-1.93184 0 0.159664)
(-2.00583 0 0.178477)
(-2.07086 0 0.195668)
(-2.12675 0 0.210399)
(-2.17334 0 0.221604)
(-2.21048 0 0.228131)
(-2.23808 0 0.228747)
(-2.25622 0 0.222158)
(-2.26531 0 0.207347)
(-2.26613 0 0.183934)
(-2.25979 0 0.152307)
(-2.24781 0 0.113644)
(-2.23215 0 0.0698018)
(-2.21526 0 0.022992)
(-2.19998 0 -0.0242858)
(-2.18953 0 -0.0691596)
(-2.18752 0 -0.110605)
(-2.19309 0 -0.148108)
(-2.19888 0 -0.175167)
(-0.240481 0 -0.210146)
(-0.513752 0 -0.0514734)
(-0.805281 0 0.0411166)
(-1.04414 0 0.0929236)
(-1.2456 0 0.1213)
(-1.41944 0 0.141403)
(-1.5707 0 0.157305)
(-1.70318 0 0.170997)
(-1.81985 0 0.183456)
(-1.92296 0 0.195164)
(-2.01429 0 0.206546)
(-2.09506 0 0.217716)
(-2.16603 0 0.228286)
(-2.22756 0 0.237617)
(-2.27975 0 0.244802)
(-2.32267 0 0.248792)
(-2.35642 0 0.248448)
(-2.38113 0 0.242568)
(-2.3971 0 0.229991)
(-2.40487 0 0.209879)
(-2.40524 0 0.182016)
(-2.39939 0 0.146959)
(-2.38884 0 0.106041)
(-2.37558 0 0.0612488)
(-2.36195 0 0.0150195)
(-2.35041 0 -0.0299898)
(-2.34526 0 -0.0714852)
(-2.34916 0 -0.109093)
(-2.36015 0 -0.142911)
(-2.36838 0 -0.167192)
(-0.270807 0 0.21854)
(-0.566357 0 0.268661)
(-0.876928 0 0.288568)
(-1.12976 0 0.293779)
(-1.34391 0 0.290882)
(-1.52501 0 0.284969)
(-1.67894 0 0.278886)
(-1.81118 0 0.274288)
(-1.92585 0 0.271637)
(-2.02586 0 0.270762)
(-2.11335 0 0.271431)
(-2.18992 0 0.273241)
(-2.25666 0 0.275413)
(-2.31414 0 0.276946)
(-2.36262 0 0.276782)
(-2.40232 0 0.273861)
(-2.43349 0 0.267071)
(-2.45647 0 0.255242)
(-2.47171 0 0.237277)
(-2.47975 0 0.212454)
(-2.48139 0 0.180694)
(-2.47772 0 0.142715)
(-2.47019 0 0.0999982)
(-2.46062 0 0.0546608)
(-2.45119 0 0.0093277)
(-2.44432 0 -0.0332261)
(-2.44439 0 -0.0712202)
(-2.45399 0 -0.104845)
(-2.47015 0 -0.13486)
(-2.48074 0 -0.156552)
(-0.28226 0 0.574185)
(-0.607917 0 0.59591)
(-0.945312 0 0.559237)
(-1.20863 0 0.512877)
(-1.42398 0 0.468216)
(-1.60094 0 0.429529)
(-1.74831 0 0.39816)
(-1.87317 0 0.374111)
(-1.98056 0 0.356017)
(-2.0736 0 0.34239)
(-2.15448 0 0.332349)
(-2.22501 0 0.32506)
(-2.28646 0 0.319244)
(-2.33945 0 0.313453)
(-2.38423 0 0.306436)
(-2.42103 0 0.297152)
(-2.45027 0 0.284556)
(-2.47247 0 0.267493)
(-2.48817 0 0.24487)
(-2.4979 0 0.216003)
(-2.50235 0 0.180919)
(-2.50246 0 0.140474)
(-2.49945 0 0.0963076)
(-2.49482 0 0.0506932)
(-2.49039 0 0.00639006)
(-2.48862 0 -0.0338297)
(-2.49383 0 -0.0684079)
(-2.50896 0 -0.0979562)
(-2.53021 0 -0.12404)
(-2.5432 0 -0.143248)
(-0.318665 0 0.999012)
(-0.684469 0 0.963698)
(-1.03958 0 0.84299)
(-1.29553 0 0.729378)
(-1.49489 0 0.637741)
(-1.65409 0 0.564656)
(-1.78432 0 0.507695)
(-1.8941 0 0.465143)
(-1.98901 0 0.432958)
(-2.07157 0 0.407541)
(-2.14335 0 0.387559)
(-2.2062 0 0.372085)
(-2.26156 0 0.359272)
(-2.30988 0 0.347016)
(-2.35112 0 0.333872)
(-2.38542 0 0.318945)
(-2.41335 0 0.301354)
(-2.43565 0 0.279949)
(-2.45294 0 0.253542)
(-2.46571 0 0.221406)
(-2.47447 0 0.18362)
(-2.47993 0 0.141153)
(-2.48296 0 0.0957739)
(-2.48459 0 0.0499155)
(-2.48608 0 0.00648166)
(-2.4897 0 -0.0317125)
(-2.49997 0 -0.0631207)
(-2.52047 0 -0.0885506)
(-2.54682 0 -0.110468)
(-2.5623 0 -0.127106)
(-0.392688 0 1.49244)
(-0.821245 0 1.37094)
(-1.18385 0 1.12339)
(-1.40263 0 0.921787)
(-1.56123 0 0.783797)
(-1.68702 0 0.679467)
(-1.78878 0 0.599336)
(-1.87539 0 0.541955)
(-1.95317 0 0.499399)
(-2.02251 0 0.464226)
(-2.08309 0 0.435593)
(-2.13684 0 0.413489)
(-2.18567 0 0.395326)
(-2.22961 0 0.377837)
(-2.26783 0 0.359428)
(-2.30022 0 0.339663)
(-2.32754 0 0.31803)
(-2.35086 0 0.29335)
(-2.37092 0 0.264185)
(-2.38808 0 0.229638)
(-2.40264 0 0.18979)
(-2.41506 0 0.145701)
(-2.42581 0 0.0992375)
(-2.43527 0 0.0529517)
(-2.4439 0 0.0099144)
(-2.4534 0 -0.0268288)
(-2.46868 0 -0.055504)
(-2.49431 0 -0.0768082)
(-2.52572 0 -0.0940722)
(-2.54379 0 -0.107705)
(-0.554244 0 2.31434)
(-1.05882 0 1.95009)
(-1.41658 0 1.40731)
(-1.54202 0 1.0465)
(-1.62007 0 0.88178)
(-1.69705 0 0.763593)
(-1.75943 0 0.66559)
(-1.8142 0 0.599261)
(-1.87139 0 0.553259)
(-1.92635 0 0.510896)
(-1.97391 0 0.474798)
(-2.01706 0 0.448267)
(-2.05936 0 0.4274)
(-2.09995 0 0.406291)
(-2.13629 0 0.38344)
(-2.16768 0 0.359559)
(-2.19535 0 0.334883)
(-2.2209 0 0.30813)
(-2.2452 0 0.277318)
(-2.26833 0 0.241249)
(-2.29033 0 0.200036)
(-2.31143 0 0.15485)
(-2.33182 0 0.107563)
(-2.35109 0 0.0606735)
(-2.36855 0 0.0173694)
(-2.38491 0 -0.0188138)
(-2.40527 0 -0.0454899)
(-2.43563 0 -0.0627465)
(-2.47192 0 -0.0745505)
(-2.49265 0 -0.0843604)
(9.9959 0 0.138545)
(9.98223 0 0.275426)
(9.95805 0 0.412792)
(9.92444 0 0.552611)
(9.88227 0 0.696561)
(9.83195 0 0.846195)
(9.77371 0 1.00302)
(9.70779 0 1.16851)
(9.63448 0 1.34413)
(9.55404 0 1.53135)
(9.46676 0 1.73165)
(9.37288 0 1.94659)
(9.27268 0 2.17778)
(9.16642 0 2.42697)
(9.05434 0 2.69607)
(8.93666 0 2.98722)
(8.81359 0 3.30284)
(8.68525 0 3.64585)
(8.55172 0 4.01972)
(8.41302 0 4.42885)
(8.26907 0 4.87886)
(8.11979 0 5.37719)
(7.96513 0 5.93401)
(7.80542 0 6.56366)
(7.64191 0 7.28718)
(7.47973 0 8.13718)
(7.33236 0 9.16762)
(7.2905 0 10.4722)
(7.75467 0 12.1958)
(7.9496 0 14.9153)
(9.99638 0 0.143511)
(9.98431 0 0.285295)
(9.963 0 0.42754)
(9.93342 0 0.572246)
(9.89641 0 0.721107)
(9.85241 0 0.87568)
(9.80169 0 1.03747)
(9.74456 0 1.20797)
(9.68139 0 1.38861)
(9.61254 0 1.58087)
(9.53841 0 1.78621)
(9.4594 0 2.00617)
(9.37596 0 2.24236)
(9.28857 0 2.49649)
(9.19774 0 2.77046)
(9.10406 0 3.06637)
(9.00817 0 3.38665)
(8.91084 0 3.73412)
(8.81296 0 4.11225)
(8.71574 0 4.52527)
(8.62078 0 4.97859)
(8.53046 0 5.47923)
(8.44852 0 6.03647)
(8.38125 0 6.66286)
(8.33988 0 7.37559)
(8.3466 0 8.19796)
(8.44045 0 9.15997)
(8.67758 0 10.2945)
(9.32718 0 11.5455)
(9.822 0 12.6242)
(9.99688 0 0.147956)
(9.98648 0 0.29412)
(9.96813 0 0.440711)
(9.94273 0 0.589743)
(9.91106 0 0.742913)
(9.87356 0 0.901774)
(9.83057 0 1.06782)
(9.78246 0 1.24252)
(9.72967 0 1.42729)
(9.67266 0 1.62357)
(9.61194 0 1.83281)
(9.54807 0 2.05647)
(9.48166 0 2.29612)
(9.4134 0 2.55341)
(9.3441 0 2.83013)
(9.27468 0 3.12829)
(9.20623 0 3.45015)
(9.14009 0 3.79834)
(9.07795 0 4.17596)
(9.02203 0 4.58676)
(8.97533 0 5.03533)
(8.94216 0 5.52732)
(8.92879 0 6.06968)
(8.94478 0 6.67074)
(9.00461 0 7.33987)
(9.13045 0 8.08558)
(9.35328 0 8.9095)
(9.6824 0 9.80007)
(10.2469 0 10.7052)
(10.9324 0 11.4133)
(9.99739 0 0.151825)
(9.98871 0 0.301796)
(9.97341 0 0.452138)
(9.95229 0 0.604869)
(9.92608 0 0.761678)
(9.89523 0 0.924099)
(9.86013 0 1.09361)
(9.8212 0 1.27163)
(9.77895 0 1.45956)
(9.73394 0 1.65878)
(9.68677 0 1.87066)
(9.63814 0 2.09662)
(9.58883 0 2.33811)
(9.53975 0 2.59667)
(9.49192 0 2.87396)
(9.44659 0 3.17176)
(9.40524 0 3.49208)
(9.36969 0 3.83718)
(9.34225 0 4.20961)
(9.32587 0 4.61235)
(9.32448 0 5.04878)
(9.34339 0 5.5227)
(9.38982 0 6.03823)
(9.47367 0 6.59926)
(9.6081 0 7.2085)
(9.8099 0 7.8655)
(10.1017 0 8.56303)
(10.492 0 9.28622)
(11.0471 0 10.0248)
(11.8365 0 10.6657)
(9.99792 0 0.155071)
(9.99098 0 0.308229)
(9.97879 0 0.461687)
(9.96202 0 0.617448)
(9.94135 0 0.777182)
(9.91724 0 0.942396)
(9.89011 0 1.11453)
(9.86044 0 1.29496)
(9.8288 0 1.48502)
(9.79582 0 1.68603)
(9.76221 0 1.89928)
(9.72877 0 2.12608)
(9.69643 0 2.36776)
(9.66627 0 2.6257)
(9.63953 0 2.90133)
(9.61769 0 3.1962)
(9.60253 0 3.51194)
(9.59622 0 3.85034)
(9.60145 0 4.21329)
(9.6216 0 4.60284)
(9.66098 0 5.02107)
(9.7251 0 5.46997)
(9.82102 0 5.95114)
(9.95766 0 6.46522)
(10.146 0 7.01109)
(10.3991 0 7.58484)
(10.7342 0 8.17828)
(11.1626 0 8.7767)
(11.7071 0 9.36857)
(12.4561 0 9.87912)
(9.99845 0 0.157653)
(9.99328 0 0.313335)
(9.98422 0 0.469229)
(9.97184 0 0.627314)
(9.95675 0 0.789223)
(9.9394 0 0.956424)
(9.92026 0 1.1303)
(9.89984 0 1.31219)
(9.87877 0 1.50334)
(9.85773 0 1.70498)
(9.83753 0 1.9183)
(9.81905 0 2.14449)
(9.80333 0 2.38471)
(9.79158 0 2.64014)
(9.7852 0 2.912)
(9.78583 0 3.20148)
(9.79545 0 3.50985)
(9.8164 0 3.83833)
(9.85154 0 4.18814)
(9.90436 0 4.56039)
(9.97913 0 4.95598)
(10.081 0 5.37536)
(10.2164 0 5.81826)
(10.3928 0 6.28319)
(10.6189 0 6.76689)
(10.9043 0 7.26357)
(11.2602 0 7.764)
(11.6945 0 8.25267)
(12.2078 0 8.71293)
(12.8794 0 9.10338)
(9.99898 0 0.159529)
(9.99558 0 0.317035)
(9.98966 0 0.474653)
(9.98167 0 0.634318)
(9.97214 0 0.797619)
(9.96153 0 0.965972)
(9.95031 0 1.1407)
(9.93905 0 1.32306)
(9.9284 0 1.51423)
(9.91909 0 1.71534)
(9.91199 0 1.92744)
(9.90805 0 2.15157)
(9.90839 0 2.38873)
(9.91429 0 2.63989)
(9.92724 0 2.90597)
(9.94897 0 3.18786)
(9.98153 0 3.48638)
(10.0273 0 3.80223)
(10.0891 0 4.13599)
(10.1703 0 4.48793)
(10.2748 0 4.85795)
(10.4072 0 5.24536)
(10.5727 0 5.64855)
(10.7773 0 6.06473)
(11.0274 0 6.4894)
(11.3293 0 6.91588)
(11.689 0 7.33486)
(12.1105 0 7.73296)
(12.5879 0 8.09569)
(13.1896 0 8.40267)
(9.99951 0 0.160668)
(9.99787 0 0.319263)
(9.99505 0 0.47786)
(9.99142 0 0.638334)
(9.98739 0 0.802219)
(9.98342 0 0.970868)
(9.98 0 1.14554)
(9.9777 0 1.32739)
(9.97722 0 1.51751)
(9.97931 0 1.71691)
(9.98485 0 1.92653)
(9.99487 0 2.14723)
(10.0105 0 2.37982)
(10.033 0 2.62505)
(10.064 0 2.88356)
(10.1052 0 3.15591)
(10.1586 0 3.44251)
(10.2264 0 3.7436)
(10.3114 0 4.05915)
(10.4165 0 4.38879)
(10.5451 0 4.73165)
(10.7012 0 5.08621)
(10.8886 0 5.45009)
(11.1119 0 5.81976)
(11.3752 0 6.19035)
(11.6822 0 6.55532)
(12.0358 0 6.90642)
(12.4374 0 7.23339)
(12.8794 0 7.52519)
(13.4194 0 7.7706)
(10 0 0.16104)
(10.0001 0 0.319964)
(10.0004 0 0.47877)
(10.001 0 0.639262)
(10.0024 0 0.802905)
(10.0049 0 0.970982)
(10.009 0 1.14466)
(10.0155 0 1.32503)
(10.0248 0 1.51305)
(10.0378 0 1.70963)
(10.0554 0 1.91554)
(10.0786 0 2.13151)
(10.1086 0 2.35814)
(10.1466 0 2.59595)
(10.1942 0 2.84533)
(10.2529 0 3.10651)
(10.3248 0 3.37956)
(10.4118 0 3.6643)
(10.5163 0 3.96023)
(10.641 0 4.26648)
(10.7886 0 4.58166)
(10.9622 0 4.90377)
(11.1646 0 5.23001)
(11.3988 0 5.55668)
(11.6675 0 5.87906)
(11.9723 0 6.19133)
(12.3143 0 6.48664)
(12.693 0 6.75724)
(13.1008 0 6.99483)
(13.5862 0 7.19264)
(10.0005 0 0.160623)
(10.0023 0 0.319096)
(10.0055 0 0.477324)
(10.0103 0 0.637026)
(10.0169 0 0.799593)
(10.0257 0 0.966227)
(10.0372 0 1.13801)
(10.052 0 1.31592)
(10.0706 0 1.50083)
(10.094 0 1.6935)
(10.123 0 1.89457)
(10.1586 0 2.1046)
(10.2018 0 2.32402)
(10.254 0 2.55312)
(10.3164 0 2.79205)
(10.3908 0 3.04078)
(10.4786 0 3.29907)
(10.5819 0 3.56641)
(10.7026 0 3.84195)
(10.8428 0 4.12449)
(11.0047 0 4.41233)
(11.1905 0 4.70323)
(11.4022 0 4.99432)
(11.6416 0 5.28202)
(11.91 0 5.56208)
(12.208 0 5.82955)
(12.5351 0 6.07891)
(12.89 0 6.30433)
(13.2657 0 6.49981)
(13.7038 0 6.66123)
(10.001 0 0.159404)
(10.0044 0 0.31663)
(10.0105 0 0.47348)
(10.0193 0 0.631581)
(10.031 0 0.792238)
(10.0458 0 0.956565)
(10.0642 0 1.12555)
(10.0869 0 1.30008)
(10.1144 0 1.4809)
(10.1475 0 1.66864)
(10.1871 0 1.86382)
(10.234 0 2.06684)
(10.2893 0 2.27795)
(10.3541 0 2.49726)
(10.4298 0 2.7247)
(10.5177 0 2.96001)
(10.6192 0 3.20273)
(10.7359 0 3.45209)
(10.8695 0 3.70703)
(11.0215 0 3.96613)
(11.1936 0 4.22757)
(11.3873 0 4.48907)
(11.6037 0 4.74788)
(11.8439 0 5.00074)
(12.1082 0 5.24397)
(12.3964 0 5.47349)
(12.7072 0 5.685)
(13.0389 0 5.87417)
(13.3853 0 6.03681)
(13.7828 0 6.17042)
(10.0015 0 0.157373)
(10.0065 0 0.312551)
(10.0153 0 0.467221)
(10.028 0 0.622909)
(10.0444 0 0.780829)
(10.0649 0 0.942004)
(10.0899 0 1.10733)
(10.12 0 1.27757)
(10.1558 0 1.45338)
(10.1979 0 1.63527)
(10.2471 0 1.82362)
(10.3043 0 2.01868)
(10.3704 0 2.22056)
(10.4465 0 2.42919)
(10.5336 0 2.64435)
(10.6329 0 2.8656)
(10.7458 0 3.09228)
(10.8733 0 3.32349)
(11.0168 0 3.55804)
(11.1774 0 3.79443)
(11.3562 0 4.03082)
(11.5542 0 4.26503)
(11.772 0 4.49456)
(12.0098 0 4.71654)
(12.2674 0 4.92791)
(12.5441 0 5.12538)
(12.8383 0 5.30566)
(13.148 0 5.46562)
(13.4681 0 5.60236)
(13.8306 0 5.71439)
(10.0019 0 0.15453)
(10.0084 0 0.306858)
(10.0199 0 0.45855)
(10.0361 0 0.611022)
(10.057 0 0.765395)
(10.0829 0 0.922597)
(10.114 0 1.08343)
(10.151 0 1.24855)
(10.1944 0 1.4185)
(10.2447 0 1.59369)
(10.3026 0 1.77437)
(10.369 0 1.96067)
(10.4446 0 2.15256)
(10.5304 0 2.34985)
(10.6273 0 2.55218)
(10.7362 0 2.75898)
(10.8581 0 2.96948)
(10.994 0 3.18271)
(11.1448 0 3.3974)
(11.3112 0 3.61209)
(11.494 0 3.82502)
(11.6935 0 4.03418)
(11.9099 0 4.23736)
(12.1431 0 4.43215)
(12.3925 0 4.61602)
(12.6569 0 4.7864)
(12.9347 0 4.94082)
(13.2241 0 5.07703)
(13.5206 0 5.19305)
(13.8531 0 5.28804)
(10.0024 0 0.15088)
(10.0102 0 0.299563)
(10.0241 0 0.447489)
(10.0437 0 0.59596)
(10.0688 0 0.745999)
(10.0997 0 0.898442)
(10.1365 0 1.05399)
(10.1798 0 1.21321)
(10.23 0 1.37653)
(10.2877 0 1.54427)
(10.3534 0 1.71656)
(10.4279 0 1.89344)
(10.5118 0 2.07475)
(10.6058 0 2.26022)
(10.7108 0 2.44938)
(10.8274 0 2.64159)
(10.9564 0 2.83603)
(11.0985 0 3.03167)
(11.2543 0 3.2273)
(11.4241 0 3.42149)
(11.6085 0 3.61265)
(11.8073 0 3.79899)
(12.0205 0 3.97861)
(12.2476 0 4.14951)
(12.4878 0 4.30966)
(12.7397 0 4.45708)
(13.002 0 4.58994)
(13.2727 0 4.70665)
(13.5481 0 4.80587)
(13.8545 0 4.88719)
(10.0027 0 0.146436)
(10.0119 0 0.290693)
(10.0281 0 0.434081)
(10.0508 0 0.577789)
(10.0798 0 0.722739)
(10.1151 0 0.869675)
(10.1571 0 1.0192)
(10.2061 0 1.1718)
(10.2625 0 1.32781)
(10.3267 0 1.48743)
(10.3993 0 1.65074)
(10.4807 0 1.81766)
(10.5716 0 1.98797)
(10.6725 0 2.16131)
(10.784 0 2.33716)
(10.9067 0 2.51484)
(11.041 0 2.69351)
(11.1874 0 2.87216)
(11.3462 0 3.04965)
(11.5176 0 3.22466)
(11.7017 0 3.39577)
(11.8982 0 3.56142)
(12.1068 0 3.72003)
(12.3269 0 3.86996)
(12.5574 0 4.00961)
(12.7971 0 4.13749)
(13.0446 0 4.25225)
(13.2983 0 4.35277)
(13.5549 0 4.4382)
(13.8386 0 4.50836)
(10.0031 0 0.141217)
(10.0134 0 0.280286)
(10.0317 0 0.418389)
(10.0573 0 0.556598)
(10.0898 0 0.69574)
(10.1293 0 0.836466)
(10.1759 0 0.979297)
(10.23 0 1.12462)
(10.2918 0 1.2727)
(10.3617 0 1.42366)
(10.4402 0 1.57748)
(10.5275 0 1.73404)
(10.6242 0 1.89306)
(10.7307 0 2.05412)
(10.8473 0 2.21667)
(10.9745 0 2.38004)
(11.1125 0 2.54339)
(11.2615 0 2.70578)
(11.4218 0 2.86614)
(11.5932 0 3.0233)
(11.7756 0 3.17602)
(11.9686 0 3.32299)
(12.1717 0 3.46288)
(12.3842 0 3.59439)
(12.605 0 3.71629)
(12.8329 0 3.82743)
(13.0667 0 3.92686)
(13.3048 0 4.01381)
(13.5447 0 4.08773)
(13.8084 0 4.14863)
(10.0034 0 0.135245)
(10.0148 0 0.268388)
(10.035 0 0.400486)
(10.0632 0 0.532497)
(10.0988 0 0.665151)
(10.142 0 0.799016)
(10.1927 0 0.934527)
(10.2513 0 1.072)
(10.3179 0 1.21162)
(10.3927 0 1.35344)
(10.4761 0 1.4974)
(10.5684 0 1.64331)
(10.6697 0 1.79086)
(10.7806 0 1.93962)
(10.901 0 2.08902)
(11.0314 0 2.2384)
(11.1717 0 2.38698)
(11.3222 0 2.5339)