/*--------------------------------*- C++ -*----------------------------------*\
  =========                 |
  \\      /  F ield         | OpenFOAM: The Open Source CFD Toolbox
   \\    /   O peration     | Website:  https://openfoam.org
    \\  /    A nd           | Version:  dev
     \\/     M anipulation  |
\*---------------------------------------------------------------------------*/
FoamFile
{
    version     2.0;
    format      ascii;
    class       volScalarField;
    location    "7.4";
    object      p;
}
// * * * * * * * * * * * * * * * * * * * * * * * * * * * * * * * * * * * * * //

dimensions      [0 2 -2 0 0 0 0];

internalField   nonuniform List<scalar> 
2790
(
146.769
146.676
146.943
147.514
148.294
149.252
150.384
151.691
153.167
154.808
156.608
158.559
160.652
162.877
165.218
167.654
170.158
172.697
175.229
177.703
180.061
182.239
184.169
185.79
187.05
187.924
188.36
188.415
188.466
188.679
146.566
146.584
146.876
147.444
148.22
149.174
150.302
151.603
153.072
154.705
156.495
158.436
160.519
162.732
165.062
167.487
169.983
172.517
175.047
177.525
179.893
182.088
184.043
185.692
186.976
187.85
188.247
188.302
188.434
188.719
146.367
146.455
146.766
147.324
148.087
149.029
150.142
151.424
152.872
154.48
156.242
158.151
160.199
162.375
164.663
167.045
169.497
171.988
174.48
176.927
179.277
181.47
183.442
185.132
186.483
187.459
188.052
188.407
188.722
189.021
146.142
146.261
146.585
147.134
147.882
148.807
149.901
151.159
152.578
154.152
155.876
157.741
159.74
161.861
164.089
166.407
168.792
171.215
173.642
176.032
178.339
180.511
182.493
184.233
185.687
186.839
187.707
188.378
188.931
189.45
145.882
146.014
146.346
146.888
147.62
148.524
149.592
150.819
152.2
153.732
155.406
157.215
159.151
161.202
163.353
165.589
167.887
170.222
172.564
174.877
177.122
179.257
181.24
183.03
184.601
185.943
187.073
188.036
188.847
189.593
145.581
145.719
146.053
146.585
147.297
148.175
149.211
150.4
151.738
153.217
154.832
156.575
158.436
160.404
162.465
164.603
166.798
169.027
171.264
173.48
175.642
177.72
179.682
181.503
183.166
184.667
186.014
187.219
188.239
189.157
145.238
145.377
145.709
146.227
146.917
147.765
148.764
149.909
151.195
152.615
154.162
155.828
157.602
159.475
161.432
163.458
165.534
167.64
169.753
171.849
173.904
175.895
177.803
179.613
181.319
182.92
184.414
185.793
186.957
188.004
144.853
144.991
145.315
145.817
146.481
147.294
148.252
149.347
150.575
151.928
153.398
154.978
156.656
158.422
160.263
162.162
164.103
166.067
168.035
169.987
171.904
173.772
175.579
177.321
179
180.619
182.174
183.646
184.896
186.046
144.427
144.561
144.874
145.357
145.992
146.768
147.679
148.719
149.883
151.162
152.548
154.032
155.604
157.253
158.964
160.722
162.512
164.315
166.114
167.893
169.637
171.335
172.983
174.583
176.145
177.68
179.189
180.659
181.931
183.169
143.961
144.089
144.389
144.85
145.452
146.187
147.048
148.029
149.122
150.321
151.616
152.997
154.454
155.974
157.544
159.148
160.769
162.392
163.998
165.571
167.1
168.574
169.992
171.36
172.693
174.012
175.333
176.671
177.871
179.176
143.456
143.577
143.862
144.298
144.866
145.556
146.363
147.28
148.299
149.412
150.609
151.88
153.214
154.596
156.014
157.45
158.887
160.308
161.695
163.03
164.298
165.488
166.595
167.623
168.588
169.517
170.448
171.447
172.409
173.728
142.913
143.028
143.296
143.704
144.235
144.879
145.629
146.478
147.418
148.44
149.534
150.689
151.892
153.129
154.384
155.64
156.879
158.08
159.222
160.284
161.246
162.088
162.797
163.363
163.789
164.1
164.344
164.653
165.035
166.209
142.336
142.443
142.693
143.072
143.564
144.158
144.848
145.626
146.484
147.412
148.398
149.431
150.498
151.582
152.667
153.734
154.761
155.725
156.6
157.359
157.972
158.407
158.629
158.604
158.302
157.705
156.832
155.841
154.895
155.401
141.727
141.826
142.056
142.405
142.856
143.399
144.027
144.731
145.504
146.334
147.209
148.117
149.043
149.969
150.878
151.747
152.552
153.266
153.857
154.289
154.519
154.496
154.158
153.426
152.204
150.376
147.815
144.517
140.574
138.543
141.088
141.178
141.388
141.705
142.114
142.604
143.168
143.798
144.483
145.213
145.974
146.754
147.536
148.301
149.029
149.695
150.273
150.729
151.025
151.116
150.942
150.432
149.487
147.973
145.694
142.364
137.524
130.514
120.063
107.86
0.717254
0.697244
0.628499
0.533936
0.436742
0.348839
0.274601
0.214776
0.168359
0.133313
0.107889
0.0897452
0.0766855
0.0670432
0.0596584
0.0537117
0.0486536
0.0441197
0.0398662
0.0357099
0.0314511
0.0269722
0.0222709
0.0173628
0.0125208
0.00814465
0.0045769
0.00203842
0.000468495
-0.00047861
0.669518
0.647073
0.582527
0.495461
0.406031
0.324768
0.255818
0.200138
0.157107
0.125415
0.102632
0.0862484
0.0744372
0.0656725
0.0588875
0.0533302
0.0485105
0.0441093
0.0399248
0.0358101
0.0315414
0.0270074
0.022308
0.0173113
0.0123441
0.00787957
0.0043006
0.00183547
0.000407356
-9.55254e-05
0.616344
0.589637
0.527722
0.447677
0.36661
0.293066
0.230697
0.180515
0.142012
0.113726
0.093599
0.0797672
0.0701195
0.0630135
0.0574483
0.0527848
0.0485922
0.0446028
0.0406903
0.0368131
0.0326117
0.0280043
0.022848
0.017448
0.0120851
0.00724775
0.00350571
0.00119655
0.000130725
8.47555e-05
0.56459
0.533468
0.473276
0.39918
0.325877
0.25975
0.203887
0.159239
0.125403
0.101112
0.0844105
0.0729512
0.0650427
0.059534
0.0551993
0.0514483
0.0478871
0.0443094
0.0406711
0.0368845
0.0327182
0.0280906
0.0228967
0.0173094
0.0116644
0.0066056
0.00273824
0.000369155
-0.000624058
-0.000585836
0.527692
0.492311
0.433589
0.363682
0.295999
0.235125
0.183848
0.143079
0.112556
0.0912287
0.0772245
0.0679971
0.0614081
0.0564467
0.05277
0.0495899
0.0464794
0.0432382
0.0398091
0.0360663
0.0321106
0.0276239
0.0225043
0.0168778
0.011115
0.00604136
0.00250615
0.00049739
-0.000506483
-0.000785916
0.517925
0.47731
0.419454
0.350849
0.285194
0.225986
0.176015
0.136224
0.106592
0.0862761
0.0730221
0.0636972
0.0578444
0.0540107
0.0506266
0.0477043
0.0448733
0.0419679
0.0390363
0.0358793
0.032254
0.0278565
0.0226025
0.0166473
0.0104751
0.00500164
0.0013715
-0.000439161
-0.00121578
-0.00102186
0.5461
0.497793
0.438257
0.366443
0.297463
0.235186
0.182485
0.140367
0.108967
0.0879299
0.0753937
0.0665384
0.0584997
0.0528335
0.0490026
0.0458237
0.0427918
0.0398368
0.0369978
0.0341011
0.0307867
0.0266892
0.0216896
0.0159638
0.0100487
0.0049145
0.00136924
-0.000699381
-0.00181758
-0.00123434
0.617021
0.559401
0.490524
0.409451
0.331341
0.261559
0.202969
0.156295
0.12117
0.0960306
0.0783297
0.0666012
0.058778
0.0528561
0.048325
0.0445648
0.0411906
0.0381131
0.0352864
0.0324502
0.0291654
0.0250563
0.020053
0.0144363
0.00881709
0.00405162
0.000675815
-0.00159581
-0.00286853
-0.00151108
0.73009
0.653776
0.566333
0.469153
0.376994
0.296112
0.229279
0.176294
0.135357
0.105132
0.0841877
0.069946
0.0601099
0.0530217
0.0475853
0.0430699
0.0391633
0.035828
0.0329586
0.0301406
0.0267729
0.0224329
0.0171796
0.0115616
0.00638322
0.00232284
-0.000551564
-0.00275607
-0.00392027
-0.00178438
0.866878
0.759249
0.643111
0.525421
0.418805
0.326495
0.250131
0.190014
0.144716
0.111551
0.0879627
0.0716676
0.0604672
0.0525037
0.0463207
0.0410571
0.0365438
0.0329399
0.0301321
0.0274408
0.0239275
0.0190345
0.0130553
0.00705927
0.00226423
-0.000792939
-0.00266821
-0.0042804
-0.00494038
-0.0020402
0.993978
0.847246
0.702937
0.56083
0.437859
0.337568
0.257633
0.195236
0.148085
0.113356
0.0882524
0.0706948
0.0588472
0.0506494
0.0441036
0.0381167
0.0328464
0.0289699
0.0265016
0.0243049
0.0207649
0.0149969
0.00764808
0.000690235
-0.00386351
-0.00553129
-0.00574213
-0.00612531
-0.00589743
-0.00227321
1.09746
0.897077
0.717878
0.559111
0.428335
0.325371
0.2458
0.185268
0.140411
0.107379
0.0828839
0.065464
0.0542249
0.0470069
0.0408465
0.0341611
0.0277784
0.0235292
0.0218536
0.0208408
0.0176008
0.0105705
0.000904581
-0.00793838
-0.0125021
-0.012186
-0.00976443
-0.0081746
-0.00675983
-0.00247801
1.11701
0.848357
0.643785
0.484108
0.363733
0.274792
0.20721
0.155866
0.119063
0.0922436
0.0708904
0.0548383
0.0456287
0.0412639
0.0367447
0.0292938
0.0209863
0.016021
0.0158725
0.0172929
0.0150371
0.00626095
-0.00714507
-0.0193401
-0.0243599
-0.0211374
-0.0146268
-0.0101927
-0.00748748
-0.00265067
0.8872
0.547118
0.399522
0.30367
0.22708
0.178201
0.139901
0.106036
0.0834771
0.0684364
0.052622
0.0379851
0.0320345
0.033557
0.0329405
0.0244213
0.0123478
0.00566085
0.00811588
0.0141306
0.0141143
0.00293628
-0.0163681
-0.0342338
-0.0405006
-0.0329421
-0.0200601
-0.0117016
-0.0079995
-0.00278855
0.208442
-0.197566
-0.116697
-0.00164021
0.00836036
0.0428037
0.0564379
0.038088
0.030289
0.0358747
0.0299305
0.0150711
0.0127243
0.0246584
0.0317041
0.0209001
0.00100693
-0.00974722
-0.00291243
0.0116674
0.016279
0.00187462
-0.0265136
-0.0536327
-0.0625434
-0.0484798
-0.0255416
-0.0117723
-0.0081124
-0.00289002
140.409
140.49
140.678
140.963
141.327
141.763
142.26
142.812
143.407
144.034
144.679
145.327
145.96
146.56
147.102
147.561
147.905
148.096
148.09
147.83
147.243
146.234
144.67
142.356
138.994
134.089
126.721
114.977
92.8372
33.1299
139.682
139.753
139.919
140.169
140.488
140.866
141.295
141.765
142.267
142.787
143.311
143.824
144.305
144.735
145.088
145.335
145.441
145.364
145.053
144.443
143.45
141.959
139.813
136.78
132.502
126.395
117.426
103.864
84.3407
55.8739
138.912
138.973
139.116
139.33
139.601
139.921
140.279
140.667
141.073
141.484
141.886
142.26
142.588
142.847
143.009
143.045
142.915
142.575
141.969
141.026
139.655
137.735
135.101
131.524
126.678
120.107
111.221
99.3785
85.1264
68.4654
138.102
138.153
138.271
138.449
138.671
138.93
139.217
139.521
139.83
140.132
140.41
140.646
140.821
140.91
140.885
140.713
140.355
139.764
138.882
137.635
135.934
133.659
130.66
126.74
121.651
115.1
106.789
96.3844
83.8215
68.6585
137.252
137.293
137.387
137.527
137.7
137.898
138.112
138.332
138.544
138.736
138.891
138.991
139.015
138.938
138.731
138.361
137.788
136.965
135.832
134.322
132.346
129.8
126.554
122.451
117.31
110.933
103.117
93.6186
82.2703
69.2776
136.365
136.395
136.465
136.567
136.691
136.828
136.97
137.105
137.221
137.305
137.339
137.306
137.183
136.946
136.567
136.011
135.24
134.207
132.857
131.126
128.936
126.196
122.802
118.633
113.559
107.445
100.169
91.6303
81.8187
71.1466
135.444
135.464
135.509
135.573
135.648
135.724
135.794
135.846
135.868
135.845
135.762
135.6
135.338
134.95
134.409
133.683
132.733
131.517
129.984
128.077
125.729
122.866
119.406
115.261
110.345
104.578
97.9052
90.3154
81.8516
72.8495
134.492
134.501
134.522
134.549
134.575
134.591
134.59
134.561
134.491
134.366
134.17
133.886
133.491
132.963
132.275
131.395
130.289
128.918
127.236
125.196
122.742
119.815
116.356
112.303
107.605
102.221
96.1363
89.3717
81.9766
74.2235
133.512
133.512
133.508
133.498
133.476
133.435
133.365
133.257
133.098
132.875
132.573
132.173
131.657
131
130.178
129.164
127.924
126.426
124.63
122.496
119.98
117.039
113.63
109.715
105.265
100.265
94.721
88.667
82.1566
75.4176
132.509
132.499
132.472
132.426
132.358
132.26
132.124
131.94
131.698
131.382
130.98
130.474
129.845
129.073
128.134
127.003
125.653
124.054
122.174
119.981
117.442
114.525
111.202
107.452
103.261
98.6302
93.5776
88.1424
82.3776
76.4685
131.487
131.467
131.417
131.337
131.225
131.073
130.874
130.619
130.297
129.895
129.401
128.797
128.068
127.193
126.153
124.925
123.486
121.812
119.876
117.653
115.12
112.256
109.043
105.471
101.538
97.2549
92.6445
87.7462
82.608
77.3784
130.452
130.422
130.351
130.238
130.082
129.879
129.621
129.3
128.904
128.423
127.844
127.153
126.334
125.371
124.245
122.939
121.431
119.703
117.734
115.507
113.004
110.212
107.123
103.734
100.051
96.089
91.8723
87.4376
82.8269
78.1595
129.407
129.369
129.277
129.133
128.938
128.687
128.373
127.99
127.526
126.973
126.318
125.549
124.653
123.615
122.419
121.05
119.492
117.73
115.748
113.535
111.079
108.373
105.415
102.208
98.7615
95.0917
91.2235
87.1893
83.0251
78.8271
128.36
128.313
128.202
128.029
127.797
127.501
127.137
126.696
126.171
125.553
124.831
123.995
123.033
121.932
120.68
119.264
117.672
115.892
113.914
111.729
109.333
106.721
103.896
100.864
97.6367
94.2312
90.6704
86.9825
83.198
79.3948
127.316
127.261
127.133
126.933
126.666
126.33
125.919
125.427
124.847
124.171
123.391
122.497
121.479
120.327
119.032
117.582
115.97
114.186
112.225
110.08
107.75
105.236
102.542
99.6761
96.6507
93.4825
90.1922
86.8041
83.3438
79.8747
126.282
126.22
126.075
125.851
125.552
125.179
124.726
124.188
123.56
122.834
122.003
121.061
119.998
118.806
117.479
116.008
114.387
112.61
110.674
108.577
106.318
103.902
101.334
98.6234
95.7821
92.826
89.7733
86.6451
83.4626
80.2777
125.264
125.196
125.036
124.789
124.463
124.056
123.566
122.988
122.317
121.548
120.675
119.692
118.593
117.372
116.022
114.539
112.919
111.158
109.255
107.209
105.024
102.704
100.256
97.6881
95.0136
92.2462
89.4022
86.4994
83.5558
80.6138
124.269
124.195
124.022
123.755
123.404
122.968
122.445
121.831
121.124
120.319
119.411
118.396
117.27
116.027
114.664
113.177
111.565
109.826
107.96
105.969
103.857
101.629
99.2918
96.8556
94.3311
91.7313
89.0703
86.3633
83.6254
80.8918
123.305
123.226
123.041
122.757
122.383
121.921
121.37
120.726
119.988
119.153
118.217
117.177
116.03
114.773
113.403
111.92
110.322
108.609
106.783
104.847
102.806
100.664
98.4308
96.1138
93.7238
91.2722
88.7714
86.2344
83.6741
81.1195
122.378
122.295
122.099
121.8
121.406
120.922
120.347
119.678
118.915
118.055
117.097
116.038
114.877
113.612
112.242
110.766
109.186
107.502
105.717
103.836
101.862
99.8015
97.6625
95.4532
93.1829
90.8619
88.5011
86.1117
83.7046
81.304
121.497
121.41
121.205
120.892
120.482
119.98
119.384
118.694
117.91
117.031
116.056
114.983
113.813
112.545
111.178
109.714
108.155
106.502
104.758
102.928
101.017
99.032
96.9788
94.8658
92.7016
90.4954
88.2566
85.995
83.72
81.4518
120.67
120.579
120.366
120.042
119.618
119.099
118.486
117.779
116.979
116.085
115.097
114.015
112.841
111.573
110.214
108.764
107.226
105.604
103.9
102.119
100.267
98.3494
96.3733
94.3459
92.2751
90.169
88.0361
85.8849
83.7236
81.5689
119.903
119.809
119.59
119.256
118.82
118.288
117.661
116.94
116.127
115.221
114.225
113.138
111.962
110.698
109.347
107.913
106.398
104.805
103.139
101.404
99.6049
97.7484
95.8407
93.8886
91.8993
89.8801
87.8385
85.7821
83.718
81.6602
119.206
119.11
118.884
118.541
118.095
117.552
116.914
116.183
115.36
114.446
113.444
112.354
111.179
109.921
108.581
107.163
105.67
104.105
102.473
100.779
99.0283
97.2258
95.3781
93.4915
91.5726
89.628
87.6645
85.6888
83.7073
81.7317
118.587
118.488
118.257
117.907
117.452
116.9
116.253
115.513
114.683
113.763
112.758
111.668
110.495
109.243
107.914
106.512
105.039
103.5
101.9
100.242
98.5332
96.7777
94.9817
93.1511
91.2921
89.4106
87.5129
85.605
83.6926
81.7855
118.055
117.954
117.717
117.359
116.897
116.338
115.685
114.939
114.103
113.18
112.173
111.083
109.915
108.67
107.351
105.963
104.509
102.994
101.42
99.7945
98.1211
96.4054
94.653
92.8694
91.0603
89.2313
87.3882
85.5363
83.6811
81.8308
117.621
117.515
117.272
116.906
116.437
115.872
115.213
114.462
113.622
112.697
111.69
110.602
109.437
108.199
106.891
105.515
104.077
102.581
101.031
99.4311
97.7871
96.1039
94.3868
92.641
90.872
89.085
87.2852
85.4777
83.6674
81.8611
117.295
117.184
116.931
116.559
116.085
115.515
114.852
114.098
113.256
112.329
111.322
110.236
109.075
107.843
106.542
105.178
103.753
102.272
100.74
99.1612
97.5405
95.8828
94.1933
92.4771
90.7392
88.9847
87.2186
85.4456
83.6705
81.8994
117.093
116.958
116.688
116.31
115.834
115.262
114.596
113.84
112.997
112.07
111.064
109.98
108.822
107.595
106.301
104.944
103.528
102.059
100.539
98.9747
97.3697
95.7292
94.0582
92.3615
90.6442
88.911
87.1668
85.416
83.6632
81.9132
117.074
116.876
116.577
116.193
115.714
115.139
114.47
113.712
112.868
111.942
110.936
109.854
108.699
107.475
106.185
104.834
103.425
101.963
100.453
98.8975
97.3029
95.6735
94.0143
92.33
90.6256
88.9056
87.1748
85.4377
83.6984
81.9614
-50.5481
-30.2918
-11.1662
35.4932
28.0274
15.95
50.9391
38.8353
27.6034
52.3708
41.9395
33.886
56.7137
48.4184
41.6536
61.1036
54.189
48.2923
64.3809
58.4953
53.4426
66.9814
61.9534
57.6416
69.174
64.8394
61.1286
71.0252
67.2447
64.0163
72.582
69.2505
66.4126
73.894
70.9307
68.4117
75.0017
72.3434
70.0869
75.9373
73.5339
71.4959
76.7274
74.5389
72.6844
77.3939
75.3881
73.6888
77.955
76.1053
74.5382
78.4261
76.7104
75.2562
78.8199
77.2197
75.8625
79.1477
77.6472
76.3732
79.4189
78.0044
76.8018
79.6422
78.3017
77.1604
79.8244
78.5472
77.4583
79.9733
78.7502
77.7054
80.0917
78.9138
77.9062
80.1911
79.0506
78.0731
80.2631
79.1524
78.1996
80.336
79.2482
78.3126
80.3702
79.2986
78.3771
80.4393
79.3819
78.4668
-2.93519
-2.84095
-1.37959
-0.239139
-0.203531
-0.105998
-0.0442783
-0.0694855
-0.0526326
0.00896249
0.0211639
-0.00853091
-0.0167742
0.0106562
0.0347626
0.0207888
-0.0135869
-0.0324565
-0.0180573
0.012208
0.0255108
0.00606639
-0.0368303
-0.0792017
-0.0934685
-0.0696147
-0.0302606
-0.00859531
-0.00732798
-0.00295732
2.17389
-0.728716
0.862324
0.337958
-1.01156
-0.766071
-0.124634
-0.0885408
-0.0692578
0.03198
0.0142154
-0.0754958
-0.0961984
-0.0149943
0.063262
0.0411401
-0.0262747
-0.0670348
-0.0444393
0.0136069
0.0434533
0.0161204
-0.0491846
-0.11539
-0.13903
-0.0998816
-0.0325764
0.00164671
-0.00417824
-0.00300916
13.331
4.96615
2.15788
-0.291375
-0.607959
0.867731
1.04132
-0.303762
-0.671817
-0.311649
0.03428
-0.0649636
-0.104154
0.0466699
0.141456
0.0645009
-0.0718113
-0.152024
-0.10518
0.0207835
0.0901029
0.0475593
-0.053071
-0.156973
-0.19946
-0.141451
-0.029359
0.0259193
0.00484511
-0.0031292
23.1174
13.2285
7.34579
3.57574
1.85638
1.32438
0.106734
-0.567749
-0.180269
0.990085
0.869519
-0.215796
-0.594297
-0.374338
0.121511
0.165234
-0.0686496
-0.210123
-0.126117
0.0915342
0.174561
0.0859432
-0.0722094
-0.234797
-0.31096
-0.226701
-0.0200177
0.0747376
0.0260205
-0.00359028
32.2973
22.5213
15.1968
9.90768
6.27907
3.81178
1.94437
0.952325
0.692495
0.678636
0.162906
-0.430749
-0.491058
0.47126
0.996164
0.379159
-0.211051
-0.538074
-0.484047
-0.034781
0.262515
0.16399
-0.0647052
-0.294726
-0.405532
-0.250515
0.0192867
0.163387
0.0669677
-0.00514195
40.2838
31.3488
23.4563
17.0234
12.1002
8.46118
5.79498
3.91851
2.64974
1.73953
0.97142
0.381862
0.174069
0.465327
0.469261
0.209816
-0.252841
-0.551216
-0.290204
0.514181
0.696545
0.232021
-0.112243
-0.434057
-0.664001
-0.591988
-0.01471
0.291473
0.131476
-0.0102162
46.8023
38.9892
31.207
24.3134
18.6894
14.235
10.7172
7.9669
5.87401
4.30204
3.08348
2.12979
1.50073
1.18981
0.925781
0.583823
0.113376
-0.189157
-0.0751107
0.287775
0.421274
0.239917
-0.0844518
-0.460381
-0.712982
-0.427095
0.360788
0.559755
0.208898
-0.0232138
52.1112
45.3738
38.1104
31.2771
25.3943
20.4516
16.3147
12.8956
10.1293
7.91768
6.13272
4.69416
3.60074
2.82328
2.21369
1.61925
1.03213
0.623273
0.512128
0.593205
0.607941
0.400895
0.0373068
-0.332178
-0.526371
-0.311828
0.16164
0.399035
0.305504
-0.0639178
56.4419
50.6205
44.0316
37.555
31.7365
26.6262
22.1595
18.3011
15.0218
12.2655
9.9567
8.03807
6.48058
5.24126
4.2204
3.31922
2.52873
1.92326
1.55532
1.35945
1.16228
0.837543
0.427046
0.0561008
-0.138431
-0.0446126
0.236752
0.393195
0.262325
-0.302741
59.9762
54.9052
48.9991
43.0117
37.4572
32.4133
27.8511
23.7662
20.1601
17.0142
14.2918
11.9549
9.97119
8.30064
6.88065
5.65124
4.5927
3.72655
3.06775
2.56881
2.12116
1.64266
1.14894
0.719071
0.443179
0.376953
0.446665
0.434295
0.173979
-0.517657
62.8791
58.4172
53.1346
47.6646
42.4678
37.6278
33.1318
28.9912
25.2271
21.8452
18.8335
16.1719
13.8376
11.8026
10.0286
8.47664
7.12463
5.97048
5.01025
4.20882
3.50013
2.83003
2.19674
1.64326
1.22305
0.959867
0.794362
0.577545
0.172403
-0.592818
65.2835
61.3183
56.5785
51.5984
46.7837
42.213
37.8795
33.8005
30.0056
26.5136
23.3281
20.4435
17.8489
15.5281
13.4586
11.6158
9.98073
8.54346
7.29281
6.20259
5.23108
4.34133
3.52414
2.7988
2.19201
1.70861
1.30134
0.868765
0.308392
-0.522213
67.2893
63.7329
59.4568
54.9173
50.4712
46.1893
42.0654
38.1167
34.3751
30.8652
27.5996
24.5824
21.812
19.2819
16.9808
14.8942
13.0088
11.3139
9.79733
8.43967
7.21348
6.09314
5.06724
4.14059
3.3223
2.607
1.95771
1.30516
0.577891
-0.331384
68.9719
65.7556
61.8736
57.7209
53.6136
49.6139
45.7145
41.9301
38.2912
34.824
31.5456
28.4658
25.5893
22.9167
20.4441
18.1649
16.0709
14.1537
12.4033
10.8056
9.34212
7.99475
6.75216
5.61129
4.57112
3.6216
2.734
1.8611
0.955636
-0.0562488
70.389
67.4583
63.9116
60.0954
56.2918
52.5555
48.8774
45.2689
41.7575
38.3691
35.1221
32.0292
29.0992
26.337
23.7442
21.3193
19.0585
16.9568
15.007
13.1994
11.5215
9.96029
8.5055
7.15057
5.88947
4.71062
3.59173
2.50042
1.40616
0.263251
71.5861
68.8965
65.6362
62.1117
58.577
55.0804
51.6112
48.1773
44.803
41.5122
38.3234
35.2504
32.3039
29.4919
26.8191
24.2877
21.8975
19.6464
17.5301
15.5424
13.6749
11.9183
10.2637
8.70372
7.23024
5.83182
4.4909
3.18472
1.89297
0.591606
72.5987
70.1138
67.0987
63.827
60.529
57.2478
53.971
50.7036
47.4665
44.2813
41.1654
38.1329
35.1952
32.3618
29.6394
27.0328
24.5442
22.1739
19.9203
17.7799
15.7472
13.8155
11.9778
10.2265
8.55357
6.94814
5.39596
3.88006
2.38548
0.903213
73.4556
71.145
68.3405
65.2879
62.1975
59.1079
56.0058
52.8935
49.7884
46.7099
43.674
40.694
37.7815
34.9466
32.1972
29.5394
26.9773
24.5131
22.1472
19.8781
17.7027
15.6162
13.6131
11.6867
9.8292
8.03071
6.27908
4.56044
2.8619
1.18363
74.1802
72.0182
69.3948
66.5321
63.6232
60.7033
57.7582
54.7878
51.8067
48.8319
45.8778
42.9567
40.0797
37.2568
34.4966
31.806
29.1902
26.6528
24.1955
21.8187
19.5207
17.2985
15.1478
13.0628
11.0362
9.05918
7.12067
5.20822
3.309
1.42785
74.7919
72.7568
70.289
67.5908
64.8403
62.0697
59.2645
56.4225
53.5559
50.6792
47.8054
44.9454
42.1097
39.3079
36.5485
33.8389
31.1849
28.591
26.06
23.5933
21.1907
18.8504
16.5689
14.3414
12.1614
10.0204
7.90827
5.81278
3.7203
1.63718
75.3068
73.3799
71.0459
68.4898
65.8769
63.2371
60.5556
57.8285
55.0659
52.2803
49.4829
46.6836
43.8918
41.1166
38.3661
35.6477
32.9677
30.3308
27.7408
25.1997
22.7083
20.2656
17.8692
15.5148
13.1965
10.9064
8.63442
6.36836
4.09347
1.81578
75.7388
73.9039
71.6845
69.2508
66.757
64.2311
61.6579
59.0328
56.3634
53.6608
50.9346
48.1935
45.4459
42.7
39.9637
37.244
34.5471
31.8782
29.2413
26.6391
24.0728
21.5423
19.0456
16.5792
14.1374
11.7128
9.29537
6.87259
4.42877
1.9686
76.099
74.342
72.2203
69.8914
67.5
65.0723
62.5935
60.0576
57.4708
54.8426
52.1813
49.4944
46.7894
44.0737
41.3545
38.6385
35.9318
33.2395
30.5658
27.9137
25.2849
22.6795
20.0962
17.5318
14.9811
12.4366
9.88846
7.32386
4.72642
2.09903
76.3983
74.7068
72.6678
70.4278
68.1236
65.7799
63.3821
60.9234
58.4087
55.846
53.2426
50.605
47.9397
45.2533
42.5525
39.8434
37.1319
34.423
31.7207
29.0284
26.3478
23.6794
21.0222
18.3732
15.7275
13.0777
10.4139
7.72319
4.9886
2.21084
76.643
75.0059
73.0359
70.8704
68.6393
66.3664
64.0371
61.644
59.191
56.6849
54.132
51.5379
48.9083
46.2492
43.5665
40.866
38.1531
35.4326
32.7085
29.984
27.2611
24.5404
21.821
19.1002
16.3731
13.6325
10.8684
8.06766
5.21327
2.30359
76.8448
75.2518
73.3386
71.2344
69.0635
66.8489
64.5762
62.2377
59.8362
57.3777
54.8676
52.3108
49.7124
47.0775
44.4116
41.7201
39.0079
36.2796
33.539
30.7894
28.0326
25.2693
22.4987
19.7182
16.923
14.1059
11.2568
8.36263
5.40603
2.38243
77.0005
75.4425
73.574
71.5185
69.3953
67.2272
64.9998
62.7049
60.3448
57.9247
55.4494
52.9231
50.3504
47.7359
45.0845
42.4012
39.6907
36.9573
34.2046
31.4356
28.6524
25.8555
23.0441
20.2157
17.3655
14.4863
11.568
8.59726
5.557
2.44034
77.1325
75.6001
73.7657
71.747
69.6601
67.527
65.3338
63.0722
60.7436
58.3529
55.9042
53.4015
50.8487
48.2501
45.6103
42.9339
40.2252
37.4883
34.7269
31.9437
29.1406
26.3183
23.4759
20.6109
17.7184
14.7912
11.8191
8.78863
5.68242
2.48985
77.2136
75.6974
73.8853
71.8917
69.8292
67.7195
65.5493
63.3099
61.0025
58.6315
56.2007
53.7139
51.1746
48.5869
45.9551
43.2834
40.5762
37.8374
35.0703
32.2777
29.4614
26.6221
23.759
20.8692
17.9481
14.9882
11.9791
8.90706
5.7547
2.50976
77.3026
75.7875
73.9877
72.0091
69.9602
67.8632
65.7051
63.4774
61.181
58.82
56.3983
53.9192
51.3864
48.8036
46.175
43.505
40.7975
38.0564
35.2852
32.4865
29.6621
26.8127
23.9374
21.0335
18.0961
15.1178
12.0879
8.99152
5.80892
2.51618
)
;

boundaryField
{
    inlet
    {
        type            zeroGradient;
    }
    outlet
    {
        type            fixedValue;
        value           uniform 0;
    }
    flap
    {
        type            zeroGradient;
    }
    upperWall
    {
        type            zeroGradient;
    }
    lowerWall
    {
        type            zeroGradient;
    }
    frontAndBack
    {
        type            empty;
    }
}


// ************************************************************************* //
