/*--------------------------------*- C++ -*----------------------------------*\
  =========                 |
  \\      /  F ield         | OpenFOAM: The Open Source CFD Toolbox
   \\    /   O peration     | Website:  https://openfoam.org
    \\  /    A nd           | Version:  dev
     \\/     M anipulation  |
\*---------------------------------------------------------------------------*/
FoamFile
{
    version     2.0;
    format      ascii;
    class       surfaceScalarField;
    location    "7.4";
    object      phi;
}
// * * * * * * * * * * * * * * * * * * * * * * * * * * * * * * * * * * * * * //

dimensions      [0 3 -1 0 0 0 0];

internalField   nonuniform List<scalar> 
5457
(
0.198418
0.00158237
0.19648
0.00193734
0.194192
0.00228804
0.191509
0.00268353
0.188428
0.00308113
0.184951
0.0034767
0.181072
0.0038785
0.176778
0.00429394
0.17205
0.00472815
0.166865
0.00518515
0.161197
0.00566844
0.155016
0.00618098
0.148291
0.00672492
0.14099
0.00730131
0.13308
0.00790948
0.124534
0.00854644
0.115328
0.00920589
0.105451
0.00987719
0.0949064
0.0105441
0.0837229
0.0111835
0.0719582
0.0117647
0.0597098
0.0122484
0.0471211
0.0125887
0.0343809
0.0127402
0.0216858
0.0126951
0.00903563
0.0126502
-0.00291746
0.0119531
-0.00847267
0.0055552
-0.00804322
-0.00042945
-0.00804322
0.199928
0.00165419
0.199176
0.00268975
0.197965
0.00349894
0.196332
0.00431666
0.194272
0.00514113
0.191782
0.0059667
0.188855
0.00680541
0.185478
0.00767073
0.181633
0.00857299
0.177298
0.00952049
0.172446
0.0105205
0.167047
0.0115793
0.161071
0.0127016
0.154482
0.0138902
0.147247
0.0151445
0.139334
0.0164596
0.130716
0.0178238
0.121376
0.0192174
0.111311
0.020609
0.100541
0.0219535
0.0891162
0.0231892
0.0771285
0.024236
0.0647225
0.0249948
0.052115
0.0253478
0.0396547
0.0251554
0.0281047
0.0242002
0.0185941
0.0214637
0.00879623
0.0153531
0.00118301
0.00718377
-0.0068602
0.199781
0.00187362
0.199087
0.00338357
0.197946
0.00463983
0.196409
0.00585322
0.194483
0.0070672
0.192164
0.00828569
0.189447
0.00952278
0.186321
0.0107962
0.182774
0.0121208
0.178785
0.0135093
0.174333
0.0149726
0.169392
0.0165203
0.163933
0.0181602
0.157926
0.0198974
0.151338
0.0217328
0.144136
0.0236613
0.13629
0.0256693
0.127777
0.0277313
0.11858
0.0298059
0.108702
0.0318314
0.0981697
0.0337211
0.0870473
0.0353584
0.0754505
0.0365916
0.0635733
0.0372249
0.0517315
0.0369973
0.0403963
0.0355354
0.0297381
0.0321219
0.0191654
0.0259258
0.00959722
0.0167519
0.00273702
0.199703
0.00217054
0.199008
0.00407885
0.197887
0.00576032
0.196376
0.00736409
0.194488
0.00895527
0.192222
0.0105516
0.189575
0.0121704
0.186539
0.0138321
0.183105
0.0155552
0.179258
0.0173557
0.174983
0.0192475
0.170261
0.0212429
0.165069
0.0233519
0.159385
0.0255816
0.153183
0.0279345
0.146438
0.0304065
0.139123
0.0329838
0.131216
0.0356387
0.122697
0.0383252
0.113556
0.0409724
0.103799
0.0434781
0.093456
0.0457011
0.0825947
0.0474529
0.0713318
0.0484878
0.0598399
0.0484892
0.0483159
0.0470593
0.0368101
0.0436277
0.0251872
0.0375486
0.0133352
0.0286039
0.0160722
0.199667
0.00250311
0.198964
0.00478209
0.197863
0.0068616
0.196381
0.00884572
0.194533
0.010804
0.192318
0.0127662
0.189734
0.0147542
0.186776
0.0167906
0.183434
0.0188969
0.179698
0.0210914
0.175556
0.0233904
0.17099
0.0258079
0.165987
0.0283556
0.160526
0.0310418
0.154591
0.0338701
0.14816
0.0368371
0.141214
0.0399296
0.133733
0.0431203
0.125696
0.0463621
0.117086
0.0495819
0.107893
0.0526718
0.0981137
0.0554802
0.0877636
0.057803
0.0768775
0.0593739
0.0655075
0.0598592
0.0537068
0.05886
0.0414529
0.0558816
0.0285869
0.0504146
0.0148519
0.0423389
0.0309241
0.199653
0.0028503
0.198949
0.00548612
0.197871
0.0079395
0.196427
0.0102899
0.194627
0.0126039
0.192473
0.0149196
0.189964
0.0172637
0.187093
0.0196614
0.183854
0.0221361
0.180237
0.0247086
0.17623
0.0273969
0.171821
0.0302165
0.166997
0.0331804
0.161741
0.0362977
0.156038
0.039573
0.149871
0.0430037
0.143223
0.0465779
0.136073
0.0502698
0.128401
0.0540345
0.120181
0.0578017
0.111387
0.0614663
0.101988
0.0648793
0.0919533
0.0678373
0.0812524
0.0700748
0.0698525
0.0712591
0.0577152
0.0709973
0.0447592
0.0688376
0.030848
0.0643258
0.0158725
0.0573144
0.0467967
0.19965
0.00320023
0.198954
0.00618208
0.197905
0.00898909
0.196505
0.0116895
0.194763
0.0143461
0.192681
0.0170016
0.190257
0.0196873
0.187488
0.0224309
0.184366
0.0252581
0.180883
0.0281915
0.177029
0.0312508
0.172792
0.0344531
0.16816
0.0378125
0.163119
0.0413393
0.157652
0.0450392
0.151745
0.0489113
0.145377
0.0529456
0.138528
0.0571194
0.131169
0.061393
0.123268
0.0657028
0.114781
0.0699533
0.105653
0.0740073
0.0958149
0.0776754
0.0851841
0.0807056
0.0736661
0.0827772
0.0611593
0.0835041
0.0475533
0.0824436
0.0327572
0.0791219
0.0167821
0.0732895
0.0635788
0.199655
0.00354557
0.198975
0.00686217
0.197959
0.0100048
0.19661
0.0130382
0.194934
0.0160221
0.192934
0.0190021
0.190608
0.0220133
0.187953
0.0250861
0.184963
0.028248
0.181631
0.0315235
0.177947
0.0349341
0.173902
0.0384984
0.169482
0.042232
0.164675
0.0461467
0.159464
0.0502501
0.153832
0.0545437
0.147756
0.0590209
0.141212
0.0636643
0.134163
0.0684415
0.126566
0.0732998
0.118361
0.0781587
0.109467
0.0829005
0.0997843
0.0873585
0.0891847
0.0913051
0.0775224
0.0944396
0.0646446
0.0963818
0.0504149
0.0966733
0.0347662
0.0947707
0.0177887
0.0902669
0.0813675
0.199664
0.00388138
0.199006
0.00751995
0.19803
0.010981
0.196739
0.0143296
0.195137
0.0176241
0.193227
0.0209118
0.191009
0.0242311
0.188481
0.0276146
0.185637
0.0310919
0.182471
0.0346891
0.178976
0.0384295
0.175141
0.0423333
0.170955
0.0464178
0.166405
0.0506971
0.161474
0.0551812
0.156142
0.0598751
0.150386
0.0647773
0.144173
0.0698774
0.137461
0.0751532
0.130194
0.0805666
0.122296
0.0860569
0.113665
0.0915321
0.104166
0.0968575
0.0936308
0.10184
0.0818612
0.106209
0.0686458
0.109597
0.0537986
0.11152
0.0372339
0.111335
0.0190819
0.108419
0.100449
0.199677
0.00420414
0.199047
0.00815016
0.198116
0.0119123
0.196888
0.0155578
0.195367
0.0191449
0.193556
0.0227224
0.191456
0.0263308
0.189066
0.0300053
0.186381
0.033777
0.183396
0.0376738
0.180105
0.0417206
0.176499
0.0459393
0.172567
0.0503494
0.168297
0.0549672
0.163672
0.0598061
0.158672
0.0648754
0.153269
0.07018
0.147428
0.0757184
0.1411
0.0814812
0.134219
0.0874477
0.126694
0.0935817
0.118403
0.0998236
0.10918
0.10608
0.0988156
0.112205
0.0870481
0.117977
0.0735852
0.12306
0.058144
0.126962
0.0405482
0.128931
0.0208992
0.128068
0.121349
0.199693
0.0045112
0.199095
0.00874851
0.198213
0.0127939
0.197053
0.0167174
0.19562
0.0205782
0.193916
0.0244261
0.191943
0.0283038
0.189701
0.0322481
0.187186
0.0362919
0.184395
0.0404647
0.181323
0.0447927
0.177962
0.0492998
0.174304
0.0540073
0.170337
0.0589344
0.166045
0.0640981
0.161408
0.0695128
0.156397
0.0751904
0.150976
0.0811397
0.145092
0.0873654
0.138672
0.0938673
0.131617
0.100637
0.123787
0.107654
0.114992
0.114874
0.104978
0.122219
0.0934135
0.129541
0.0798919
0.136582
0.0639617
0.142892
0.0452295
0.147663
0.0236084
0.149689
0.144957
0.199711
0.0048005
0.199148
0.0093115
0.19832
0.0136214
0.197234
0.0178036
0.195894
0.0219183
0.194304
0.0260164
0.192465
0.0301422
0.190379
0.0343341
0.188044
0.0386266
0.185459
0.0430501
0.182619
0.0476326
0.17952
0.0523994
0.176153
0.0573739
0.172509
0.0625779
0.168576
0.0680321
0.164332
0.0737561
0.159754
0.0797691
0.154803
0.0860903
0.149429
0.0927396
0.143559
0.0997377
0.137089
0.107106
0.129875
0.114868
0.121712
0.123038
0.112309
0.131621
0.101266
0.140584
0.0880373
0.149811
0.0719145
0.159015
0.0520783
0.1675
0.0278804
0.173887
0.172837
0.19973
0.00507041
0.199205
0.00983624
0.198435
0.0143914
0.197427
0.0188122
0.196185
0.0231603
0.194714
0.0274875
0.193016
0.0318395
0.191095
0.0362559
0.188949
0.0407723
0.186579
0.0454204
0.183982
0.0502291
0.181156
0.0552251
0.178097
0.0604337
0.174795
0.065879
0.171242
0.071585
0.167422
0.0775762
0.163313
0.0838784
0.158883
0.0905206
0.154086
0.0975367
0.148856
0.104967
0.143099
0.112864
0.136677
0.12129
0.129388
0.130327
0.120936
0.140074
0.110875
0.150645
0.0985328
0.162153
0.0828892
0.174658
0.0624234
0.187965
0.0351158
0.201194
0.207953
0.199751
0.00531969
0.199267
0.0103205
0.198557
0.0151008
0.19763
0.0197397
0.19649
0.0243
0.195143
0.0288347
0.193592
0.0333902
0.191841
0.0380073
0.189891
0.0427222
0.187744
0.0475675
0.1854
0.052573
0.182858
0.0577663
0.180118
0.0631741
0.177175
0.0688224
0.174022
0.0747377
0.17065
0.0809483
0.167043
0.0874856
0.163177
0.0943864
0.159018
0.101696
0.154515
0.109471
0.149592
0.117786
0.144139
0.126743
0.137988
0.136478
0.130878
0.147183
0.122397
0.159127
0.111847
0.172702
0.0980004
0.188505
0.0785174
0.207448
0.0486466
0.231065
0.2566
0.199772
0.00554737
0.19933
0.0107623
0.198684
0.0157472
0.197841
0.0205832
0.196806
0.0253344
0.195587
0.0300543
0.194187
0.0347902
0.192611
0.0395834
0.190862
0.0444708
0.188944
0.0494854
0.18686
0.0546573
0.184611
0.060015
0.1822
0.0655855
0.179626
0.0713963
0.176888
0.0774753
0.173983
0.0838533
0.170904
0.0905651
0.167637
0.0976525
0.164165
0.105168
0.160459
0.113177
0.156473
0.121772
0.152143
0.131073
0.147367
0.141254
0.141987
0.152563
0.13574
0.165374
0.128154
0.180288
0.118288
0.198371
0.103891
0.221846
0.0776529
0.257303
0.334253
0.00382124
-0.00382124
0.00745268
-0.00363143
0.0104265
-0.00297384
0.0127153
-0.00228879
0.0143927
-0.00167735
0.0155466
-0.00115393
0.0162615
-0.000714926
0.016617
-0.000355441
0.0166927
-7.57346e-05
0.0165485
0.000144225
0.0162562
0.000292286
0.0158716
0.000384568
0.0154377
0.000433926
0.0149891
0.000448549
0.0145524
0.000436773
0.0141458
0.000406538
0.0137815
0.000364336
0.0134657
0.000315826
0.0132003
0.00026537
0.0129837
0.000216548
0.012811
0.000172709
0.0126744
0.000136642
0.0125659
0.000108471
0.0124716
9.42705e-05
0.0123775
9.41136e-05
0.0122717
0.000105816
0.0121455
0.000126232
0.0119986
0.000146859
0.0118417
0.000156924
0.000129153
0.00353273
-0.00735397
0.00692406
-0.00702276
0.00977154
-0.00582132
0.0120567
-0.00457395
0.01385
-0.00347064
0.0152301
-0.002534
0.0162696
-0.00175449
0.0170328
-0.00111863
0.0175689
-0.000611802
0.0179287
-0.000215618
0.018146
7.50203e-05
0.0182508
0.000279801
0.0182877
0.000397017
0.0182907
0.000445555
0.0182849
0.000442546
0.018288
0.000403444
0.0183112
0.000341164
0.0183599
0.000267085
0.0184357
0.000189547
0.0185369
0.000115373
0.0186585
5.10991e-05
0.0187923
2.83592e-06
0.0189361
-3.53204e-05
0.0190796
-4.92324e-05
0.019213
-3.92566e-05
0.0193261
-7.31648e-06
0.0194112
4.10924e-05
0.0194702
8.79112e-05
0.0195125
0.000114579
0.00011349
0.00298893
-0.0103429
0.00577206
-0.00980589
0.00807793
-0.00812719
0.00992735
-0.00642337
0.0113898
-0.00493309
0.0125298
-0.00367403
0.0134056
-0.00263029
0.0140685
-0.00178151
0.0145651
-0.00110836
0.0149441
-0.0005946
0.0152442
-0.000225113
0.0154957
2.83198e-05
0.015692
0.00020073
0.0158573
0.000280191
0.0160032
0.000296651
0.016139
0.000267676
0.0162689
0.000211259
0.0163935
0.000142471
0.0165127
7.03693e-05
0.0166258
2.28428e-06
0.0167374
-6.05602e-05
0.0168579
-0.000117587
0.0169857
-0.000163165
0.0171211
-0.000184649
0.0172594
-0.000177516
0.0173957
-0.000143599
0.0175283
-9.15285e-05
0.0176575
-4.13129e-05
0.0177756
-3.50824e-06
4.29438e-05
0.00238944
-0.0127323
0.00445119
-0.0118676
0.00609181
-0.00976781
0.007396
-0.00772756
0.00843003
-0.00596712
0.00924119
-0.00448519
0.00987026
-0.00325936
0.0103507
-0.00226197
0.0107121
-0.00146972
0.0109854
-0.0008679
0.0112053
-0.00044501
0.0114032
-0.000169565
0.0115813
2.26274e-05
0.0117358
0.000125658
0.0118644
0.000168045
0.0119708
0.000161286
0.0120552
0.000126856
0.012117
8.07064e-05
0.0121598
2.75462e-05
0.0121887
-2.66581e-05
0.0122107
-8.24897e-05
0.0122267
-0.000133585
0.0122368
-0.00017331
0.012244
-0.000191859
0.012247
-0.000180484
0.0122424
-0.00013897
0.0122309
-8.00896e-05
0.0122111
-2.15032e-05
0.0121816
2.59736e-05
7.39878e-05
0.00169152
-0.0144239
0.00294526
-0.0131214
0.00384484
-0.0106674
0.00453812
-0.00842083
0.00508188
-0.00651088
0.00550899
-0.0049123
0.00584413
-0.0035945
0.00610209
-0.00251994
0.00629298
-0.00166061
0.00643026
-0.00100518
0.00654034
-0.000555093
0.00663834
-0.000267566
0.00673729
-7.63139e-05
0.00680431
5.86317e-05
0.00683116
0.000141193
0.00682195
0.000170497
0.00677693
0.000171873
0.00669545
0.000162195
0.00658026
0.000142733
0.00643795
0.000115655
0.00627123
8.42264e-05
0.00608351
5.41316e-05
0.00587805
3.21523e-05
0.00565883
2.73568e-05
0.00541941
5.89374e-05
0.00513944
0.000141004
0.00481669
0.000242659
0.00447905
0.000316134
0.00416888
0.000336144
0.000296467
0.00089059
-0.0153145
0.00124674
-0.0134775
0.00134952
-0.0107702
0.0013802
-0.00845152
0.00136747
-0.00649816
0.00134038
-0.00488521
0.00131421
-0.00356832
0.00128932
-0.00249505
0.00125685
-0.00162815
0.00121579
-0.000964114
0.00118834
-0.00052764
0.00112836
-0.00020759
0.000995793
5.62531e-05
0.000801815
0.00025261
0.000559855
0.000383152
0.000267612
0.000462741
-7.94218e-05
0.000518907
-0.000480886
0.00056366
-0.000935943
0.000597789
-0.00143382
0.000613532
-0.0019539
0.000604304
-0.00247151
0.000571742
-0.00296331
0.000523952
-0.00340831
0.000472355
-0.00378284
0.000433476
-0.0040762
0.000434361
-0.00431419
0.000480648
-0.00453081
0.000532754
-0.00472973
0.000535062
0.000468554
-8.61295e-05
-0.0152283
-0.000646272
-0.0129174
-0.00136983
-0.0100466
-0.00208024
-0.00774112
-0.00274252
-0.00583588
-0.00333013
-0.0042976
-0.00383475
-0.00306369
-0.00426479
-0.00206501
-0.00465448
-0.00123846
-0.0050882
-0.000530389
-0.0056615
4.56531e-05
-0.00627693
0.000407846
-0.00680683
0.000586151
-0.00725716
0.000702942
-0.00767226
0.00079825
-0.00807931
0.00086979
-0.00848167
0.000921264
-0.00887887
0.000960864
-0.00927318
0.000992098
-0.00967007
0.00101042
-0.0100729
0.00100716
-0.010477
0.000975794
-0.0108685
0.000915485
-0.0112297
0.000833574
-0.0115455
0.000749226
-0.0118042
0.000693089
-0.0120056
0.000682064
-0.0121645
0.00069166
-0.0123018
0.00067234
0.000619565
-0.00108846
-0.0141399
-0.00269058
-0.0113153
-0.00431564
-0.00842153
-0.0058677
-0.00618906
-0.00728352
-0.00442006
-0.00855422
-0.0030269
-0.00968815
-0.00192975
-0.0107048
-0.00104837
-0.0116189
-0.000324313
-0.0123825
0.00023321
-0.012951
0.000614115
-0.0134005
0.000857396
-0.0138325
0.00101812
-0.0142564
0.00112683
-0.0146654
0.00120724
-0.0150609
0.00126534
-0.0154435
0.00130384
-0.0158108
0.00132817
-0.016163
0.00134431
-0.0165059
0.0013533
-0.0168473
0.00134857
-0.0171898
0.00131822
-0.0175258
0.00125152
-0.0178402
0.00114799
-0.018117
0.001026
-0.0183437
0.000919792
-0.0185163
0.000854702
-0.0186458
0.000821108
-0.0187589
0.00078542
0.000748362
-0.00223976
-0.0119001
-0.00491437
-0.00864066
-0.00753588
-0.00580002
-0.00993921
-0.00378573
-0.0120528
-0.00230649
-0.0138664
-0.00121326
-0.0153955
-0.000400672
-0.0166374
0.000193548
-0.0175821
0.000620326
-0.0182814
0.00093259
-0.0188412
0.00117383
-0.0193321
0.00134834
-0.0197782
0.00146424
-0.0201949
0.00154354
-0.0205907
0.00160299
-0.0209707
0.00164534
-0.0213348
0.00166797
-0.0216796
0.00167289
-0.0220041
0.00166888
-0.0223147
0.00166392
-0.0226214
0.00165524
-0.0229297
0.00162648
-0.023234
0.00155582
-0.0235185
0.00143253
-0.0237651
0.00127258
-0.0239617
0.00111638
-0.0241079
0.00100093
-0.0242171
0.000930328
-0.0243154
0.000883681
0.000860346
-0.00359697
-0.00830314
-0.00744385
-0.00479379
-0.0110834
-0.00216042
-0.0142661
-0.00060309
-0.0168884
0.000315845
-0.018942
0.000840376
-0.0204963
0.0011536
-0.0216693
0.00136652
-0.0225822
0.00153324
-0.0233235
0.00167388
-0.0239366
0.00178698
-0.0244554
0.00186708
-0.0249079
0.00191676
-0.0253161
0.00195172
-0.025697
0.00198389
-0.0260606
0.00200899
-0.0264071
0.00201446
-0.0267309
0.00199669
-0.0270304
0.00196837
-0.0273137
0.00194719
-0.0275944
0.00193593
-0.0278808
0.00191296
-0.0281674
0.00184237
-0.0284346
0.00169972
-0.0286596
0.00149759
-0.0288299
0.00128672
-0.0289507
0.00112166
-0.0290407
0.00102035
-0.0291246
0.000967561
0.000954872
-0.00554336
-0.00275977
-0.0110578
0.000720611
-0.0154528
0.00223458
-0.0188169
0.00276108
-0.0213502
0.00284909
-0.0232934
0.00278354
-0.0248209
0.00268119
-0.0260309
0.0025765
-0.0269907
0.00249306
-0.0277605
0.00244359
-0.0283914
0.00241789
-0.0289178
0.00239349
-0.0293642
0.0023632
-0.0297552
0.00234268
-0.0301158
0.00234449
-0.0304618
0.00235499
-0.0307923
0.00234505
-0.031097
0.00230135
-0.0313714
0.00224275
-0.0316268
0.00220258
-0.0318835
0.00219271
-0.0321549
0.00218429
-0.032434
0.00212149
-0.0326945
0.00196023
-0.0329052
0.00170827
-0.0330513
0.00143279
-0.0331449
0.00121528
-0.0332138
0.00108931
-0.0332821
0.00103578
0.00103159
-0.00787739
0.00511762
-0.0143083
0.00715156
-0.0190152
0.0069414
-0.0225534
0.00629935
-0.0252305
0.00552616
-0.0272537
0.00480673
-0.0288024
0.0042299
-0.0300055
0.00377964
-0.0309437
0.00343124
-0.0316879
0.00318781
-0.032299
0.00302891
-0.0328091
0.00290365
-0.0332326
0.00278668
-0.0335921
0.00270217
-0.0339226
0.00267503
-0.0342486
0.00268095
-0.0345663
0.00266277
-0.0348546
0.00258961
-0.0351023
0.00249046
-0.0353255
0.00242581
-0.0355565
0.0024237
-0.0358168
0.00244452
-0.036098
0.00240269
-0.0363627
0.00222493
-0.0365656
0.00191126
-0.0366867
0.00155386
-0.0367479
0.00127646
-0.0367915
0.00113292
-0.0368429
0.00108716
0.0010909
-0.00979397
0.0149116
-0.017511
0.0148685
-0.022866
0.0122965
-0.0265652
0.00999855
-0.0292112
0.00817215
-0.0311171
0.0067126
-0.0325427
0.00565549
-0.0336467
0.00488363
-0.0344922
0.00427676
-0.0351521
0.00384776
-0.0357052
0.00358199
-0.03618
0.00337844
-0.0365657
0.00317233
-0.0368753
0.00301184
-0.037161
0.00296072
-0.0374637
0.0029836
-0.0377743
0.00297341
-0.038051
0.00286629
-0.0382685
0.00270796
-0.0384501
0.00260742
-0.0386487
0.00262231
-0.0389001
0.00269596
-0.0391939
0.00269642
-0.0394757
0.00250673
-0.0396782
0.00211383
-0.0397707
0.00164634
-0.039789
0.00129475
-0.0398002
0.00114413
-0.0398351
0.00112205
0.00113502
-0.0130128
0.0279244
-0.0224837
0.0243394
-0.0278452
0.017658
-0.031089
0.0132424
-0.0334024
0.0104855
-0.034941
0.00825113
-0.0360516
0.00676608
-0.0369614
0.00579345
-0.0376518
0.00496714
-0.0381651
0.00436104
-0.0386225
0.0040394
-0.0390547
0.0038107
-0.0393942
0.00351178
-0.0396285
0.00324619
-0.0398444
0.00317655
-0.0401188
0.00325802
-0.0404342
0.00328884
-0.0407096
0.00314164
-0.0408914
0.00288981
-0.041014
0.00272999
-0.041167
0.00277532
-0.0414106
0.00293954
-0.0417299
0.00301575
-0.0420458
0.0028226
-0.0422573
0.00232532
-0.042314
0.00170307
-0.0422712
0.00125193
-0.0422384
0.00111136
-0.0422604
0.00114404
0.00117135
-0.0185345
0.0464589
-0.030013
0.0358179
-0.0346668
0.0223118
-0.0362075
0.0147831
-0.0378637
0.0121418
-0.0386721
0.00905956
-0.0391946
0.00728852
-0.0398934
0.00649227
-0.0404423
0.00551599
-0.0407292
0.00464801
-0.0410295
0.00433965
-0.0414227
0.00420391
-0.0417196
0.00380874
-0.0418451
0.00337167
-0.0419495
0.0032809
-0.042192
0.00350052
-0.0425382
0.00363512
-0.042834
0.00343736
-0.0429713
0.00302715
-0.0430023
0.00276098
-0.0430842
0.00285718
-0.0433186
0.00317393
-0.0436804
0.00337764
-0.0440533
0.00319541
-0.0442866
0.00255862
-0.0442958
0.00171235
-0.0441611
0.0011172
-0.0440646
0.0010149
-0.0440833
0.00116272
0.00121946
0.207447
0.00576012
0.207034
0.0111749
0.206432
0.0163497
0.205647
0.0213676
0.204688
0.0262935
0.203561
0.0311817
0.202272
0.0360796
0.200826
0.041029
0.19923
0.046067
0.197489
0.0512266
0.195608
0.056538
0.193593
0.0620296
0.19145
0.0677289
0.189183
0.073663
0.186798
0.0798607
0.184298
0.0863533
0.181686
0.0931766
0.178965
0.100374
0.176134
0.107998
0.173192
0.11612
0.170134
0.12483
0.166955
0.134252
0.163651
0.144558
0.160222
0.155991
0.156691
0.168905
0.153151
0.183829
0.149964
0.201557
0.148803
0.223006
0.160443
0.245663
0.258872
0.235824
0.21249
0.00595252
0.212118
0.0115477
0.211574
0.0168932
0.210868
0.0220734
0.210008
0.0271539
0.209001
0.0321891
0.207854
0.0372266
0.206574
0.0423081
0.205171
0.0474705
0.203651
0.0527464
0.202023
0.0581658
0.200297
0.0637563
0.198481
0.0695447
0.196586
0.0755575
0.194625
0.0818222
0.192609
0.088369
0.190554
0.0952319
0.188476
0.102451
0.186398
0.110077
0.184347
0.118171
0.182364
0.126813
0.180509
0.136106
0.178882
0.146185
0.177653
0.15722
0.177144
0.169414
0.178007
0.182965
0.181656
0.197908
0.19069
0.213973
0.206113
0.23024
0.245793
0.219193
0.217658
0.00612244
0.217329
0.0118767
0.21685
0.0173718
0.21623
0.0226931
0.215478
0.0279062
0.214602
0.0330656
0.21361
0.0382186
0.212511
0.0434066
0.211316
0.0486657
0.210035
0.0540278
0.208679
0.0595218
0.207261
0.0651742
0.205795
0.0710101
0.204298
0.0770543
0.202789
0.0833318
0.201288
0.0898695
0.199823
0.0966972
0.198425
0.103849
0.197138
0.111365
0.196015
0.119293
0.195137
0.127691
0.194615
0.136628
0.194621
0.14618
0.195416
0.156425
0.197411
0.167419
0.201216
0.17916
0.207602
0.191523
0.21723
0.204345
0.229825
0.217644
0.228846
0.246772
0.222951
0.00626787
0.22267
0.0121579
0.222262
0.0177799
0.221736
0.0232193
0.2211
0.0285416
0.220365
0.033801
0.219539
0.0390441
0.218634
0.0443114
0.217662
0.0496382
0.216635
0.0550549
0.215568
0.060589
0.214477
0.0662651
0.213381
0.0721059
0.212302
0.0781334
0.211265
0.0843688
0.2103
0.0908343
0.209444
0.0975529
0.208743
0.10455
0.208255
0.111853
0.208057
0.119491
0.208251
0.127497
0.208978
0.135902
0.21043
0.144728
0.212871
0.153984
0.216648
0.163642
0.222181
0.173628
0.229919
0.183785
0.240435
0.193828
0.254649
0.203431
0.21034
0.273155
0.228374
0.00638697
0.228144
0.0123879
0.227812
0.0181124
0.227386
0.0236455
0.226875
0.0290523
0.22629
0.0343861
0.225641
0.0396925
0.224942
0.045011
0.224205
0.0503753
0.223445
0.0558143
0.222681
0.0613533
0.221932
0.0670145
0.22122
0.0728176
0.220573
0.0787808
0.220021
0.0849208
0.219601
0.0912536
0.21936
0.0977945
0.219352
0.104558
0.219646
0.111558
0.220331
0.118806
0.22152
0.126308
0.223357
0.134064
0.226028
0.142057
0.229763
0.150248
0.234843
0.158562
0.241597
0.166874
0.250404
0.174978
0.26171
0.182522
0.275991
0.18915
0.193777
0.292554
0.233929
0.00647804
0.233754
0.0125633
0.233502
0.0183645
0.233182
0.0239657
0.232803
0.029431
0.232376
0.0348125
0.231914
0.0401547
0.23143
0.0454954
0.230939
0.0508666
0.230458
0.0562951
0.230007
0.0618039
0.22961
0.067412
0.229291
0.0731359
0.229083
0.0789894
0.229019
0.084984
0.229144
0.091129
0.229507
0.0974313
0.23017
0.103895
0.231207
0.110521
0.23271
0.117303
0.23479
0.124228
0.237584
0.131271
0.241255
0.138386
0.245995
0.145507
0.252026
0.152531
0.259591
0.15931
0.268931
0.165638
0.280226
0.171227
0.293573
0.175803
0.178852
0.308497
0.23962
0.0065396
0.239502
0.0126814
0.239334
0.0185323
0.239125
0.0241748
0.238884
0.0296716
0.238623
0.0350734
0.238355
0.0404232
0.238094
0.0457567
0.237856
0.0511041
0.237662
0.0564897
0.237532
0.0619337
0.237492
0.0674521
0.23757
0.0730575
0.2378
0.0787592
0.238221
0.0845631
0.238878
0.0904722
0.239824
0.0964854
0.241122
0.102597
0.242846
0.108796
0.245085
0.115064
0.247942
0.121372
0.251535
0.127677
0.256001
0.133921
0.261489
0.140019
0.268155
0.145865
0.276151
0.151314
0.285597
0.156193
0.296537
0.160286
0.308963
0.163377
0.165199
0.322616
0.245448
0.00657038
0.24539
0.0127396
0.24531
0.0186121
0.245217
0.0242683
0.245119
0.029769
0.245029
0.0351634
0.24496
0.0404922
0.244928
0.0457894
0.244949
0.0510825
0.245045
0.0563936
0.245239
0.0617399
0.245557
0.067134
0.24603
0.0725847
0.246693
0.0780968
0.247585
0.0836711
0.248752
0.0893045
0.250249
0.0949889
0.252135
0.100711
0.254481
0.10645
0.257367
0.112179
0.260882
0.117857
0.265124
0.123435
0.270198
0.128846
0.276212
0.134006
0.283264
0.138812
0.291436
0.143142
0.300775
0.146853
0.311272
0.14979
0.322858
0.151791
0.152726
0.335331
0.251418
0.00656937
0.251422
0.0127361
0.251432
0.0186013
0.251458
0.0242429
0.251507
0.0297197
0.251592
0.0350785
0.251726
0.040358
0.251926
0.0455899
0.252209
0.0507994
0.252597
0.0560059
0.253113
0.0612234
0.253786
0.0664615
0.254645
0.0717252
0.255727
0.0770152
0.25707
0.0823279
0.25872
0.0876547
0.260727
0.092982
0.263147
0.0982903
0.266044
0.103553
0.269485
0.108737
0.273545
0.113798
0.278298
0.118682
0.283821
0.123323
0.290183
0.127644
0.297441
0.131554
0.305629
0.134954
0.314749
0.137734
0.324755
0.139784
0.335548
0.140998
0.141317
0.346957
0.257532
0.00653581
0.257599
0.0126694
0.257702
0.018498
0.257849
0.0240965
0.258047
0.0295211
0.258309
0.0348164
0.258649
0.0400188
0.259081
0.0451576
0.259625
0.0502553
0.260302
0.0553287
0.261136
0.0603891
0.262155
0.065443
0.263388
0.0704919
0.26487
0.0755332
0.266639
0.0805591
0.268737
0.0855572
0.271209
0.0905099
0.274105
0.0953937
0.27748
0.100179
0.281388
0.104829
0.285887
0.109299
0.291032
0.113537
0.296872
0.117483
0.303448
0.121068
0.310783
0.124219
0.318881
0.126856
0.327713
0.128901
0.337216
0.130281
0.347286
0.130929
0.130824
0.357779
0.263794
0.00646925
0.263925
0.0125386
0.264122
0.018301
0.264391
0.0238277
0.264739
0.0291723
0.265179
0.0343767
0.265723
0.039475
0.266387
0.0444938
0.267189
0.0494534
0.26815
0.0543678
0.269293
0.0592457
0.270645
0.0640909
0.272235
0.0689021
0.274094
0.0736736
0.276259
0.0783949
0.278765
0.0830508
0.281654
0.0876209
0.284968
0.09208
0.288749
0.0963972
0.293042
0.100536
0.297887
0.104454
0.303321
0.108103
0.309372
0.111432
0.316058
0.114383
0.32338
0.116897
0.331319
0.118917
0.339833
0.120387
0.348852
0.121262
0.358276
0.121504
0.121114
0.367986
0.270207
0.00636949
0.270402
0.0123435
0.270693
0.0180101
0.271084
0.0234366
0.271583
0.0286736
0.272199
0.0337605
0.272945
0.0387288
0.273836
0.0436025
0.27489
0.0483996
0.276126
0.0531316
0.277567
0.057805
0.279237
0.0624211
0.281163
0.0669764
0.283373
0.071463
0.2859
0.0758685
0.288774
0.080176
0.292031
0.0843642
0.295704
0.0884073
0.299826
0.0922752
0.304428
0.0959336
0.309538
0.0993442
0.315176
0.102465
0.321354
0.105253
0.328074
0.107663
0.33532
0.109651
0.343062
0.111174
0.351251
0.112199
0.359816
0.112697
0.36867
0.112651
0.112073
0.377711
0.276774
0.00623665
0.277033
0.0120844
0.277417
0.0176257
0.27793
0.022924
0.278577
0.0280268
0.279366
0.0329706
0.280311
0.0377843
0.281424
0.0424896
0.282721
0.0471021
0.284222
0.0516313
0.285945
0.0560815
0.287914
0.0604522
0.290152
0.0647382
0.292685
0.0689303
0.295539
0.0730148
0.29874
0.0769744
0.302317
0.0807879
0.306293
0.0844305
0.310694
0.0878742
0.31554
0.0910881
0.320845
0.0940389
0.326619
0.0966922
0.332859
0.0990125
0.339557
0.100966
0.346687
0.10252
0.354213
0.103648
0.362083
0.104328
0.370232
0.104548
0.378582
0.104301
0.103607
0.387049
0.283498
0.00607111
0.283821
0.0117619
0.284297
0.0171492
0.284929
0.0222921
0.285721
0.0272349
0.28668
0.0320113
0.287817
0.0366475
0.289144
0.0411631
0.290674
0.0455714
0.292426
0.0498801
0.294415
0.0540919
0.296662
0.0582049
0.299188
0.0622127
0.302013
0.0661053
0.305159
0.069869
0.308647
0.0734866
0.312496
0.076938
0.316726
0.0802005
0.321352
0.0832489
0.326383
0.0860566
0.331826
0.0885958
0.33768
0.0908387
0.343934
0.0927582
0.35057
0.0943294
0.35756
0.0955308
0.364863
0.0963454
0.372429
0.0967622
0.380199
0.0967775
0.388105
0.0963947
0.0956343
0.396078
0.290384
0.0058735
0.290768
0.0113773
0.291335
0.0165826
0.292083
0.0215439
0.293016
0.0263021
0.294139
0.0308881
0.295461
0.0353258
0.296992
0.0396324
0.298744
0.0438195
0.300731
0.0478931
0.302968
0.0518546
0.305472
0.055701
0.308259
0.0594257
0.311346
0.0630184
0.314749
0.0664657
0.318484
0.0697515
0.322565
0.0728575
0.327002
0.0757635
0.331803
0.0784477
0.336972
0.0808879
0.342506
0.0830619
0.348396
0.0849481
0.354628
0.0865266
0.361177
0.0877804
0.368012
0.0886959
0.375093
0.0892641
0.382374
0.0894815
0.389801
0.0893505
0.397316
0.0888794
0.0880893
0.404861
0.297435
0.00564469
0.297879
0.0109325
0.298533
0.0159286
0.299394
0.0206831
0.300463
0.0252334
0.301743
0.0296079
0.303241
0.0338277
0.304965
0.0379084
0.306925
0.0418596
0.309132
0.0456861
0.311598
0.0493885
0.314336
0.0529632
0.317358
0.0564034
0.320677
0.0596991
0.324305
0.062838
0.328251
0.0658055
0.332523
0.0685852
0.337127
0.07116
0.342063
0.0735117
0.347328
0.0756225
0.352915
0.0774749
0.35881
0.0790533
0.364993
0.0803438
0.371438
0.0813355
0.378113
0.0820211
0.384979
0.0823974
0.391995
0.0824659
0.399113
0.0822329
0.406283
0.0817094
0.0809161
0.413456
0.304654
0.00538575
0.305157
0.0104295
0.305895
0.0151904
0.306864
0.0197142
0.308063
0.024035
0.309492
0.0281782
0.311157
0.0321629
0.313063
0.0360027
0.315217
0.0397058
0.317627
0.0432761
0.320302
0.0467133
0.323251
0.0500139
0.326483
0.053171
0.330007
0.0561758
0.333828
0.0590168
0.337952
0.0616814
0.342382
0.0641557
0.347116
0.0664253
0.352152
0.0684757
0.357482
0.070293
0.363093
0.0718643
0.368967
0.0731787
0.375084
0.0742272
0.381415
0.075004
0.38793
0.0755062
0.394593
0.0757347
0.401364
0.0756944
0.408203
0.0753937
0.415068
0.0748449
0.0740676
0.421916
0.312046
0.00509789
0.312605
0.00987071
0.313424
0.0143717
0.314495
0.0186423
0.315817
0.0227132
0.317388
0.0266073
0.31921
0.0303414
0.321285
0.0339275
0.323618
0.0373726
0.326214
0.0406797
0.329079
0.0438482
0.332219
0.0468746
0.335637
0.0497527
0.339338
0.0524745
0.343325
0.05503
0.347598
0.0574086
0.352155
0.0595988
0.356991
0.0615889
0.362099
0.0633679
0.367466
0.0649253
0.373079
0.0662522
0.378916
0.0673413
0.384955
0.0681879
0.39117
0.0687895
0.397529
0.0691468
0.404001
0.0692633
0.410549
0.0691459
0.417139
0.0688042
0.423733
0.0682507
0.0675035
0.430297
0.319615
0.00478243
0.320227
0.00925872
0.321122
0.0134765
0.322292
0.0174728
0.32373
0.0212751
0.325433
0.0249038
0.327401
0.0283737
0.329633
0.0316953
0.332132
0.0348743
0.334898
0.0379134
0.337935
0.0408117
0.341243
0.0435659
0.344825
0.0461707
0.348681
0.0486189
0.352808
0.0509025
0.357204
0.0530125
0.361863
0.0549397
0.366777
0.0566753
0.371934
0.0582108
0.377321
0.059539
0.382919
0.0606541
0.388708
0.0615521
0.394665
0.0622309
0.400763
0.062691
0.406975
0.0629352
0.41327
0.0629687
0.419616
0.0627995
0.425983
0.0624376
0.432338
0.0618951
0.0611884
0.438653
0.327365
0.00444074
0.328027
0.00859624
0.328995
0.0125087
0.330257
0.0162111
0.331804
0.0197276
0.333632
0.0230764
0.335735
0.0262702
0.338113
0.029318
0.340762
0.0322248
0.343683
0.0349927
0.346874
0.0376209
0.350333
0.0401065
0.354059
0.0424448
0.358048
0.0446301
0.362295
0.0466556
0.366793
0.0485143
0.371534
0.050199
0.376506
0.0517033
0.381695
0.0530212
0.387086
0.0541479
0.39266
0.0550803
0.398396