/*--------------------------------*- C++ -*----------------------------------*\
  =========                 |
  \\      /  F ield         | OpenFOAM: The Open Source CFD Toolbox
   \\    /   O peration     | Website:  https://openfoam.org
    \\  /    A nd           | Version:  dev
     \\/     M anipulation  |
\*---------------------------------------------------------------------------*/
FoamFile
{
    version     2.0;
    format      ascii;
    class       volScalarField;
    location    "3.1";
    object      p;
}
// * * * * * * * * * * * * * * * * * * * * * * * * * * * * * * * * * * * * * //

dimensions      [0 2 -2 0 0 0 0];

internalField   nonuniform List<scalar> 
2790
(
147.612
147.52
147.787
148.358
149.138
150.095
151.228
152.535
154.011
155.652
157.452
159.402
161.496
163.721
166.061
168.497
171.001
173.54
176.072
178.546
180.904
183.081
185.012
186.632
187.892
188.766
189.202
189.257
189.308
189.521
147.41
147.427
147.719
148.288
149.064
150.018
151.146
152.447
153.916
155.549
157.339
159.279
161.362
163.576
165.905
168.331
170.826
173.36
175.89
178.367
180.736
182.931
184.885
186.534
187.818
188.692
189.089
189.144
189.276
189.561
147.211
147.298
147.61
148.168
148.931
149.872
150.985
152.268
153.716
155.324
157.086
158.995
161.043
163.218
165.507
167.889
170.34
172.831
175.323
177.77
180.12
182.312
184.285
185.974
187.325
188.301
188.894
189.249
189.564
189.863
146.986
147.104
147.428
147.977
148.726
149.651
150.744
152.003
153.422
154.996
156.72
158.585
160.584
162.704
164.933
167.25
169.635
172.058
174.485
176.875
179.182
181.353
183.335
185.075
186.529
187.681
188.549
189.22
189.773
190.292
146.725
146.858
147.19
147.732
148.464
149.368
150.435
151.662
153.044
154.576
156.25
158.059
159.995
162.045
164.197
166.433
168.731
171.065
173.407
175.72
177.965
180.1
182.082
183.872
185.442
186.785
187.915
188.878
189.689
190.435
146.424
146.562
146.897
147.429
148.141
149.019
150.055
151.244
152.582
154.061
155.676
157.419
159.28
161.248
163.309
165.447
167.642
169.871
172.107
174.323
176.485
178.562
180.524
182.345
184.008
185.509
186.855
188.061
189.081
189.999
146.082
146.221
146.552
147.071
147.76
148.608
149.607
150.753
152.039
153.459
155.006
156.672
158.446
160.319
162.276
164.302
166.378
168.483
170.596
172.692
174.747
176.738
178.645
180.455
182.161
183.761
185.255
186.634
187.799
188.846
145.697
145.834
146.158
146.661
147.324
148.138
149.096
150.191
151.419
152.772
154.242
155.822
157.5
159.266
161.107
163.006
164.947
166.911
168.878
170.83
172.747
174.614
176.421
178.163
179.841
181.46
183.015
184.487
185.737
186.887
145.271
145.404
145.718
146.201
146.835
147.611
148.523
149.563
150.727
152.006
153.392
154.876
156.449
158.097
159.808
161.566
163.356
165.159
166.958
168.737
170.48
172.178
173.825
175.425
176.987
178.521
180.029
181.5
182.771
184.009
144.804
144.932
145.233
145.693
146.296
147.031
147.892
148.873
149.966
151.165
152.46
153.841
155.298
156.819
158.388
159.992
161.614
163.236
164.841
166.415
167.943
169.417
170.835
172.202
173.535
174.853
176.173
177.511
178.711
180.015
144.299
144.42
144.706
145.141
145.709
146.4
147.207
148.124
149.143
150.256
151.453
152.724
154.058
155.441
156.858
158.294
159.732
161.153
162.539
163.874
165.141
166.331
167.438
168.465
169.429
170.357
171.287
172.285
173.247
174.565
143.757
143.871
144.139
144.548
145.079
145.723
146.472
147.322
148.262
149.284
150.378
151.533
152.736
153.973
155.229
156.485
157.724
158.925
160.067
161.129
162.09
162.932
163.64
164.205
164.631
164.94
165.182
165.489
165.87
167.043
143.18
143.286
143.536
143.916
144.408
145.002
145.692
146.47
147.328
148.256
149.243
150.276
151.343
152.427
153.512
154.579
155.606
156.57
157.445
158.204
158.817
159.251
159.473
159.448
159.144
158.545
157.669
156.675
155.725
156.229
142.57
142.669
142.899
143.248
143.699
144.242
144.87
145.575
146.348
147.178
148.054
148.962
149.888
150.814
151.723
152.592
153.398
154.112
154.703
155.135
155.365
155.342
155.003
154.271
153.047
151.217
148.652
145.348
141.395
139.356
141.931
142.021
142.231
142.548
142.957
143.448
144.012
144.641
145.327
146.057
146.819
147.599
148.381
149.146
149.875
150.541
151.119
151.576
151.872
151.963
151.79
151.28
150.335
148.82
146.54
143.207
138.362
131.341
120.87
108.632
2.27563
2.24671
2.14964
2.01404
1.86823
1.72529
1.58945
1.46167
1.34181
1.22912
1.12271
1.02187
0.92632
0.836075
0.751208
0.671781
0.598422
0.533257
0.479585
0.439621
0.412378
0.391881
0.373014
0.353845
0.330333
0.298605
0.256638
0.202213
0.134704
0.0557623
2.20276
2.16955
2.07891
1.95439
1.8197
1.68624
1.55817
1.4367
1.32185
1.213
1.10944
1.01067
0.916653
0.827626
0.743679
0.664612
0.590773
0.524648
0.470924
0.433334
0.409286
0.391862
0.374399
0.356825
0.334576
0.304083
0.262056
0.206783
0.137265
0.0537711
2.12794
2.08859
2.00185
1.88712
1.76364
1.64025
1.52071
1.40634
1.29724
1.19289
1.09269
0.996364
0.904179
0.816696
0.734126
0.655936
0.581987
0.515243
0.462002
0.426286
0.403157
0.384797
0.370505
0.356332
0.337087
0.307946
0.266916
0.212494
0.142816
0.0538533
2.0625
2.01703
1.93252
1.82529
1.71128
1.5967
1.48484
1.37702
1.27333
1.1733
1.07641
0.982507
0.892121
0.806196
0.725241
0.648476
0.574488
0.505259
0.44986
0.419419
0.404999
0.391782
0.377682
0.363751
0.345102
0.314118
0.269164
0.212533
0.141468
0.0525635
2.02754
1.97605
1.8937
1.79108
1.68298
1.57371
1.4665
1.36261
1.26217
1.16477
1.06994
0.977591
0.888309
0.803175
0.723045
0.647811
0.577177
0.513072
0.45937
0.42184
0.401665
0.390656
0.380463
0.368215
0.349514
0.318351
0.273469
0.214945
0.141136
0.0506606
2.03963
1.98019
1.89889
1.7959
1.68784
1.5784
1.47099
1.36698
1.26657
1.16942
1.07507
0.983383
0.894784
0.810074
0.729969
0.654804
0.585071
0.523747
0.474479
0.437591
0.414555
0.39913
0.386441
0.372273
0.351204
0.317697
0.270232
0.209932
0.135091
0.0462675
2.1064
2.03768
1.94918
1.83942
1.72379
1.60783
1.49493
1.38645
1.28255
1.18287
1.08697
0.994689
0.90625
0.822133
0.742778
0.668468
0.599893
0.538845
0.488713
0.451389
0.425986
0.407554
0.391777
0.374358
0.350171
0.314462
0.265273
0.202788
0.126954
0.0423247
2.22449
2.13941
2.03299
1.90722
1.77694
1.64867
1.52587
1.40987
1.30058
1.19728
1.09924
1.00599
0.9175
0.833925
0.755485
0.682352
0.61504
0.555237
0.505328
0.466708
0.438256
0.416223
0.39657
0.375096
0.347198
0.308734
0.257336
0.192745
0.116906
0.0383959
2.36785
2.25628
2.12209
1.97351
1.82554
1.68399
1.55111
1.42736
1.31279
1.20631
1.10672
1.01319
0.925311
0.842887
0.765749
0.693978
0.628245
0.569917
0.520632
0.481124
0.450177
0.424721
0.401078
0.375371
0.343615
0.302143
0.248235
0.181408
0.106212
0.0344898
2.49364
2.34892
2.19104
2.02039
1.85409
1.69956
1.55891
1.43124
1.31465
1.2074
1.1079
1.01516
0.928704
0.848194
0.773173
0.703407
0.639385
0.582363
0.533689
0.493704
0.461013
0.432729
0.405405
0.375586
0.339967
0.295337
0.238723
0.169631
0.0954842
0.0306798
2.58363
2.40564
2.22004
2.03187
1.85431
1.69262
1.54777
1.41856
1.30258
1.19711
1.09982
1.00944
0.925698
0.848283
0.776406
0.709338
0.647314
0.591655
0.543803
0.503977
0.470497
0.440268
0.409857
0.37623
0.336807
0.28889
0.229404
0.158091
0.0850722
0.0270147
2.60418
2.39427
2.18291
1.9809
1.80097
1.64329
1.50463
1.38183
1.27236
1.17316
1.08113
0.995022
0.915401
0.842504
0.775066
0.711483
0.651648
0.597303
0.550521
0.511672
0.478593
0.447529
0.414775
0.377671
0.334462
0.283117
0.220677
0.147258
0.0752163
0.0235178
2.47448
2.22295
2.01825
1.83757
1.68102
1.54605
1.42696
1.31953
1.22321
1.13557
1.05221
0.971954
0.897511
0.830638
0.769292
0.71013
0.652472
0.599079
0.553493
0.516614
0.485447
0.454912
0.420634
0.380314
0.333204
0.278226
0.212781
0.137341
0.066173
0.0202611
2.08043
1.79981
1.6782
1.58516
1.48827
1.40052
1.31786
1.23457
1.15706
1.08661
1.01538
0.94141
0.872083
0.812744
0.759816
0.706294
0.650374
0.59691
0.55232
0.518632
0.491374
0.463055
0.42808
0.384593
0.333209
0.274239
0.205785
0.12853
0.0580574
0.0172673
1.25326
0.95584
1.09492
1.23175
1.23259
1.21812
1.19102
1.13457
1.07558
1.02893
0.974742
0.90572
0.83924
0.788825
0.747992
0.701846
0.64635
0.590566
0.54618
0.517278
0.496763
0.472824
0.437906
0.390951
0.334529
0.270966
0.199559
0.121007
0.0512375
0.0146548
141.252
141.333
141.521
141.806
142.171
142.606
143.104
143.656
144.251
144.878
145.523
146.172
146.806
147.405
147.948
148.408
148.752
148.944
148.938
148.678
148.092
147.084
145.52
143.207
139.844
134.938
127.565
115.809
93.629
33.7467
140.524
140.596
140.762
141.012
141.331
141.709
142.138
142.609
143.111
143.632
144.156
144.669
145.151
145.581
145.934
146.181
146.288
146.212
145.902
145.293
144.3
142.811
140.666
137.635
133.359
127.253
118.286
104.724
85.2042
56.7788
139.755
139.816
139.959
140.173
140.444
140.764
141.122
141.511
141.917
142.329
142.731
143.105
143.434
143.693
143.856
143.892
143.763
143.424
142.819
141.877
140.508
138.59
135.958
132.385
127.543
120.979
112.104
100.283
86.0745
69.5142
138.944
138.995
139.114
139.291
139.514
139.774
140.06
140.364
140.674
140.976
141.254
141.492
141.667
141.756
141.732
141.561
141.204
140.614
139.733
138.488
136.788
134.517
131.521
127.606
122.524
115.984
107.69
97.3137
84.7956
69.7009
138.094
138.135
138.23
138.369
138.543
138.741
138.956
139.175
139.388
139.58
139.736
139.837
139.861
139.784
139.578
139.21
138.638
137.815
136.685
135.176
133.203
130.66
127.418
123.321
118.19
111.824
104.026
94.5544
83.2422
70.2977
137.207
137.238
137.308
137.41
137.534
137.671
137.813
137.948
138.065
138.149
138.184
138.151
138.029
137.793
137.414
136.86
136.09
135.058
133.71
131.981
129.794
127.058
123.669
119.506
114.442
108.341
101.082
92.5656
82.7845
72.1515
136.286
136.306
136.351
136.416
136.49
136.567
136.637
136.689
136.711
136.689
136.607
136.445
136.183
135.797
135.257
134.531
133.583
132.369
130.838
128.933
126.588
123.729
120.274
116.137
111.23
105.474
98.8168
91.2468
82.8082
73.8363
135.334
135.343
135.364
135.391
135.417
135.434
135.433
135.404
135.334
135.21
135.015
134.731
134.337
133.81
133.122
132.243
131.139
129.769
128.09
126.052
123.601
120.679
117.225
113.179
108.489
103.116
97.0443
90.296
82.9206
75.1898
134.354
134.353
134.35
134.34
134.318
134.277
134.208
134.1
133.941
133.719
133.417
133.018
132.502
131.846
131.026
130.012
128.774
127.277
125.484
123.352
120.84
117.903
114.499
110.59
106.147
101.156
95.6232
89.5822
83.0867
76.364
133.351
133.34
133.313
133.268
133.2
133.102
132.966
132.783
132.541
132.226
131.824
131.318
130.69
129.919
128.981
127.851
126.503
124.905
123.028
120.837
118.301
115.388
112.069
108.324
104.14
99.5165
94.4727
89.0475
83.2939
77.3964
132.329
132.308
132.259
132.179
132.066
131.914
131.716
131.461
131.139
130.738
130.244
129.641
128.912
128.039
127
125.773
124.335
122.662
120.728
118.508
115.978
113.117
109.907
106.34
102.413
98.1354
93.5318
88.6409
83.5107
78.2892
131.292
131.263
131.192
131.079
130.924
130.721
130.463
130.141
129.746
129.265
128.687
127.996
127.178
126.216
125.091
123.786
122.279
120.552
118.585
116.36
113.859
111.07
107.984
104.599
100.921
96.9631
92.7514
88.3221
83.7168
79.0547
130.248
130.209
130.118
129.974
129.779
129.528
129.215
128.831
128.368
127.815
127.161
126.392
125.497
124.459
123.264
121.896
120.339
118.578
116.598
114.386
111.932
109.229
106.274
103.069
99.6255
95.9591
92.0944
88.0637
83.903
79.7081
129.2
129.153
129.043
128.87
128.637
128.342
127.978
127.537
127.013
126.395
125.673
124.837
123.875
122.775
121.524
120.108
118.517
116.738
114.762
112.579
110.183
107.573
104.75
101.72
98.4951
95.0918
91.5331
87.8473
84.0647
80.2629
128.156
128.101
127.973
127.773
127.506
127.17
126.759
126.267
125.688
125.012
124.232
123.338
122.321
121.17
119.875
118.426
116.814
115.031
113.07
110.927
108.598
106.085
103.392
100.527
97.5034
94.3364
91.0471
87.6598
84.2001
80.731
127.121
127.06
126.915
126.69
126.392
126.019
125.566
125.028
124.4
123.674
122.844
121.901
120.839
119.648
118.32
116.85
115.229
113.453
111.517
109.421
107.163
104.748
102.18
99.4698
96.6291
93.6732
90.6207
87.4923
84.3093
81.1235
126.103
126.035
125.875
125.628
125.302
124.895
124.405
123.827
123.156
122.387
121.515
120.532
119.433
118.212
116.863
115.38
113.76
111.999
110.096
108.051
105.866
103.546
101.097
98.5296
95.8549
93.0872
90.2425
87.3387
84.3937
81.45
125.108
125.034
124.861
124.594
124.242
123.806
123.283
122.67
121.963
121.158
120.25
119.235
118.108
116.866
115.502
114.016
112.404
110.665
108.799
106.808
104.695
102.467
100.129
97.6924
95.1671
92.5663
89.9039
87.1952
84.4553
81.7193
124.143
124.064
123.879
123.595
123.221
122.759
122.208
121.564
120.826
119.991
119.055
118.015
116.868
115.61
114.241
112.757
111.158
109.445
107.619
105.683
103.641
101.499
99.2641
96.946
94.5547
92.1015
89.5988
87.0596
84.4967
81.9391
123.216
123.133
122.937
122.638
122.244
121.76
121.185
120.516
119.752
118.892
117.934
116.875
115.713
114.448
113.077
111.601
110.021
108.336
106.551
104.668
102.693
100.632
98.4919
96.281
94.009
91.686
89.3228
86.9307
84.5206
82.1166
122.335
122.247
122.043
121.73
121.32
120.817
120.221
119.531
118.747
117.867
116.892
115.819
114.648
113.379
112.013
110.548
108.988
107.334
105.589
103.758
101.846
99.8593
97.8045
95.6896
93.5232
91.3146
89.073
86.8084
84.5301
82.2581
121.506
121.416
121.203
120.879
120.454
119.935
119.322
118.615
117.815
116.92
115.932
114.85
113.675
112.406
111.046
109.596
108.057
106.434
104.729
102.947
101.093
99.1736
97.1955
95.1659
93.0926
90.9838
88.8478
86.6932
84.5283
82.3696
120.74
120.646
120.427
120.092
119.656
119.123
118.497
117.776
116.962
116.056
115.059
113.971
112.795
111.53
110.179
108.744
107.227
105.633
103.966
102.229
100.428
98.5697
96.6597
94.7052
92.7131
90.6909
88.646
86.5859
84.5179
82.4559
120.042
119.946
119.72
119.377
118.931
118.388
117.749
117.018
116.194
115.28
114.277
113.187
112.011
110.752
109.411
107.992
106.497
104.931
103.298
101.602
99.8491
98.0444
96.1943
94.3049
92.383
90.4352
88.4682
86.4887
84.503
82.523
119.423
119.324
119.093
118.742
118.287
117.735
117.088
116.348
115.516
114.597
113.59
112.499
111.326
110.073
108.743
107.339
105.865
104.325
102.723
101.063
99.3519
97.594
95.7953
93.9618
92.0996
90.2148
88.3134
86.4014
84.4847
82.5731
118.891
118.789
118.552
118.194
117.732
117.173
116.519
115.772
114.936
114.012
113.004
111.914
110.745
109.499
108.179
106.79
105.334
103.817
102.242
100.614
98.9379
97.2197
95.4644
93.6778
91.8654
90.0329
88.1859
86.3299
84.4702
82.6153
118.456
118.35
118.106
117.741
117.272
116.706
116.046
115.295
114.455
113.529
112.521
111.432
110.267
109.027
107.717
106.341
104.901
103.403
101.851
100.249
98.6023
96.9165
95.1965
93.4475
91.6751
89.8844
88.0807
86.2689
84.4541
82.6431
118.13
118.018
117.766
117.393
116.919
116.349
115.685
114.93
114.088
113.161
112.152
111.065
109.904
108.67
107.368
106.002
104.576
103.093
101.559
99.9778
98.3546
96.6942
95.0017
93.2822
91.5408
89.7825
88.0124
86.2351
84.4555
82.6796
117.927
117.793
117.523
117.144
116.668
116.095
115.429
114.672
113.829
112.902
111.894
110.809
109.651
108.422
107.126
105.768
104.351
102.879
101.358
99.7905
98.183
96.5397
94.8656
93.1656
91.4447
89.7078
87.9594
86.2043
84.4469
82.6921
117.909
117.71
117.412
117.027
116.548
115.972
115.303
114.545
113.7
112.773
111.766
110.683
109.527
108.302
107.011
105.658
104.248
102.784
101.271
99.713
98.1158
96.4836
94.8213
93.1337
91.4257
89.7019
87.9671
86.2256
84.4817
82.7399
-50.3998
-30.2328
-10.7709
36.5092
29.2629
17.6279
52.1325
40.1538
29.0862
53.4893
43.1145
35.1277
57.7913
49.5409
42.8224
62.1551
55.275
49.4097
65.4012
59.5398
54.5077
67.9714
62.9604
58.6625
70.1373
65.8147
62.1133
71.9649
68.1927
64.9706
73.5009
70.1749
67.341
74.7943
71.8346
69.3178
75.8856
73.2293
70.9738
76.8066
74.404
72.3662
77.5837
75.3952
73.5401
78.2386
76.232
74.5317
78.7894
76.9383
75.3697
79.2511
77.5337
76.0778
79.6367
78.0344
76.6751
79.957
78.4541
77.1779
80.2216
78.8044
77.5995
80.4391
79.0957
77.952
80.616
79.336
78.2444
80.7605
79.5343
78.4868
80.875
79.694
78.6836
80.9712
79.8275
78.8472
81.0405
79.9267
78.9711
81.1116
80.0205
79.0821
81.1444
80.0696
79.1452
81.2132
80.1524
79.2345
-1.67456
-1.50552
-0.101934
0.917777
0.988354
1.01503
1.05341
1.01967
0.974918
0.970031
0.943383
0.871314
0.79774
0.755973
0.734541
0.699466
0.641793
0.579475
0.533568
0.511796
0.502482
0.485957
0.451617
0.400239
0.337359
0.268137
0.193806
0.114867
0.0460403
0.0125214
3.96786
0.811032
1.79966
1.50441
0.486313
0.479061
0.916114
0.986551
0.902704
0.928146
0.923809
0.824493
0.72623
0.702204
0.724698
0.709548
0.641959
0.563387
0.511196
0.499527
0.509197
0.504827
0.471035
0.413209
0.341551
0.264962
0.187671
0.109932
0.0426457
0.0109394
14.8946
6.43454
3.51904
1.41837
0.867424
1.48578
1.71864
0.969305
0.462846
0.632674
0.922954
0.84014
0.685767
0.675387
0.748422
0.737597
0.638565
0.528159
0.465385
0.473621
0.520146
0.53559
0.500007
0.43171
0.347834
0.261332
0.180633
0.106477
0.0419814
0.00998881
24.4436
14.6066
8.78343
5.06213
3.12533
2.26855
1.41045
0.779765
0.692387
1.41751
1.58393
0.83973
0.38809
0.361229
0.608981
0.78136
0.667844
0.508594
0.428518
0.46379
0.557969
0.582272
0.536035
0.451182
0.351568
0.25271
0.168272
0.102344
0.0450214
0.00963981
33.5276
23.8016
16.4978
11.1857
7.49534
4.98502
3.203
2.10988
1.58694
1.52261
1.15363
0.710864
0.419684
0.58677
1.18434
1.18517
0.669114
0.37026
0.248173
0.309925
0.493586
0.627404
0.592772
0.484885
0.366208
0.252475
0.162071
0.108449
0.0659548
0.0119053
41.4402
32.5356
24.6565
18.223
13.2847
9.61147
6.91191
4.97533
3.62415
2.70488
1.95337
1.36754
0.95919
0.876874
0.999293
0.924061
0.663949
0.404927
0.292244
0.43528
0.809798
0.877531
0.647592
0.485355
0.348724
0.22066
0.118968
0.0778862
0.0785308
0.000221106
47.8918
40.1003
32.3346
25.4479
19.8126
15.3265
11.7776
8.99628
6.85689
5.24225
3.99398
3.00268
2.25575
1.79234
1.53085
1.28949
0.975478
0.659162
0.49068
0.531758
0.693726
0.758304
0.686516
0.561303
0.41914
0.268421
0.151328
0.113621
0.192689
0.0263891
53.1477
46.4251
39.1746
32.3464
26.4558
21.494
17.3359
13.8903
11.0838
8.82902
7.00909
5.52983
4.36036
3.4902
2.8555
2.32856
1.82052
1.37317
1.0794
0.965685
0.963197
0.945976
0.838358
0.668495
0.489576
0.319526
0.186996
0.117632
0.142513
-0.0786313
57.4365
51.624
45.0431
38.5694
32.7458
27.6227
23.1378
19.2549
15.9433
13.1521
10.8095
8.85138
7.23826
5.93843
4.89563
4.02314
3.25976
2.61546
2.13037
1.81174
1.60928
1.431
1.21099
0.960582
0.716411
0.49541
0.314436
0.185694
0.0921412
-0.332773
60.9365
55.8702
49.9683
43.9819
38.4226
33.3679
28.7895
24.6833
21.0509
17.8754
15.1212
12.7485
10.7229
9.01126
7.5697
6.34179
5.28341
4.38395
3.65211
3.08277
2.63713
2.25101
1.87517
1.5046
1.15553
0.839082
0.562261
0.319087
0.0538673
-0.547704
63.8108
59.3508
54.0696
48.5986
43.3966
38.5467
34.0362
29.8771
26.0905
22.6825
19.6421
16.9493
14.5817
12.5147
10.7177
9.15329
7.78871
6.60627
5.59965
4.75678
4.04717
3.42592
2.85478
2.31913
1.82109
1.36407
0.94541
0.54509
0.100897
-0.623422
66.1912
62.2259
57.4855
52.5028
47.6822
43.1021
38.7555
34.6598
30.8449
27.3299
24.1189
21.207
18.5839
16.2354
14.1423
12.2806
10.6271
9.16456
7.8812
6.76246
5.78395
4.91298
4.11916
3.38454
2.70274
2.06976
1.47578
0.895735
0.277958
-0.547038
68.1765
64.6188
60.3405
55.7971
51.3447
47.0535
42.9174
38.9536
35.194
31.6634
28.375
25.3333
22.5375
19.9821
17.6572
15.5491
13.6424
11.9235
10.3802
8.99849
7.75899
6.63721
5.60904
4.65658
3.76878
2.9365
2.14629
1.37419
0.58275
-0.345102
69.8414
66.6229
62.7376
58.5802
54.4661
50.4573
46.5464
42.748
39.0925
35.6067
32.3075
29.2054
26.3055
23.6091
21.1132
18.8112
16.6945
14.7535
12.9783
11.357
9.87459
8.5125
7.25169
6.07579
4.97198
3.92857
2.93126
1.95977
0.988924
-0.0574635
71.2434
68.3096
64.7589
60.9373
57.1266
53.3813
49.6921
46.0704
42.5438
39.1381
35.872
32.7585
29.8066
27.0218
24.406
21.958
19.6738
17.548
15.5734
13.7411
12.0398
10.4554
8.97303
7.57842
6.25881
5.00199
3.79435
2.61952
1.46104
0.273881
72.427
69.734
66.469
62.9386
59.3966
55.8911
52.4112
48.9648
45.5761
42.2692
39.0625
35.9701
33.003
30.1693
27.474
24.9195
22.5056
20.2298
18.0881
16.0742
14.18
12.3951
10.7077
9.10601
7.57818
6.11257
4.69683
3.31769
1.9637
0.612522
73.4279
70.9392
67.919
64.6411
61.3356
58.0454
54.7582
51.4788
48.228
45.0275
41.8947
38.8438
35.8864
33.032
30.2877
27.6581
25.1456
22.7503
20.4705
18.3027
16.241
14.278
12.4047
10.6111
8.88704
7.22168
5.60389
4.02231
2.4675
0.932432
74.2745
71.9597
69.1498
66.0907
62.9926
59.8942
56.7819
53.6579
50.5397
47.4465
44.3944
41.3968
38.4654
35.6101
32.8391
30.1585
27.5725
25.083
22.6903
20.3929
18.1871
16.0676
14.0276
12.059
10.1528
8.29926
6.48808
4.70873
2.9517
1.21909
74.9899
72.8237
70.1946
67.3251
64.4085
61.4797
58.5245
55.5427
52.5489
49.5599
46.5902
43.6521
40.7566
37.9139
35.1325
32.4193
29.7796
27.2167
24.7323
22.3265
19.9973
17.7412
15.5531
13.4262
11.3529
9.32411
7.33007
5.36026
3.40393
1.46764
75.5936
73.554
71.0804
68.3753
65.6169
62.8375
60.0223
57.1691
54.2899
51.3995
48.5105
45.6339
42.7802
39.959
37.1787
34.4467
31.7688
29.1494
26.5911
24.0951
21.6608
19.2861
16.9671
14.6984
12.4729
10.2826
8.11755
5.96698
3.81842
1.67972
76.1013
74.1698
71.8298
69.2667
66.6459
63.9973
61.3058
58.5677
55.7928
52.9937
50.1814
47.3659
44.5565
41.7621
38.991
36.2505
33.5466
30.8842
28.2667
25.6962
23.1729
20.6958
18.262
15.8668
13.5042
11.1662
8.84321
6.52361
4.1934
1.85989
76.527
74.6875
72.462
70.021
67.5193
64.9845
62.4015
59.7655
57.084
54.3681
51.6273
48.8702
46.1052
43.3404
40.5837
37.842
35.1215
32.4271
29.7627
27.131
24.5329
21.9679
19.434
16.9273
14.442
11.9707
9.50342
7.02816
4.52958
2.01344
76.8817
75.12
72.9921
70.6559
68.2564
65.8199
63.3313
60.7845
58.1858
55.5445
52.8687
50.1661
47.4439
44.7095
41.9701
39.2323
36.502
33.7844
31.0833
28.4017
25.741
23.1014
20.4811
17.8768
15.2832
12.6927
10.0956
7.47931
4.82753
2.14409
77.1763
75.48
73.4347
71.1874
68.875
66.5225
64.1149
61.6454
59.1189
56.5432
53.9255
51.2723
48.5899
45.8851
43.1642
40.4335
37.6985
34.9643
32.2348
29.513
26.8006
24.0981
21.4041
18.7156
16.0275
13.3323
10.6202
7.87826
5.08967
2.25581
77.4169
75.7749
73.7986
71.6257
69.3865
67.1047
64.7657
62.3619
59.897
57.378
54.8109
52.2014
49.5549
46.8775
44.1749
41.4528
38.7166
35.9709
33.2196
30.4658
27.7113
24.9566
22.2006
19.4405
16.6713
13.8858
11.0738
8.22225
5.31411
2.34831
77.6153
76.0174
74.0978
71.9862
69.8072
67.5837
65.3013
62.9521
60.5388
58.0674
55.5433
52.9711
50.3559
47.7028
45.0172
42.3042
39.5688
36.8153
34.0477
31.2688
28.4805
25.6834
22.8764
20.0569
17.2199
14.3581
11.4615
8.51675
5.50661
2.42686
77.7683
76.2053
74.3304
72.2675
70.1362
67.9591
65.722
63.4165
61.0447
58.6117
56.1224
53.5809
50.9914
48.3588
45.6878
42.9831
40.2495
37.491
34.7113
31.9132
29.0986
26.268
23.4204
20.5531
17.6613
14.7377
11.772
8.75093
5.65727
2.48443
77.8983
76.3609
74.5201
72.494
70.3989
68.2569
66.0541
63.7818
61.4415
59.038
56.5754
54.0574
51.488
48.8713
46.2119
43.5142
40.7825
38.0207
35.2323
32.4201
29.5857
26.7297
23.8513
20.9475
18.0136
15.0421
12.0229
8.94213
5.78259
2.53374
77.9781
76.4569
74.6384
72.6373
70.5666
68.4481
66.2681
64.0181
61.699
59.3152
56.8706
54.3685
51.8127
49.207
46.5556
43.8627
41.1325
38.3687
35.5747
32.7532
29.9057
27.0328
24.1336
21.2052
18.2427
15.2386
12.1825
9.0603
5.85465
2.55335
78.0667
76.5465
74.7403
72.7543
70.6972
68.5913
66.4235
64.1852
61.8772
59.5035
57.0679
54.5737
52.0243
49.4235
46.7755
44.0842
41.3537
38.5878
35.7897
32.9621
30.1065
27.2236
24.3122
21.3698
18.3911
15.3687
12.2917
9.14523
5.9093
2.55994
)
;

boundaryField
{
    inlet
    {
        type            zeroGradient;
    }
    outlet
    {
        type            fixedValue;
        value           uniform 0;
    }
    flap
    {
        type            zeroGradient;
    }
    upperWall
    {
        type            zeroGradient;
    }
    lowerWall
    {
        type            zeroGradient;
    }
    frontAndBack
    {
        type            empty;
    }
}


// ************************************************************************* //
