/*--------------------------------*- C++ -*----------------------------------*\
  =========                 |
  \\      /  F ield         | OpenFOAM: The Open Source CFD Toolbox
   \\    /   O peration     | Website:  https://openfoam.org
    \\  /    A nd           | Version:  dev
     \\/     M anipulation  |
\*---------------------------------------------------------------------------*/
FoamFile
{
    version     2.0;
    format      ascii;
    class       surfaceScalarField;
    location    "3.1";
    object      phi;
}
// * * * * * * * * * * * * * * * * * * * * * * * * * * * * * * * * * * * * * //

dimensions      [0 3 -1 0 0 0 0];

internalField   nonuniform List<scalar> 
5457
(
0.198418
0.0015824
0.19648
0.00193741
0.194192
0.00228815
0.191508
0.00268367
0.188427
0.0030813
0.18495
0.00347688
0.181071
0.00387869
0.176777
0.00429412
0.172049
0.00472831
0.166864
0.00518529
0.161195
0.00566854
0.155014
0.00618103
0.148289
0.00672491
0.140988
0.00730123
0.133079
0.00790934
0.124532
0.00854622
0.115327
0.00920561
0.10545
0.00987686
0.0949063
0.0105437
0.0837232
0.0111831
0.0719589
0.0117643
0.0597109
0.012248
0.0471225
0.0125884
0.0343825
0.01274
0.0216876
0.0126949
0.00903749
0.0126501
-0.00291604
0.0119535
-0.00847194
0.00555589
-0.00804285
-0.000429091
-0.00804285
0.199928
0.00165427
0.199176
0.00268991
0.197965
0.00349916
0.196331
0.00431694
0.194271
0.00514146
0.191781
0.00596707
0.188854
0.00680579
0.185477
0.0076711
0.181632
0.00857333
0.177296
0.00952078
0.172444
0.0105207
0.167046
0.0115794
0.161069
0.0127016
0.15448
0.0138901
0.147245
0.0151443
0.139333
0.0164591
0.130715
0.0178233
0.121375
0.0192167
0.111311
0.0206082
0.100541
0.0219526
0.0891169
0.0231884
0.0771296
0.0242353
0.0647239
0.0249941
0.0521166
0.0253473
0.0396564
0.0251552
0.0281062
0.0242002
0.0185956
0.0214642
0.00879762
0.0153538
0.00118371
0.00718482
-0.00685914
0.199781
0.00187373
0.199087
0.0033838
0.197946
0.00464017
0.196409
0.00585365
0.194483
0.00706771
0.192164
0.00828624
0.189446
0.00952335
0.18632
0.0107967
0.182772
0.0121213
0.178783
0.0135097
0.174331
0.0149729
0.16939
0.0165204
0.163932
0.0181602
0.157924
0.0198972
0.151336
0.0217324
0.144135
0.0236607
0.13629
0.0256685
0.127776
0.0277303
0.118579
0.0298047
0.108702
0.0318302
0.0981704
0.0337199
0.0870484
0.0353573
0.0754519
0.0365906
0.063575
0.0372243
0.0517332
0.036997
0.0403979
0.0355355
0.0297395
0.0321225
0.0191665
0.0259269
0.00959783
0.0167535
0.00273869
0.199703
0.00217069
0.199008
0.00407916
0.197887
0.00576077
0.196376
0.00736467
0.194488
0.00895594
0.192222
0.0105524
0.189574
0.0121712
0.186538
0.0138328
0.183103
0.0155559
0.179257
0.0173563
0.174982
0.019248
0.170259
0.0212431
0.165067
0.0233519
0.159383
0.0255813
0.153181
0.027934
0.146436
0.0304057
0.139122
0.0329826
0.131215
0.0356373
0.122696
0.0383236
0.113556
0.0409707
0.103799
0.0434764
0.0934571
0.0456995
0.0825961
0.0474516
0.0713336
0.0484869
0.0598417
0.0484888
0.0483177
0.0470595
0.0368116
0.0436286
0.0251883
0.0375502
0.0133358
0.028606
0.0160745
0.199667
0.00250331
0.198964
0.00478248
0.197863
0.00686218
0.196381
0.00884646
0.194532
0.0108048
0.192317
0.0127672
0.189733
0.0147551
0.186774
0.0167916
0.183433
0.0188977
0.179697
0.0210922
0.175554
0.023391
0.170989
0.0258083
0.165985
0.0283556
0.160525
0.0310415
0.154589
0.0338694
0.148159
0.0368361
0.141213
0.0399282
0.133732
0.0431185
0.125696
0.0463601
0.117087
0.0495797
0.107893
0.0526695
0.0981148
0.0554782
0.0877652
0.0578012
0.0768794
0.0593726
0.0655095
0.0598587
0.0537088
0.0588603
0.0414547
0.0558827
0.0285883
0.0504166
0.0148526
0.0423416
0.0309271
0.199653
0.00285054
0.198949
0.0054866
0.197871
0.00794021
0.196426
0.0102908
0.194626
0.012605
0.192473
0.0149208
0.189963
0.0172649
0.187092
0.0196626
0.183852
0.0221372
0.180235
0.0247096
0.176228
0.0273976
0.17182
0.030217
0.166995
0.0331805
0.161739
0.0362974
0.156036
0.0395722
0.14987
0.0430025
0.143222
0.0465762
0.136072
0.0502676
0.128401
0.0540321
0.120181
0.057799
0.111387
0.0614635
0.101989
0.0648766
0.0919551
0.067835
0.0812546
0.0700731
0.069855
0.0712583
0.0577178
0.0709975
0.0447615
0.068839
0.0308498
0.0643283
0.0158735
0.0573179
0.0468006
0.19965
0.00320052
0.198954
0.00618266
0.197904
0.00898994
0.196504
0.0116906
0.194762
0.0143474
0.19268
0.017003
0.190256
0.0196887
0.187486
0.0224324
0.184364
0.0252594
0.180881
0.0281926
0.177027
0.0312517
0.17279
0.0344537
0.168158
0.0378126
0.163116
0.041339
0.15765
0.0450384
0.151743
0.0489099
0.145375
0.0529435
0.138526
0.0571168
0.131168
0.06139
0.123268
0.0656994
0.114782
0.0699497
0.105654
0.0740039
0.095817
0.0776724
0.0851868
0.0807032
0.0736692
0.0827759
0.0611626
0.0835041
0.0475563
0.0824452
0.0327595
0.0791251
0.0167834
0.073294
0.063584
0.199655
0.00354591
0.198974
0.00686284
0.197959
0.0100058
0.19661
0.0130395
0.194933
0.0160236
0.192933
0.0190037
0.190606
0.022015
0.187951
0.0250878
0.184961
0.0282496
0.181629
0.0315249
0.177945
0.0349353
0.173899
0.0384992
0.16948
0.0422322
0.164672
0.0461464
0.159462
0.0502492
0.153829
0.0545421
0.147754
0.0590186
0.14121
0.0636613
0.134162
0.0684379
0.126566
0.0732957
0.118361
0.0781544
0.109469
0.0828961
0.0997867
0.0873545
0.0891881
0.0913019
0.0775263
0.0944376
0.0646489
0.0963816
0.050419
0.0966751
0.0347694
0.0947747
0.0177906
0.0902729
0.0813746
0.199664
0.00388177
0.199006
0.00752073
0.19803
0.0109822
0.196738
0.014331
0.195136
0.0176258
0.193226
0.0209138
0.191008
0.0242331
0.188479
0.0276166
0.185635
0.0310938
0.182469
0.0346908
0.178973
0.0384309
0.175138
0.0423343
0.170952
0.0464183
0.166402
0.0506969
0.161471
0.0551803
0.156139
0.0598734
0.150383
0.0647747
0.144171
0.0698739
0.13746
0.075149
0.130194
0.0805617
0.122297
0.0860515
0.113666
0.0915265
0.104168
0.0968522
0.0936348
0.101835
0.0818663
0.106206
0.0686515
0.109596
0.0538042
0.111522
0.0372385
0.11134
0.0190846
0.108427
0.100459
0.199677
0.00420459
0.199047
0.00815105
0.198115
0.0119136
0.196887
0.0155595
0.195366
0.0191469
0.193555
0.0227246
0.191455
0.0263332
0.189064
0.0300077
0.186378
0.0337793
0.183393
0.0376759
0.180102
0.0417224
0.176496
0.0459406
0.172564
0.0503501
0.168293
0.0549671
0.163669
0.0598052
0.158668
0.0648736
0.153266
0.0701772
0.147425
0.0757145
0.141098
0.0814762
0.134218
0.0874418
0.126694
0.093575
0.118404
0.0998166
0.109184
0.106073
0.0988206
0.112199
0.0870547
0.117972
0.0735929
0.123058
0.0581519
0.126963
0.040555
0.128937
0.0209032
0.128079
0.121362
0.199693
0.00451171
0.199094
0.00874953
0.198213
0.0127953
0.197053
0.0167193
0.195619
0.0205805
0.193915
0.0244287
0.191942
0.0283065
0.189699
0.0322509
0.187183
0.0362946
0.184392
0.0404672
0.18132
0.0447948
0.177959
0.0493014
0.174301
0.0540083
0.170333
0.0589346
0.166041
0.0640973
0.161404
0.069511
0.156394
0.0751874
0.150973
0.0811353
0.145089
0.0873598
0.138671
0.0938604
0.131617
0.100629
0.123788
0.107645
0.114996
0.114865
0.104984
0.12221
0.0934219
0.129534
0.0799023
0.136578
0.0639731
0.142893
0.0452397
0.147671
0.0236148
0.149704
0.144977
0.199711
0.00480107
0.199148
0.00931264
0.19832
0.0136231
0.197233
0.0178058
0.195893
0.0219209
0.194302
0.0260193
0.192464
0.0301453
0.190377
0.0343373
0.188042
0.0386297
0.185456
0.0430531
0.182616
0.0476352
0.179516
0.0524014
0.176149
0.0573752
0.172505
0.0625784
0.168571
0.0680315
0.164327
0.0737542
0.159749
0.0797658
0.154799
0.0860855
0.149425
0.0927332
0.143556
0.0997296
0.137088
0.107097
0.129876
0.114857
0.121715
0.123026
0.112316
0.13161
0.101277
0.140573
0.0880514
0.149803
0.0719308
0.159013
0.0520943
0.167507
0.0278912
0.173907
0.172868
0.19973
0.00507106
0.199205
0.00983752
0.198435
0.0143933
0.197426
0.0188147
0.196184
0.0231631
0.194712
0.0274908
0.193015
0.031843
0.191092
0.0362596
0.188946
0.040776
0.186575
0.0454238
0.183978
0.0502322
0.181152
0.0552277
0.178092
0.0604356
0.17479
0.0658799
0.171237
0.0715848
0.167417
0.0775745
0.163307
0.0838751
0.158877
0.0905156
0.154081
0.0975296
0.148852
0.104958
0.143097
0.112852
0.136677
0.121276
0.129392
0.130312
0.120944
0.140058
0.110888
0.150629
0.0985515
0.16214
0.0829129
0.174652
0.062449
0.187971
0.0351353
0.20122
0.208004
0.199751
0.0053204
0.199266
0.0103219
0.198557
0.0151028
0.197629
0.0197424
0.196489
0.0243033
0.195141
0.0288384
0.19359
0.0333942
0.191838
0.0380114
0.189888
0.0427264
0.18774
0.0475715
0.185396
0.0525767
0.182854
0.0577695
0.180113
0.0631766
0.177169
0.0688238
0.174016
0.0747379
0.170643
0.080947
0.167036
0.0874825
0.16317
0.0943812
0.159012
0.101688
0.15451
0.10946
0.149589
0.117773
0.144138
0.126727
0.137991
0.136459
0.130887
0.147162
0.122412
0.159104
0.111871
0.17268
0.0980346
0.188489
0.0785596
0.207446
0.0486853
0.231095
0.256689
0.199772
0.00554816
0.19933
0.0107639
0.198684
0.0157495
0.19784
0.0205862
0.196805
0.025338
0.195585
0.0300584
0.194185
0.0347947
0.192608
0.0395882
0.190859
0.0444756
0.18894
0.0494901
0.186855
0.0546617
0.184606
0.0600188
0.182194
0.0655887
0.179619
0.0713984
0.176881
0.0774761
0.173975
0.0838525
0.170895
0.0905624
0.167629
0.0976475
0.164157
0.10516
0.160451
0.113166
0.156467
0.121757
0.152139
0.131055
0.147368
0.141231
0.141994
0.152535
0.135756
0.165342
0.128183
0.180253
0.118336
0.198336
0.103961
0.22182
0.0777397
0.257316
0.334429
0.00472094
-0.00472094
0.00913174
-0.0044108
0.0128587
-0.00372696
0.0159511
-0.00309237
0.0185229
-0.00257184
0.0206785
-0.00215556
0.0225057
-0.00182724
0.0240777
-0.00157197
0.0254518
-0.00137415
0.0266697
-0.00121785
0.0277581
-0.00108845
0.0287328
-0.000974653
0.0296031
-0.000870373
0.0303768
-0.000773696
0.0310567
-0.000679824
0.0316281
-0.000571456
0.0320496
-0.000421434
0.0322713
-0.000221768
0.0322916
-2.03027e-05
0.0321349
0.000156743
0.0318912
0.000243689
0.0315951
0.000296129
0.0312785
0.000316589
0.031016
0.000262516
0.030883
0.000132925
0.0309517
-6.86405e-05
0.031267
-0.000315278
0.031816
-0.000549044
0.0325331
-0.000717094
-0.00071951
0.0040965
-0.00881744
0.00805984
-0.00837415
0.0114777
-0.00714482
0.0143729
-0.00598757
0.0168442
-0.00504315
0.0189804
-0.0042918
0.0208543
-0.00370105
0.0225245
-0.00324217
0.024037
-0.00288667
0.0254252
-0.00260611
0.0267108
-0.00237402
0.0279054
-0.00216922
0.0290157
-0.00198068
0.0300503
-0.00180831
0.0310217
-0.00165125
0.0319358
-0.00148553
0.0327721
-0.00125777
0.0334846
-0.000934248
0.0340298
-0.000565467
0.034448
-0.000261526
0.0347872
-9.54884e-05
0.0350711
1.225e-05
0.0353017
8.59758e-05
0.035539
2.52755e-05
0.0357945
-0.000122576
0.0360698
-0.000343984
0.0363615
-0.000606932
0.0366915
-0.00087911
0.0371015
-0.00112711
-0.00113925
0.00325991
-0.0120773
0.00634345
-0.0114577
0.00896485
-0.00976622
0.0111784
-0.00820113
0.0130666
-0.00693134
0.0146965
-0.0059217
0.0161236
-0.00512816
0.0173922
-0.00451072
0.0185366
-0.00403113
0.0195825
-0.00365197
0.0205457
-0.00333721
0.0214325
-0.00305609
0.0222435
-0.00279163
0.0229824
-0.00254723
0.0236664
-0.00233519
0.0243176
-0.00213672
0.0249293
-0.0018695
0.0254519
-0.00145683
0.025838
-0.000951639
0.0261337
-0.000557197
0.0263726
-0.000334361
0.0264834
-9.85503e-05
0.0264521
0.000117278
0.0262671
0.000210279
0.0260076
0.000136902
0.0256712
-7.57482e-06
0.0252443
-0.000180061
0.0247554
-0.000390221
0.0243
-0.000671655
-0.0010724
0.00236951
-0.0144469
0.00442486
-0.013513
0.00608029
-0.0114216
0.00745126
-0.0095721
0.00859644
-0.00807652
0.00955806
-0.00688332
0.0103725
-0.00594264
0.0110686
-0.00520676
0.0116692
-0.00463174
0.0121927
-0.00417547
0.0126516
-0.00379613
0.0130503
-0.00345478
0.0133822
-0.0031235
0.0136354
-0.00280048
0.0138177
-0.00251747
0.0139715
-0.00229052
0.0141339
-0.00203187
0.0142678
-0.00159074
0.014145
-0.000828815
0.0135262
6.16037e-05
0.0125205
0.000671324
0.0114699
0.000952003
0.0105036
0.00108357
0.00960235
0.00111157
0.00880722
0.000932034
0.00825168
0.000547964
0.00793908
0.000132534
0.00787669
-0.000327831
0.00806032
-0.000855285
-0.00142782
0.00135972
-0.0158066
0.00227157
-0.0144249
0.00286725
-0.0120173
0.00328767
-0.00999252
0.00356543
-0.00835428
0.00372325
-0.00704114
0.00378056
-0.00599995
0.00375359
-0.00517979
0.00365636
-0.00453451
0.00350148
-0.0040206
0.00330087
-0.00359552
0.003064
-0.0032179
0.00279053
-0.00285003
0.00245833
-0.00246829
0.00200904
-0.00206818
0.00136913
-0.00165061
0.000552189
-0.00121493
-0.000358045
-0.000680504
-0.00115921
-2.76491e-05
-0.00166477
0.000567162
-0.00202678
0.00103334
-0.00239685
0.00132207
-0.00276206
0.00144878
-0.00306251
0.00141202
-0.00327742
0.00114694
-0.00340821
0.00067875
-0.00340203
0.000126357
-0.00332782
-0.000402038
-0.0032019
-0.00098121
-0.00153405
0.000176718
-0.0159833
-0.00010557
-0.0141426
-0.000627446
-0.0114954
-0.00122704
-0.00939293
-0.00191498
-0.00766634
-0.00266461
-0.00629151
-0.0034624
-0.00520216
-0.00429702
-0.00434517
-0.00516049
-0.00367104
-0.00604491
-0.00313617
-0.00693834
-0.00270209
-0.00782293
-0.00233332
-0.00867517
-0.00199779
-0.00947307
-0.00167039
-0.0102057
-0.00133556
-0.0108719
-0.000984387
-0.0114788
-0.000608068
-0.0119815
-0.00017778
-0.0123013
0.000292139
-0.0124902
0.00075608
-0.0126109
0.00115405
-0.012697
0.00140813
-0.0127554
0.00150719
-0.0127787
0.00143535
-0.012794
0.00116227
-0.0128287
0.000713397
-0.0128771
0.000174749
-0.0128907
-0.000388426
-0.0128874
-0.000984539
-0.00153921
-0.00105283
-0.0149305
-0.00261366
-0.0125818
-0.00426312
-0.00984599
-0.00595157
-0.00770448
-0.00761127
-0.00600664
-0.00921669
-0.00468609
-0.0107464
-0.00367243
-0.0121822
-0.00290942
-0.0135107
-0.00234248
-0.0147254
-0.00192149
-0.0158249
-0.00160264
-0.0168103
-0.0013479
-0.0176833
-0.00112478
-0.018446
-0.000907655
-0.0191023
-0.000679301
-0.0196579
-0.000428751
-0.0201223
-0.000143692
-0.0204656
0.000165551
-0.0206813
0.000507821
-0.0207921
0.000866887
-0.0208195
0.00118145
-0.0208016
0.00139021
-0.0207603
0.00146585
-0.0207102
0.00138531
-0.0206784
0.0011304
-0.0206883
0.000723341
-0.0207357
0.000222144
-0.0207992
-0.00032491
-0.0208671
-0.000916691
-0.00143896
-0.00238452
-0.0125459
-0.00516133
-0.00980497
-0.00794097
-0.00706635
-0.0105871
-0.00505836
-0.0130174
-0.00357633
-0.0152021
-0.00250136
-0.0171397
-0.00173489
-0.0188405
-0.00120856
-0.0203246
-0.000858396
-0.0216153
-0.000630789
-0.0227355
-0.000482494
-0.0237041
-0.000379239
-0.0245359
-0.000292971
-0.025243
-0.000200596
-0.0258369
-8.54408e-05
-0.026325
5.94218e-05
-0.0267061
0.000237396
-0.026992
0.000451441
-0.0271856
0.000701411
-0.0272822
0.000963473
-0.0272966
0.00119586
-0.0272612
0.00135479
-0.0272038
0.00140846
-0.0271479
0.00132941
-0.0271189
0.00110142
-0.0271355
0.0007399
-0.027199
0.000285709
-0.0272947
-0.000229241
-0.0274229
-0.000788538
-0.00124435
-0.0038069
-0.00873905
-0.00778706
-0.00582481
-0.0115966
-0.00325681
-0.0150335
-0.0016215
-0.0180354
-0.000574402
-0.0205948
5.81108e-05
-0.0227266
0.000396904
-0.0244849
0.00054972
-0.0259417
0.00059843
-0.0271608
0.000588227
-0.0281916
0.000548361
-0.0290695
0.000498639
-0.0298176
0.000455146
-0.0304518
0.000433564
-0.0309843
0.000447111
-0.0314281
0.000503209
-0.0317925
0.00060175
-0.0320777
0.000736665
-0.0322754
0.000899084
-0.0323836
0.00107168
-0.0324164
0.00122871
-0.0324015
0.00133989
-0.0323676
0.00137452
-0.0323405
0.00130232
-0.0323432
0.00110414
-0.0323905
0.000787212
-0.0324851
0.000380245
-0.0326218
-9.24709e-05
-0.0328056
-0.000604751
-0.00100302
-0.00547204
-0.00326701
-0.0109697
-0.000327142
-0.015552
0.00132549
-0.0193097
0.00213622
-0.0223422
0.00245807
-0.0247906
0.00250651
-0.0267996
0.00240593
-0.0284785
0.00222859
-0.0298894
0.00200931
-0.031082
0.00178088
-0.0320977
0.001564
-0.0329664
0.00136734
-0.0337081
0.00119691
-0.0343385
0.00106399
-0.0348733
0.000981864
-0.0353261
0.000956029
-0.0357038
0.00097942
-0.0360046
0.00103752
-0.0362222
0.00111669
-0.0363567
0.00120617
-0.0364224
0.00129438
-0.0364454
0.00136295
-0.0364548
0.00138384
-0.0364758
0.0013234
-0.0365282
0.0011565
-0.0366227
0.000881713
-0.0367616
0.000519113
-0.036944
8.99849e-05
-0.037176
-0.000372747
-0.000723548
-0.00709204
0.00382503
-0.0132011
0.00578193
-0.0180048
0.00612914
-0.0218852
0.00601668
-0.0250363
0.00560913
-0.0275971
0.00506732
-0.0296878
0.00449665
-0.0314039
0.00394469
-0.0328243
0.0034297
-0.034013
0.00296962
-0.0350222
0.00257319
-0.035887
0.00223211
-0.0366267
0.00193657
-0.0372555
0.00169284
-0.0377912
0.00151757
-0.0382516
0.00141645
-0.0386459
0.0013737
-0.038971
0.00136258
-0.0392182
0.00136391
-0.0393866
0.00137452
-0.0394909
0.00139868
-0.0395587
0.00143075
-0.0396201
0.00144523
-0.0396995
0.00140287
-0.0398125
0.00126944
-0.0399648
0.00103402
-0.0401558
0.000710093
-0.0403852
0.000319451
-0.0406623
-9.57217e-05
-0.000404268
-0.00795588
0.0117809
-0.0147087
0.0125348
-0.0200857
0.0115061
-0.0242489
0.0101799
-0.0274893
0.0088495
-0.030038
0.00761604
-0.0320751
0.00653371
-0.0337303
0.00559987
-0.0350891
0.00478849
-0.0362202
0.00410069
-0.0371852
0.00353819
-0.0380229
0.00306991
-0.0387462
0.0026598
-0.0393619
0.00230859
-0.0398894
0.00204499
-0.0403534
0.00188054
-0.040767
0.00178728
-0.0411234
0.00171896
-0.041407
0.00164751
-0.0416124
0.00157991
-0.0417556
0.00154192
-0.0418689
0.001544
-0.0419855
0.00156183
-0.0421286
0.00154604
-0.0423083
0.00144906
-0.0425236
0.00124936
-0.0427709
0.000957436
-0.0430535
0.00060197
-0.043379
0.000229824
-4.19375e-05
-0.00933794
0.0211189
-0.017109
0.0203059
-0.0227587
0.0171558
-0.0268449
0.0142662
-0.0299083
0.0119128
-0.032243
0.00995075
-0.0340743
0.00836506
-0.0355657
0.00709119
-0.0367913
0.00601414
-0.0378085
0.00511786
-0.038691
0.00442073
-0.0394839
0.00386279
-0.0401829
0.00335884
-0.0407765
0.0029022
-0.041285
0.00255345
-0.0417476
0.00234312
-0.0421843
0.00222395
-0.042581
0.00211567
-0.0429081
0.00197467
-0.0431514
0.0018232
-0.0433297
0.00172016
-0.0434847
0.00169904
-0.0436566
0.0017337
-0.0438674
0.00175689
-0.0441202
0.0017018
-0.0444055
0.00153472
-0.0447146
0.00126652
-0.0450516
0.000938894
-0.0454292
0.000607504
0.000373915
-0.0118735
0.0329924
-0.0209805
0.0294128
-0.0264368
0.0226121
-0.0298526
0.0176819
-0.0323973
0.0144576
-0.0342835
0.011837
-0.0357296
0.00981119
-0.0369581
0.00831961
-0.0379961
0.00705222
-0.0388461
0.00596783
-0.0396076
0.00518227
-0.0403481
0.00460326
-0.0410284
0.00403914
-0.041595
0.00346878
-0.0420695
0.00302801
-0.0425223
0.00279593
-0.0429885
0.0026901
-0.0434396
0.0025668
-0.0438205
0.00235555
-0.0441008
0.00210351
-0.044305
0.00192435
-0.0444935
0.00188749
-0.0447184
0.00195864
-0.0450006
0.00203905
-0.045333
0.00203425
-0.0456945
0.00189622
-0.0460675
0.00163951
-0.0464558
0.00132724
-0.0468806
0.00103226
0.000843476
-0.016436
0.0494284
-0.0272463
0.0402231
-0.0317348
0.0271006
-0.0332858
0.0192329
-0.0349433
0.0161151
-0.03615
0.0130437
-0.0369901
0.0106512
-0.0378889
0.00921846
-0.0387515
0.00791481
-0.0393846
0.00660087
-0.0399702
0.00576789
-0.0406627
0.00529578
-0.0413523
0.00472876
-0.0418939
0.00401038
-0.0423085
0.00344262
-0.0427355
0.0032229
-0.0432424
0.00319695
-0.0437712
0.0030956
-0.044221
0.00280541
-0.0445342
0.0024167
-0.0447459
0.00213605
-0.0449509
0.00209248
-0.0452223
0.00223001
-0.0455768
0.00239354
-0.0459923
0.00244977
-0.0464311
0.00233503
-0.046863
0.00207138
-0.0472909
0.0017552
-0.0477486
0.00148996
0.0013493
0.207447
0.00576099
0.207034
0.0111766
0.206431
0.0163522
0.205647
0.0213709
0.204687
0.0262975
0.203559
0.0311863
0.202269
0.0360846
0.200823
0.0410344
0.199226
0.0460725
0.197484
0.051232
0.195603
0.0565432
0.193587
0.0620344
0.191443
0.0677329
0.189175
0.073666
0.186789
0.0798624
0.184288
0.0863533
0.181676
0.0931745
0.178954
0.100369
0.176123
0.107991
0.173181
0.116109
0.170124
0.124814
0.166948
0.134231
0.163648
0.144531
0.160226
0.155957
0.156705
0.168863
0.153182
0.183776
0.150025
0.201493
0.14892
0.222925
0.160691
0.245545
0.258621
0.236499
0.21249
0.00595348
0.212117
0.0115496
0.211574
0.016896
0.210867
0.0220771
0.210007
0.0271583
0.208999
0.0321942
0.207851
0.0372322
0.206571
0.0423141
0.205167
0.0474767
0.203646
0.0527528
0.202018
0.058172
0.20029
0.0637621
0.198473
0.0695498
0.196577
0.0755616
0.194615
0.081825
0.192598
0.0883701
0.190542
0.0952308
0.188463
0.102448
0.186384
0.11007
0.184333
0.11816
0.18235
0.126797
0.180497
0.136084
0.178872
0.146156
0.177649
0.157181
0.177149
0.169363
0.178029
0.182897
0.181707
0.197814
0.190795
0.213837
0.206303
0.230037
0.245479
0.219445
0.217658
0.00612349
0.217328
0.0118788
0.21685
0.0173749
0.21623
0.0226971
0.215477
0.0279111
0.2146
0.0330713
0.213607
0.0382249
0.212508
0.0434134
0.211312
0.0486728
0.210029
0.0540351
0.208672
0.059529
0.207253
0.0651811
0.205787
0.0710165
0.204288
0.0770597
0.202777
0.083336
0.201275
0.0898721
0.199809
0.0966976
0.19841
0.103847
0.19712
0.111359
0.195997
0.119283
0.195118
0.127676
0.194596
0.136606
0.194602
0.14615
0.195399
0.156384
0.197398
0.167363
0.20121
0.179084
0.207605
0.191419
0.217239
0.204203
0.229825
0.217452
0.228588
0.246716
0.222951
0.00626903
0.22267
0.0121602
0.222261
0.0177833
0.221735
0.0232237
0.221099
0.028547
0.220363
0.0338073
0.219536
0.0390511
0.218631
0.0443191
0.217657
0.0496462
0.216629
0.0550633
0.215561
0.0605974
0.214469
0.0662733
0.213371
0.0721137
0.212291
0.0781404
0.211252
0.0843748
0.210285
0.0908387
0.209427
0.0975554
0.208724
0.10455
0.208234
0.111849
0.208034
0.119484
0.208225
0.127484
0.20895
0.135882
0.210399
0.1447
0.212838
0.153945
0.216612
0.16359
0.22214
0.173557
0.229868
0.183691
0.240366
0.193705
0.254546
0.203271
0.210135
0.273
0.228374
0.00638823
0.228144
0.0123904
0.227811
0.0181161
0.227385
0.0236504
0.226873
0.0290582
0.226288
0.034393
0.225638
0.0397003
0.224938
0.0450195
0.2242
0.0503844
0.223439
0.0558238
0.222674
0.061363
0.221923
0.0670242
0.22121
0.0728271
0.22056
0.0787897
0.220006
0.0849288
0.219585
0.0912604
0.21934
0.0977995
0.219329
0.104561
0.219621
0.111558
0.220302
0.118802
0.221487
0.1263
0.22332
0.134049
0.225985
0.142035
0.229714
0.150216
0.234784
0.158519
0.241525
0.166816
0.250313
0.174903
0.261592
0.182426
0.275833
0.18903
0.193631
0.292337
0.233929
0.00647941
0.233754
0.0125661
0.233501
0.0183686
0.23318
0.023971
0.232801
0.0294375
0.232374
0.0348201
0.231911
0.0401633
0.231426
0.0455049
0.230933
0.0508768
0.230451
0.0563059
0.229999
0.0618151
0.2296
0.0674234
0.22928
0.0731473
0.229069
0.0790005
0.229003
0.0849944
0.229125
0.0911384
0.229485
0.0974394
0.230145
0.103901
0.231178
0.110525
0.232676
0.117304
0.234751
0.124225
0.237537
0.131262
0.2412
0.138372
0.245931
0.145486
0.251948
0.152501
0.259495
0.159269
0.268811
0.165587
0.280075
0.171163
0.293378
0.175727
0.178767
0.308242
0.23962
0.00654108
0.239501
0.0126843
0.239333
0.0185366
0.239124
0.0241805
0.238883
0.0296786
0.238621
0.0350817
0.238352
0.0404326
0.238089
0.0457672
0.237851
0.0511155
0.237655
0.0565019
0.237523
0.0619465
0.237481
0.0674653
0.237558
0.073071
0.237786
0.0787726
0.238204
0.0845763
0.238857
0.0904848
0.2398
0.0964971
0.241094
0.102608
0.242813
0.108805
0.245046
0.115071
0.247896
0.121376
0.251481
0.127677
0.255937
0.133917
0.261412
0.140011
0.268063
0.14585
0.276039
0.151294
0.285458
0.156167
0.296366
0.160255
0.30875
0.163343
0.165166
0.322351
0.245448
0.00657198
0.24539
0.0127428
0.24531
0.0186168
0.245216
0.0242745
0.245118
0.0297767
0.245027
0.0351724
0.244957
0.0405025
0.244923
0.0458009
0.244944
0.0510951
0.245038
0.0564072
0.24523
0.0617543
0.245547
0.0671491
0.246017
0.0726003
0.246677
0.0781128
0.247566
0.0836873
0.24873
0.0893206
0.250223
0.0950046
0.252104
0.100726
0.254445
0.106464
0.257324
0.112191
0.260831
0.117869
0.265064
0.123445
0.270127
0.128853
0.276126
0.134011
0.283161
0.138815
0.291313
0.143142
0.300627
0.146853
0.311092
0.14979
0.322641
0.151794
0.152736
0.33507
0.251418
0.00657108
0.251421
0.0127395
0.251432
0.0186064
0.251457
0.0242496
0.251505
0.0297279
0.25159
0.0350882
0.251723
0.0403692
0.251921
0.0456026
0.252203
0.0508133
0.252589
0.0560209
0.253104
0.0612396
0.253775
0.0664786
0.254632
0.0717432
0.25571
0.077034
0.25705
0.0823472
0.258697
0.0876745
0.260699
0.0930021
0.263115
0.0983106
0.266005
0.103574
0.26944
0.108757
0.273491
0.113818
0.278234
0.118701
0.283745
0.123342
0.290093
0.127663
0.297334
0.131574
0.305502
0.134975
0.314598
0.137757
0.324576
0.139812
0.335338
0.141033
0.141362
0.346712
0.257532
0.00653764
0.257599
0.012673
0.257702
0.0185034
0.257848
0.0241036
0.258046
0.0295299
0.258307
0.0348269
0.258645
0.040031
0.259077
0.0451713
0.259619
0.0502705
0.260295
0.0553453
0.261127
0.0604071
0.262144
0.0654622
0.263375
0.0705124
0.264854
0.0755548
0.266619
0.0805818
0.268713
0.0855809
0.27118
0.0905345
0.274072
0.0954192
0.27744
0.100205
0.281341
0.104856
0.285832
0.109327
0.290966
0.113567
0.296795
0.117514
0.303356
0.121101
0.310676
0.124255
0.318755
0.126896
0.327566
0.128946
0.337045
0.130332
0.347089
0.13099
0.130897
0.357554
0.263794
0.00647118
0.263925
0.0125425
0.264121
0.0183068
0.26439
0.0238353
0.264738
0.0291817
0.265177
0.034388
0.26572
0.039488
0.266382
0.0445086
0.267183
0.0494699
0.268142
0.0543859
0.269284
0.0592655
0.270634
0.0641123
0.272221
0.0689251
0.274078
0.0736981
0.276239
0.078421
0.278741
0.0830784
0.281626
0.0876501
0.284934
0.0921109
0.28871
0.0964298
0.292995
0.10057
0.297832
0.104491
0.303256
0.108143
0.309296
0.111474
0.315969
0.114428
0.323276
0.116947
0.331199
0.118973
0.339695
0.12045
0.348694
0.121334
0.358097
0.121586
0.121208
0.367786
0.270207
0.00637153
0.270402
0.0123476
0.270692
0.0180161
0.271083
0.0234446
0.271581
0.0286836
0.272197
0.0337725
0.272942
0.0387426
0.273832
0.0436183
0.274885
0.0484173
0.27612
0.0531512
0.277559
0.0578265
0.279226
0.0624445
0.28115
0.0670018
0.283357
0.0714904
0.28588
0.0758979
0.288751
0.0802075
0.292004
0.0843978
0.295671
0.0884433
0.299787
0.0923138
0.304383
0.095975
0.309485
0.0993887
0.315114
0.102514
0.321282
0.105306
0.32799
0.107721
0.335223
0.109714
0.342952
0.111244
0.351125
0.112277
0.359675
0.112784
0.368512
0.112749
0.112184
0.377536
0.276774
0.00623879
0.277033
0.0120886
0.277417
0.017632
0.277929
0.0229324
0.278575
0.0280373
0.279364
0.0329832
0.280308
0.0377989
0.28142
0.0425064
0.282716
0.047121
0.284215
0.0516523
0.285937
0.0561047
0.287904
0.0604776
0.29014
0.0647659
0.29267
0.0689603
0.295521
0.0730472
0.298719
0.0770094
0.302291
0.0808257
0.306263
0.0844713
0.310658
0.0879182
0.315498
0.0911357
0.320796
0.0940906
0.326561
0.0967483
0.332793
0.0990738
0.339481
0.101033
0.3466
0.102594
0.354115
0.10373
0.361973
0.104418
0.37011
0.104647
0.378448
0.104412
0.103729
0.386902
0.283498
0.00607333
0.28382
0.0117663
0.284297
0.0171557
0.284928
0.0223009
0.28572
0.0272458
0.286678
0.0320244
0.287815
0.0366629
0.28914
0.0411807
0.29067
0.0455913
0.29242
0.0499024
0.294408
0.0541166
0.296653
0.058232
0.299177
0.0622424
0.302
0.0661377
0.305143
0.0699042
0.308627
0.0735249
0.312473
0.0769796
0.316699
0.0802456
0.321319
0.0832978
0.326345
0.0861097
0.331782
0.0886536
0.337629
0.0909016
0.343876
0.0928269
0.350504
0.0944045
0.357485
0.0956131
0.364779
0.0964356
0.372336
0.0968612
0.380097
0.0968862
0.387995
0.0965139
0.0957648
0.39596
0.290384
0.00587578
0.290768
0.0113819
0.291335
0.0165893
0.292083
0.0215529
0.293015
0.0263134
0.294138
0.0309017
0.295459
0.0353417
0.296989
0.0396508
0.29874
0.0438403
0.300726
0.0479164
0.302962
0.0518805
0.305464
0.0557297
0.30825
0.0594572
0.311334
0.0630529
0.314735
0.0665033
0.318468
0.0697926
0.322545
0.0729022
0.326978
0.0758121
0.331776
0.0785006
0.33694
0.0809456
0.342469
0.0831246
0.348354
0.0850164
0.35458
0.0866011
0.361122
0.0878616
0.367951
0.0887845
0.375026
0.0893607
0.3823
0.0895868
0.389721
0.0894652
0.397231
0.089004
0.0882245
0.404772
0.297435
0.00564703
0.297879
0.0109372
0.298533
0.0159355
0.299394
0.0206923
0.300462
0.025245
0.301742
0.0296218
0.30324
0.0338442
0.304963
0.0379273
0.306922
0.0418811
0.309128
0.0457103
0.311593
0.0494155
0.31433
0.0529931
0.317351
0.0564363
0.320668
0.0597353
0.324294
0.0628776
0.328238
0.0658487
0.332508
0.0686325
0.337108
0.0712115
0.342041
0.0735678
0.347303
0.0756835
0.352886
0.0775414
0.358777
0.0791256
0.364956
0.0804224
0.371397
0.081421
0.378067
0.0821139
0.38493
0.0824981
0.391942
0.082575
0.399056
0.0823509
0.406223
0.0818367
0.081053
0.413395
0.304654
0.00538811
0.305157
0.0104342
0.305895
0.0151974
0.306864
0.0197236
0.308062
0.0240467
0.309492
0.0281924
0.311156
0.0321796
0.313061
0.036022
0.315215
0.0397278
0.317624
0.0433008
0.320299
0.046741
0.323247
0.0500446
0.326478
0.053205
0.330001
0.0562131
0.33382
0.0590578
0.337943
0.0617262
0.342371
0.0642047
0.347104
0.0664787
0.352137
0.0685339
0.357465
0.0703563
0.363073
0.0719332
0.368945
0.0732535
0.375059
0.0743084
0.381388
0.0750919
0.3879
0.0756013
0.394561
0.0758374
0.401331
0.075805
0.408169
0.0755127
0.415034
0.0749725
0.0742039
0.421883
0.312046
0.00510026
0.312605
0.00987541
0.313424
0.0143788
0.314495
0.0186517
0.315817
0.022725
0.317388
0.0266215
0.319209
0.0303583
0.321284
0.033947
0.323617
0.0373948
0.326213
0.0407047
0.329078
0.0438762
0.332217
0.0469058
0.335635
0.0497872
0.339335
0.0525124
0.343321
0.0550717
0.347593
0.0574543
0.352149
0.0596488
0.356984
0.0616435
0.362091
0.0634273
0.367458
0.0649898
0.373069
0.0663222
0.378905
0.0674172
0.384943
0.06827
0.391157
0.0688781
0.397516
0.0692423
0.403988
0.069366
0.410537
0.069256
0.417127
0.068922
0.423723
0.0683763
0.067637
0.43029
0.319615
0.00478478
0.320227
0.00926338
0.321122
0.0134835
0.322292
0.0174821
0.32373
0.0212868
0.325434
0.0249179
0.327402
0.0283905
0.329634
0.0317146
0.332132
0.0348964
0.334899
0.0379383
0.337935
0.0408396
0.341244
0.0435971
0.344826
0.0462052
0.348682
0.048657
0.352809
0.0509443
0.357205
0.0530583
0.361864
0.0549898
0.366777
0.0567299
0.371935
0.0582702
0.377321
0.0596035
0.382919
0.060724
0.388709
0.0616276
0.394666
0.0623124
0.400766
0.0627787
0.406979
0.0630293
0.413275
0.0630696
0.419624
0.0629072
0.425994
0.0625523
0.432353
0.0620169
0.0613173
0.438673
0.327365
0.00444303
0.328028
0.0086008
0.328996
0.0125155
0.330257
0.0162202
0.331805
0.0197391
0.333633
0.0230903
0.335737
0.0262866
0.338114
0.029337
0.340764
0.0322465
0.343685
0.0350173
0.346877
0.0376484
0.350336
0.0401371
0.354063
0.0424788
0.358052
0.0446676
0.3623
0.0466968
0.366799
0.0485594
0.37154
0.0502484
0.376513
0.051757
0.381704
0.0530796
0.387096
0.0542112
0.392671
0.0551487
0.398408
0.0558903
0.404285