/*--------------------------------*- C++ -*----------------------------------*\
  =========                 |
  \\      /  F ield         | OpenFOAM: The Open Source CFD Toolbox
   \\    /   O peration     | Website:  https://openfoam.org
    \\  /    A nd           | Version:  dev
     \\/     M anipulation  |
\*---------------------------------------------------------------------------*/
FoamFile
{
    version     2.0;
    format      ascii;
    class       volScalarField;
    location    "2.7";
    object      p;
}
// * * * * * * * * * * * * * * * * * * * * * * * * * * * * * * * * * * * * * //

dimensions      [0 2 -2 0 0 0 0];

internalField   nonuniform List<scalar> 
2790
(
147.999
147.907
148.174
148.745
149.525
150.483
151.615
152.922
154.399
156.04
157.839
159.79
161.884
164.109
166.45
168.885
171.389
173.928
176.459
178.933
181.291
183.468
185.399
187.019
188.278
189.152
189.588
189.643
189.694
189.907
147.796
147.814
148.106
148.675
149.451
150.405
151.533
152.834
154.304
155.936
157.726
159.667
161.75
163.964
166.293
168.719
171.214
173.748
176.277
178.755
181.123
183.318
185.272
186.92
188.204
189.079
189.475
189.53
189.662
189.947
147.598
147.685
147.997
148.555
149.318
150.26
151.373
152.655
154.103
155.711
157.474
159.383
161.431
163.606
165.895
168.277
170.728
173.219
175.711
178.158
180.507
182.699
184.672
186.361
187.711
188.687
189.28
189.635
189.95
190.249
147.373
147.491
147.815
148.364
149.113
150.038
151.132
152.39
153.809
155.384
157.108
158.973
160.972
163.093
165.321
167.638
170.023
172.446
174.873
177.263
179.569
181.741
183.722
185.462
186.916
188.067
188.935
189.606
190.159
190.678
147.112
147.244
147.577
148.119
148.851
149.755
150.823
152.05
153.432
154.963
156.638
158.447
160.383
162.433
164.585
166.821
169.119
171.454
173.795
176.108
178.352
180.487
182.469
184.259
185.829
187.172
188.302
189.264
190.075
190.821
146.811
146.949
147.284
147.816
148.528
149.406
150.442
151.632
152.969
154.449
156.064
157.807
159.668
161.636
163.697
165.835
168.03
170.259
172.495
174.711
176.873
178.95
180.911
182.732
184.395
185.896
187.242
188.447
189.467
190.385
146.468
146.607
146.939
147.458
148.147
148.995
149.995
151.14
152.426
153.846
155.394
157.059
158.835
160.707
162.664
164.69
166.766
168.872
170.984
173.08
175.135
177.126
179.033
180.843
182.548
184.148
185.642
187.021
188.185
189.232
146.084
146.221
146.545
147.048
147.711
148.525
149.483
150.579
151.806
153.16
154.63
156.21
157.889
159.655
161.495
163.394
165.335
167.299
169.267
171.218
173.135
175.002
176.809
178.551
180.229
181.848
183.402
184.874
186.124
187.274
145.657
145.791
146.104
146.587
147.222
147.998
148.91
149.951
151.114
152.393
153.78
155.264
156.837
158.485
160.196
161.954
163.744
165.547
167.346
169.125
170.868
172.566
174.213
175.813
177.375
178.909
180.417
181.887
183.158
184.396
145.191
145.319
145.619
146.08
146.683
147.418
148.279
149.26
150.354
151.553
152.848
154.229
155.686
157.207
158.777
160.38
162.002
163.624
165.23
166.804
168.332
169.806
171.223
172.591
173.923
175.241
176.561
177.899
179.099
180.403
144.685
144.807
145.092
145.528
146.096
146.787
147.594
148.511
149.53
150.643
151.841
153.112
154.446
155.829
157.247
158.683
160.12
161.542
162.928
164.263
165.53
166.72
167.827
168.855
169.818
170.746
171.676
172.674
173.636
174.954
144.143
144.257
144.526
144.934
145.466
146.109
146.859
147.709
148.649
149.672
150.766
151.921
153.124
154.362
155.617
156.874
158.113
159.314
160.456
161.518
162.48
163.322
164.03
164.595
165.021
165.33
165.572
165.879
166.26
167.433
143.566
143.673
143.923
144.302
144.794
145.389
146.079
146.857
147.715
148.643
149.63
150.664
151.731
152.815
153.901
154.968
155.995
156.959
157.835
158.594
159.207
159.642
159.864
159.838
159.535
158.936
158.06
157.067
156.117
156.62
142.956
143.055
143.285
143.635
144.086
144.629
145.257
145.962
146.735
147.565
148.441
149.35
150.276
151.202
152.111
152.981
153.787
154.501
155.093
155.525
155.755
155.733
155.395
154.663
153.44
151.61
149.045
145.741
141.789
139.749
142.317
142.407
142.617
142.935
143.344
143.834
144.398
145.028
145.714
146.444
147.207
147.987
148.769
149.535
150.263
150.93
151.508
151.965
152.262
152.353
152.181
151.671
150.727
149.212
146.934
143.602
138.758
131.738
121.268
109.028
2.82161
2.78817
2.67672
2.51962
2.34827
2.17738
2.01201
1.85393
1.7038
1.56171
1.42753
1.30107
1.18214
1.07064
0.967431
0.875367
0.798889
0.740778
0.698721
0.668641
0.647447
0.633367
0.62234
0.605871
0.575337
0.524698
0.451599
0.355175
0.235191
0.095315
2.73681
2.69817
2.59405
2.44949
2.29062
2.13033
1.97368
1.8227
1.67823
1.54055
1.40979
1.28603
1.16913
1.05879
0.955633
0.862988
0.786566
0.73042
0.692404
0.665288
0.645874
0.63335
0.624572
0.610227
0.581599
0.531425
0.457844
0.360268
0.237942
0.0920087
2.6512
2.60565
2.50597
2.3722
2.22565
2.07639
1.9291
1.78591
1.64775
1.51504
1.38821
1.26768
1.15346
1.04487
0.942048
0.849034
0.773551
0.720168
0.681853
0.651797
0.63669
0.631223
0.629425
0.619835
0.592232
0.542062
0.468763
0.370416
0.245738
0.0929865
2.57785
2.52553
2.42835
2.30254
2.16616
2.02639
1.88741
1.7513
1.61894
1.49086
1.3677
1.25035
1.13921
1.03322
0.930652
0.834434
0.756451
0.711258
0.686186
0.66091
0.638883
0.631845
0.631419
0.623727
0.597588
0.546415
0.469915
0.37116
0.244753
0.090669
2.54138
2.48225
2.38744
2.26642
2.13627
2.00218
1.86822
1.73639
1.6076
1.48235
1.36134
1.24563
1.13635
1.03368
0.936812
0.848137
0.772275
0.714396
0.680912
0.661761
0.646344
0.640568
0.638877
0.629569
0.601986
0.549725
0.472449
0.368929
0.24029
0.0856212
2.56061
2.49179
2.39774
2.27619
2.14582
2.01141
1.87726
1.7455
1.61714
1.4927
1.37265
1.25774
1.14878
1.04632
0.951132
0.86569
0.793849
0.738907
0.701257
0.675996
0.659152
0.650296
0.643802
0.629725
0.598444
0.543607
0.463404
0.359257
0.230175
0.0790382
2.64078
2.56241
2.45963
2.33025
2.19144
2.0498
1.90966
1.7732
1.64144
1.51492
1.39394
1.27897
1.1705
1.06881
0.974182
0.888685
0.816929
0.761748
0.721712
0.693084
0.672922
0.659082
0.646166
0.625845
0.589741
0.531825
0.449691
0.344088
0.215884
0.0723749
2.7763
2.67931
2.55687
2.41007
2.25533
2.10032
1.94971
1.8056
1.6686
1.53881
1.41599
1.30003
1.19132
1.09004
0.996964
0.913762
0.842838
0.786188
0.742995
0.710518
0.685964
0.666318
0.646456
0.619348
0.577817
0.516281
0.431949
0.32513
0.198939
0.0657085
2.93327
2.80739
2.65531
2.48502
2.31233
2.14387
1.98266
1.8307
1.68853
1.55565
1.43164
1.31605
1.20847
1.10888
1.01784
0.936575
0.866549
0.808811
0.762803
0.726524
0.697325
0.671819
0.645171
0.611383
0.564372
0.499041
0.412288
0.304221
0.180917
0.0590483
3.06195
2.90401
2.72862
2.53581
2.3448
2.16426
1.99656
1.84123
1.69743
1.56417
1.44051
1.3259
1.22002
1.12278
1.03436
0.955292
0.886297
0.827894
0.779681
0.740121
0.706684
0.675836
0.642999
0.603006
0.550762
0.48164
0.392215
0.282773
0.162806
0.0524886
3.15106
2.96176
2.75932
2.5494
2.34699
2.1589
1.98727
1.83115
1.68878
1.55822
1.43768
1.32617
1.22351
1.12982
1.04497
0.968769
0.901263
0.842711
0.792979
0.750921
0.714094
0.678823
0.640666
0.595124
0.538022
0.465189
0.372775
0.261732
0.145094
0.0461026
3.16353
2.94176
2.71444
2.49251
2.28965
2.10723
1.94309
1.79446
1.65951
1.53619
1.42207
1.31586
1.21797
1.12917
1.04913
0.976744
0.911339
0.853146
0.802556
0.758925
0.719848
0.681354
0.638909
0.5885
0.526833
0.450302
0.354875
0.241875
0.128062
0.0399351
3.0095
2.75195
2.53538
2.33806
2.16144
2.00421
1.86185
1.73023
1.60932
1.49847
1.39442
1.29546
1.20347
1.12082
1.04708
0.979699
0.917002
0.859488
0.808546
0.764312
0.724352
0.684064
0.638458
0.583819
0.517773
0.43749
0.338945
0.223613
0.111871
0.0340065
2.58705
2.3068
2.17806
2.07317
1.95991
1.85212
1.74858
1.64286
1.54108
1.44776
1.35753
1.26693
1.18083
1.10525
1.03969
0.978828
0.919293
0.862346
0.81123
0.767354
0.728121
0.687716
0.640131
0.58175
0.511277
0.42703
0.325227
0.207334
0.0967768
0.0283044
1.73324
1.44506
1.58391
1.71284
1.70048
1.66465
1.61846
1.54263
1.45899
1.38786
1.31622
1.23368
1.1512
1.08283
1.02815
0.97594
0.919638
0.862347
0.810682
0.768084
0.73154
0.693045
0.644716
0.582849
0.507569
0.418906
0.313758
0.193325
0.0831365
0.0228672
141.638
141.719
141.907
142.192
142.557
142.992
143.491
144.043
144.638
145.265
145.911
146.559
147.193
147.794
148.337
148.796
149.141
149.333
149.328
149.069
148.483
147.476
145.913
143.601
140.24
135.335
127.964
116.21
94.0326
34.1445
140.91
140.982
141.148
141.398
141.717
142.095
142.525
142.996
143.498
144.019
144.543
145.056
145.539
145.969
146.323
146.57
146.677
146.602
146.292
145.684
144.692
143.204
141.06
138.03
133.756
127.653
118.69
105.132
85.6219
57.2163
140.141
140.202
140.345
140.559
140.83
141.15
141.509
141.897
142.304
142.716
143.118
143.493
143.822
144.081
144.244
144.281
144.152
143.814
143.209
142.268
140.9
138.983
136.353
132.781
127.942
121.381
112.512
100.699
86.5046
69.9699
139.33
139.381
139.5
139.677
139.9
140.16
140.446
140.751
141.061
141.363
141.641
141.879
142.054
142.144
142.12
141.949
141.593
141.004
140.123
138.879
137.181
134.91
131.916
128.003
122.924
116.388
108.101
97.7331
85.228
70.152
138.48
138.521
138.615
138.755
138.929
139.127
139.342
139.561
139.774
139.967
140.123
140.224
140.248
140.172
139.967
139.598
139.027
138.205
137.075
135.567
133.596
131.054
127.814
123.719
118.591
112.23
104.437
94.9731
83.6714
70.7402
137.593
137.623
137.693
137.795
137.919
138.057
138.199
138.334
138.451
138.535
138.57
138.538
138.416
138.181
137.802
137.248
136.479
135.448
134.1
132.372
130.186
127.452
124.064
119.904
114.843
108.746
101.492
92.9821
83.2093
72.5867
136.671
136.691
136.736
136.801
136.876
136.953
137.022
137.075
137.097
137.075
136.993
136.832
136.57
136.184
135.644
134.92
133.972
132.758
131.228
129.324
126.98
124.123
120.67
116.534
111.63
105.878
99.2248
91.6601
83.2281
74.2639
135.719
135.728
135.749
135.776
135.802
135.819
135.819
135.789
135.72
135.596
135.401
135.117
134.724
134.197
133.51
132.631
131.527
130.158
128.48
126.443
123.993
121.072
117.619
113.576
108.888
103.518
97.4496
90.7055
83.3351
75.6097
134.739
134.738
134.735
134.725
134.703
134.662
134.593
134.485
134.327
134.105
133.803
133.404
132.888
132.233
131.413
130.4
129.162
127.666
125.873
123.742
121.231
118.295
114.892
110.985
106.544
101.556
96.0255
89.9875
83.4956
76.7766
133.735
133.724
133.698
133.652
133.584
133.487
133.351
133.168
132.926
132.611
132.209
131.704
131.076
130.305
129.367
128.238
126.89
125.293
123.416
121.226
118.691
115.779
112.462
108.718
104.535
99.9133
94.8716
89.4486
83.6974
77.8022
132.713
132.692
132.643
132.563
132.45
132.299
132.1
131.846
131.524
131.123
130.629
130.026
129.298
128.424
127.386
126.159
124.722
123.049
121.116
118.896
116.367
113.506
110.298
106.731
102.805
98.5295
93.9272
89.0378
83.909
78.6888
131.676
131.647
131.576
131.463
131.308
131.105
130.847
130.526
130.13
129.65
129.072
128.381
127.563
126.601
125.477
124.171
122.665
120.939
118.972
116.747
114.247
111.458
108.373
104.989
101.311
97.3542
93.1433
88.7148
84.1103
79.4486
130.631
130.593
130.501
130.358
130.162
129.912
129.598
129.215
128.752
128.199
127.545
126.777
125.881
124.844
123.649
122.281
120.724
118.963
116.984
114.772
112.319
109.616
106.661
103.457
100.013
96.3472
92.4828
88.4525
84.2918
80.0969
129.584
129.537
129.426
129.253
129.021
128.725
128.361
127.921
127.396
126.778
126.057
125.221
124.259
123.159
121.908
120.493
118.902
117.123
115.146
112.963
110.568
107.958
105.135
102.105
98.8804
95.4771
91.9183
88.2323
84.4493
80.6469
128.539
128.484
128.356
128.156
127.889
127.553
127.142
126.65
126.071
125.395
124.615
123.722
122.704
121.553
120.258
118.809
117.198
115.415
113.454
111.31
108.981
106.468
103.775
100.91
97.8861
94.7188
91.4291
88.0413
84.5808
81.1108
127.504
127.442
127.297
127.073
126.775
126.401
125.949
125.411
124.783
124.057
123.227
122.284
121.221
120.03
118.703
117.232
115.611
113.835
111.899
109.803
107.545
105.129
102.561
99.8506
97.0093
94.0529
90.9997
87.8704
84.6864
81.4993
126.485
126.417
126.257
126.011
125.684
125.277
124.787
124.209
123.538
122.77
121.897
120.914
119.815
118.594
117.244
115.761
114.141
112.38
110.477
108.431
106.246
103.925
101.476
98.9082
96.2328
93.4642
90.6186
87.7137
84.7674
81.8222
125.49
125.416
125.243
124.976
124.624
124.188
123.665
123.052
122.345
121.539
120.632
119.617
118.49
117.247
115.883
114.397
112.784
111.045
109.178
107.187
105.074
102.845
100.507
98.0689
95.5427
92.9408
90.2773
87.5673
84.8259
82.0882
124.525
124.446
124.261
123.977
123.602
123.141
122.589
121.946
121.208
120.372
119.436
118.396
117.248
115.991
114.621
113.137
111.538
109.824
107.997
106.06
104.018
101.875
99.6396
97.3205
94.9281
92.4737
89.9697
87.4289
84.8644
82.305
123.598
123.514
123.319
123.019
122.625
122.141
121.566
120.897
120.133
119.273
118.314
117.255
116.093
114.827
113.457
111.98
110.399
108.714
106.928
105.045
103.069
101.007
98.8656
96.6536
94.3804
92.056
89.6914
87.2976
84.8857
82.4798
122.716
122.629
122.424
122.111
121.701
121.198
120.601
119.911
119.127
118.247
117.271
116.198
115.028
113.758
112.391
110.926
109.365
107.71
105.965
104.133
102.22
100.233
98.1765
96.0604
93.8927
91.6826
89.4394
87.173
84.8928
82.6188
121.887
121.797
121.584
121.259
120.835
120.316
119.703
118.996
118.195
117.3
116.311
115.229
114.053
112.785
111.424
109.973
108.434
106.809
105.103
103.32
101.466
99.5454
97.566
95.5351
93.4603
91.3499
89.2122
87.0558
84.8888
82.728
121.12
121.026
120.807
120.472
120.036
119.504
118.877
118.156
117.341
116.435
115.438
114.35
113.173
111.907
110.556
109.12
107.603
106.008
104.339
102.601
100.8
98.9401
97.0289
95.0729
93.0792
91.0553
89.0086
86.9466
84.8765
82.8123
120.423
120.326
120.101
119.757
119.311
118.767
118.129
117.397
116.573
115.659
114.656
113.565
112.389
111.129
109.787
108.367
106.872
105.305
103.671
101.974
100.22
98.4137
96.5621
94.6713
92.7477
90.7982
88.8293
86.8477
84.8599
82.8777
119.803
119.704
119.473
119.122
118.667
118.114
117.467
116.727
115.895
114.975
113.968
112.877
111.703
110.449
109.119
107.714
106.239
104.698
103.095
101.434
99.7214
97.9622
96.1621
94.327
92.4631
90.5764
88.6731
86.7591
84.8402
82.9262
119.271
119.169
118.932
118.574
118.111
117.552
116.898
116.151
115.314
114.39
113.382
112.291
111.121
109.874
108.554
107.164
105.708
104.189
102.613
100.984
99.3066
97.587
95.8302
94.0419
92.2278
90.3934
88.5444
86.6863
84.8244
82.9671
118.835
118.73
118.486
118.12
117.651
117.085
116.425
115.674
114.833
113.907
112.898
111.809
110.643
109.403
108.092
106.714
105.274
103.775
102.221
100.618
98.9704
97.2831
95.5615
93.8109
92.0366
90.244
88.4382
86.6244
84.8073
82.9939
118.509
118.398
118.145
117.772
117.298
116.728
116.064
115.309
114.466
113.538
112.529
111.442
110.279
109.045
107.742
106.375
104.948
103.464
101.929
100.347
98.7221
97.0602
95.3661
93.6449
91.9017
90.1415
88.3692
86.5898
84.8079
83.0295
118.307
118.172
117.902
117.524
117.047
116.474
115.808
115.051
114.207
113.279
112.271
111.186
110.026
108.797
107.5
106.141
104.723
103.25
101.727
100.159
98.5501
96.9053
95.2296
93.5279
91.8052
90.0662
88.3158
86.5585
84.7988
83.0415
118.289
118.09
117.791
117.406
116.927
116.351
115.682
114.923
114.078
113.15
112.143
111.059
109.903
108.677
107.385
106.031
104.619
103.154
101.64
100.081
98.4828
96.8491
95.1852
93.4959
91.786
90.0602
88.3233
86.5796
84.8334
83.0892
-50.0435
-29.8972
-10.3906
36.9772
29.7725
18.2191
52.624
40.6749
29.6434
53.9623
43.6035
35.6332
58.2497
50.0114
43.3042
62.6024
55.7314
49.874
65.8375
59.9823
54.9553
68.3972
63.3905
59.0959
70.5539
66.2341
62.5348
72.3733
68.6029
65.3819
73.9019
70.577
67.7436
75.1889
72.2296
69.7129
76.2744
73.618
71.3623
77.1902
74.7872
72.7489
77.9626
75.7734
73.9177
78.6133
76.6058
74.9046
79.1602
77.3082
75.7386
79.6185
77.8999
76.4429
80.0009
78.3973
77.0369
80.3183
78.8141
77.5367
80.5804
79.1618
77.9556
80.7955
79.4507
78.3056
80.9703
79.6888
78.5959
81.113
79.8852
78.8364
81.2259
80.0433
79.0316
81.3208
80.1755
79.1938
81.3891
80.2736
79.3166
81.4593
80.3666
79.4268
81.4916
80.4151
79.4893
81.5602
80.4978
79.5784
-1.15523
-0.972994
0.41319
1.39212
1.45939
1.46042
1.4837
1.43766
1.36305
1.32343
1.27961
1.20143
1.1146
1.05201
1.01336
0.973725
0.920142
0.860206
0.806737
0.766375
0.735195
0.701319
0.653588
0.588083
0.507014
0.412988
0.304355
0.181782
0.0713288
0.0176683
4.59916
1.40958
2.26718
1.98447
1.03244
0.96784
1.348
1.41173
1.2858
1.26347
1.25403
1.17035
1.0635
1.00716
0.997711
0.978379
0.924518
0.856181
0.797935
0.761004
0.739392
0.714207
0.668613
0.598595
0.509828
0.408742
0.296406
0.172864
0.0618409
0.012794
15.4777
7.00801
4.06085
2.03519
1.44726
1.86536
2.07502
1.44942
0.932777
1.01177
1.24278
1.19373
1.02815
0.962582
0.988075
0.995578
0.932675
0.846318
0.780348
0.750185
0.745118
0.734552
0.692524
0.615837
0.516444
0.405876
0.289515
0.167375
0.0563823
0.00837652
24.9693
15.146
9.33414
5.63107
3.6528
2.71082
1.92727
1.34383
1.17275
1.58273
1.73694
1.24403
0.823361
0.734365
0.888655
1.03682
0.968119
0.845053
0.762598
0.738319
0.754705
0.765588
0.72819
0.640963
0.527439
0.404493
0.283076
0.165438
0.0570177
0.00432948
34.0239
24.3104
17.0129
11.6987
7.9954
5.47174
3.71509
2.60951
2.00554
1.79279
1.50086
1.17504
0.906833
0.905013
1.24179
1.31376
0.990296
0.76695
0.67044
0.674741
0.746351
0.812492
0.786226
0.680141
0.546959
0.406682
0.275664
0.163671
0.0661915
3.01464e-05
41.9135
33.0165
25.1417
18.709
13.7677
10.0858
7.37754
5.41884
4.02545
3.06248
2.34027
1.79833
1.38549
1.19504
1.2222
1.15426
1.00501
0.847937
0.766778
0.784471
0.881106
0.941596
0.85768
0.707601
0.553346
0.39494
0.250841
0.147525
0.0895449
-0.00645369
48.3449
40.5581
32.7963
25.9114
20.2731
15.7779
12.2178
9.42157
7.25971
5.62105
4.37088
3.39321
2.63564
2.11812
1.80675
1.56082
1.32224
1.08923
0.934166
0.884469
0.912266
0.938329
0.899105
0.781976
0.619704
0.436521
0.272617
0.164842
0.169468
0.00199547
53.5843
46.8642
39.6161
32.7884
26.8948
21.9264
17.7598
14.303
11.4806
9.20811
7.38056
5.90283
4.72315
3.82109
3.15307
2.62651
2.16846
1.77341
1.48097
1.30372
1.21122
1.14347
1.04348
0.886
0.691577
0.486809
0.304164
0.171306
0.124759
-0.119957
57.8596
52.0481
45.468
38.9938
33.1673
28.0389
23.5467
19.6542
16.3306
13.5268
11.1762
9.21354
7.59044
6.27076
5.20927
4.33901
3.6033
2.98622
2.49639
2.13118
1.86177
1.63964
1.41651
1.1691
0.906389
0.648022
0.416634
0.228091
0.0723879
-0.36255
61.3485
56.2821
50.3798
44.3921
38.8299
33.7703
29.1853
25.0709
21.4291
18.2437
15.4812
13.1013
11.0663
9.34202
7.88974
6.66187
5.6155
4.72695
3.98699
3.38361
2.89041
2.46846
2.07893
1.69905
1.32733
0.973646
0.649514
0.353834
0.042455
-0.562479
64.2134
59.7526
54.4703
48.9973
43.7922
38.9377
34.4212
30.255
26.4602
23.0436
19.9949
17.2942
14.9181
12.8417
11.0366
9.46927
8.10708
6.92565
5.90874
5.03995
4.29523
3.64302
3.05157
2.49864
1.97583
1.48378
1.02293
0.578831
0.100079
-0.629978
66.5858
62.6193
57.8772
52.8921
48.0682
43.4836
39.1315
35.0293
31.2071
27.6842
24.4653
21.5454
18.9141
16.5572
14.4564
12.5893
10.9324
9.46498
8.16982
7.02975
6.0234
5.12494
4.30814
3.55217
2.84468
2.17927
1.54824
0.931511
0.285424
-0.549368
68.5642
65.0049
60.7246
56.1785
51.7227
47.4272
43.2858
39.3159
35.5495
32.0116
28.7155
25.6659
22.8619
20.2983
17.9654
15.85
13.9364
12.2091
10.6529
9.25245
7.98944
6.84292
5.79131
4.81576
3.90219
3.03994
2.21704
1.41334
0.596823
-0.344291
70.2231
67.0028
63.1152
58.9549
54.8373
50.8243
46.9083
43.1041
39.4423
35.9494
32.6428
29.5328
26.6248
23.9199
21.4154
19.1049
16.9792
15.0278
13.2391
11.6005
10.0972
8.71247
7.42872
6.22942
5.10037
4.02918
3.00259
2.00295
1.00865
-0.0537622
71.6197
68.684
65.1308
61.3062
57.4919
53.7424
50.0484
46.4211
42.8883
39.4759
36.2025
33.0812
30.1211
27.3277
24.703
22.2455
19.9512
17.8138
15.8254
13.9767
12.2561
10.6507
9.14631
7.72875
6.38482
5.10205
3.86761
2.66688
1.48565
0.28034
72.7987
70.1036
66.836
63.3025
59.7568
56.2472
52.7625
49.3107
45.916
42.6025
39.3886
36.2886
33.3133
30.4708
27.7663
25.2019
22.7771
20.4892
18.3336
16.3039
14.3916
12.5869
10.8785
9.25462
7.70346
6.21338
4.77259
3.36897
1.99247
0.621557
73.7953
71.3045
68.2816
65.0004
61.6912
58.3969
55.105
51.8204
48.5637
45.3567
42.2169
39.1584
36.1929
33.3297
30.5759
27.9361
25.4124
23.0048
20.7113
18.5279
16.449
14.4672
12.5738
10.759
9.01248
7.32381
5.68219
4.07702
2.49972
0.943749
74.6381
72.3212
69.5085
66.4461
63.3443
60.2417
57.1248
53.9955
50.8715
47.772
44.713
41.7079
38.7683
35.9042
33.1237
30.4328
27.8355
25.3336
22.9273
20.6148
18.3924
16.2549
14.1956
12.2065
10.2787
8.4028
6.56866
4.76627
2.98666
1.2323
75.3502
73.1817
70.5497
67.6769
64.7565
61.8236
58.8638
55.8768
52.8773
49.8821
46.9055
43.9599
41.0564
38.2049
35.4139
32.6904
30.0394
27.4642
24.9663
22.5457
20.2005
17.927
15.7202
13.5735
11.4794
9.42888
7.41248
5.41999
3.44097
1.4823
75.9508
73.9089
71.4324
68.7239
65.9617
63.1781
60.3583
57.5
54.6152
51.7186
48.8227
45.9388
43.0771
40.2471
37.4573
34.715
32.0259
29.3942
26.8226
24.3121
21.8622
19.4706
17.1335
14.8455
12.5998
10.3883
8.20133
6.02831
3.85696
1.69542
76.4558
74.522
72.179
69.6124
66.9878
64.335
61.6389
58.8957
56.1152
53.3099
50.491
47.6681
44.8507
42.0476
39.267
36.5162
33.8012
31.1267
28.4961
25.9114
23.3728
20.8791
18.4276
16.0137
13.6313
11.2726
8.92794
6.58605
4.23297
1.87626
76.879
75.0371
72.8086
70.3642
67.8586
65.3196
62.7321
60.0909
57.4039
54.6818
51.9343
49.1699
46.3969
43.6236
40.8574
38.1056
35.374
32.6676
29.9903
27.3445
24.7313
22.1502
19.599
17.0738
14.5691
12.0773
9.58874
7.09132
4.56982
2.03022
77.2315
75.4674
73.3365
70.9968
68.5935
66.1527
63.6595
61.1077
58.5034
55.8559
53.1735
50.4636
47.7335
44.9905
42.2418
39.4939
36.7527
34.0231
31.3092
28.6138
25.9382
23.2826
20.6453
18.0229
15.4101
12.7995
10.1813
7.54289
4.86816
2.16109
77.5242
75.8255
73.7771
71.5263
69.21
66.8533
64.4411
61.9665
59.4344
56.8526
54.2283
51.5679
48.8777
46.1643
43.4341
40.6933
37.9475
35.2015
32.4592
29.7238
26.9967
24.2785
21.5677
18.8613
16.1542
13.4391
10.706
7.94206
5.13052
2.2729
77.7631
76.1187
74.1393
71.9629
69.7198
67.4338
65.0901
62.6812
60.2108
57.6857
55.112
52.4953
49.841
47.1551
44.4432
41.7112
38.9641
36.2067
33.4428
30.6754
27.9064
25.1361
22.3635
19.5857
16.7978
13.9924
11.1596
8.28612
5.35504
2.36542
77.9602
76.3598
74.4371
72.322
70.139
67.9113
65.6242
63.27
60.8512
58.3737
55.843
53.2636
50.6406
47.979
45.2842
42.5613
39.8151
37.05
34.2699
31.4776
28.6748
25.8622
23.0388
20.2017
17.346
14.4646
11.5472
8.58063
5.54756
2.44394
78.1121
76.5466
74.6686
72.602
70.4668
68.2855
66.0438
63.7332
61.3558
58.9168
56.4209
53.8722
51.275
48.6339
45.9537
43.2392
40.4948
37.7248
34.9326
32.1212
29.2922
26.4462
23.5822
20.6975
17.7872
14.844
11.8576
8.81475
5.69819
2.50144
78.2412
76.7013
74.8574
72.8277
70.7286
68.5824
66.3749
64.0976
61.7518
59.3422
56.873
54.3479
51.7708
49.1457
46.4772
43.7696
41.0272
38.2539
35.4531
32.6275
29.7788
26.9076
24.0128
21.0917
18.1393
15.1483
12.1084
9.00594
5.82353
2.55073
78.3204
76.7967
74.9751
72.9704
70.8957
68.773
66.5884
64.3333
62.0087
59.6189
57.1677
54.6585
52.0949
49.4808
46.8202
44.1175
41.3767
38.6014
35.795
32.9602
30.0984
27.2103
24.2948
21.3491
18.3683
15.3447
12.2679
9.12405
5.89553
2.57025
78.4088
76.8862
75.0769
73.0872
71.0262
68.9161
66.7437
64.5003
62.1868
59.807
57.3649
54.8636
52.3064
49.6973
47.0401
44.339
41.5979
38.8205
36.01
33.1691
30.2993
27.4012
24.4736
21.5138
18.5168
15.4749
12.3773
9.20915
5.95034
2.57689
)
;

boundaryField
{
    inlet
    {
        type            zeroGradient;
    }
    outlet
    {
        type            fixedValue;
        value           uniform 0;
    }
    flap
    {
        type            zeroGradient;
    }
    upperWall
    {
        type            zeroGradient;
    }
    lowerWall
    {
        type            zeroGradient;
    }
    frontAndBack
    {
        type            empty;
    }
}


// ************************************************************************* //
