/*--------------------------------*- C++ -*----------------------------------*\
  =========                 |
  \\      /  F ield         | OpenFOAM: The Open Source CFD Toolbox
   \\    /   O peration     | Website:  https://openfoam.org
    \\  /    A nd           | Version:  dev
     \\/     M anipulation  |
\*---------------------------------------------------------------------------*/
FoamFile
{
    version     2.0;
    format      ascii;
    class       surfaceScalarField;
    location    "2.7";
    object      phi;
}
// * * * * * * * * * * * * * * * * * * * * * * * * * * * * * * * * * * * * * //

dimensions      [0 3 -1 0 0 0 0];

internalField   nonuniform List<scalar> 
5457
(
0.198418
0.00158247
0.19648
0.00193754
0.194192
0.00228834
0.191508
0.00268391
0.188426
0.00308159
0.184949
0.00347721
0.18107
0.00387906
0.176775
0.00429452
0.172047
0.00472873
0.166861
0.00518572
0.161192
0.00566898
0.15501
0.00618145
0.148285
0.00672532
0.140984
0.00730161
0.133074
0.00790967
0.124527
0.00854651
0.115322
0.00920583
0.105445
0.009877
0.0949008
0.0105438
0.0837177
0.0111831
0.0719535
0.0117641
0.0597058
0.0122477
0.0471177
0.0125881
0.0343782
0.0127395
0.0216838
0.0126944
0.00903422
0.0126496
-0.0029178
0.011952
-0.00847238
0.00555458
-0.00804285
-0.000429532
-0.00804285
0.199928
0.0016544
0.199175
0.00269016
0.197964
0.00349953
0.196331
0.00431742
0.19427
0.00514204
0.19178
0.00596773
0.188852
0.00680653
0.185475
0.00767191
0.181629
0.00857418
0.177294
0.00952165
0.172441
0.0105216
0.167042
0.0115803
0.161065
0.0127025
0.154476
0.0138908
0.14724
0.0151449
0.139327
0.0164597
0.130709
0.0178237
0.121369
0.019217
0.111305
0.0206083
0.100535
0.0219526
0.0891114
0.0231881
0.0771244
0.0242348
0.064719
0.0249934
0.0521121
0.0253464
0.0396525
0.0251541
0.0281031
0.0241989
0.0185927
0.0214624
0.00879502
0.0153523
0.00118248
0.007183
-0.00686037
0.19978
0.00187392
0.199086
0.00338417
0.197945
0.00464072
0.196408
0.00585437
0.194482
0.00706857
0.192162
0.00828723
0.189444
0.00952446
0.186318
0.0107979
0.18277
0.0121226
0.178781
0.013511
0.174328
0.0149742
0.169386
0.0165217
0.163928
0.0181614
0.15792
0.0198983
0.151332
0.0217334
0.14413
0.0236615
0.136284
0.0256692
0.127771
0.0277307
0.118574
0.0298049
0.108696
0.0318301
0.098165
0.0337195
0.0870432
0.0353566
0.0754471
0.0365896
0.0635705
0.0372229
0.0517293
0.0369953
0.0403947
0.0355336
0.0297368
0.0321203
0.0191646
0.0259245
0.00959666
0.0167509
0.00273629
0.199703
0.00217095
0.199007
0.00407966
0.197887
0.00576151
0.196375
0.00736561
0.194487
0.00895708
0.19222
0.0105537
0.189572
0.0121726
0.186536
0.0138344
0.183101
0.0155576
0.179254
0.017358
0.174978
0.0192497
0.170255
0.0212448
0.165063
0.0233535
0.159379
0.0255828
0.153177
0.0279353
0.146431
0.0304068
0.139117
0.0329835
0.13121
0.0356379
0.122691
0.0383239
0.11355
0.0409706
0.103794
0.0434759
0.093452
0.0456986
0.0825913
0.0474502
0.0713292
0.0484851
0.0598378
0.0484866
0.0483144
0.047057
0.0368091
0.0436256
0.0251866
0.037547
0.0133349
0.0286026
0.0160712
0.199667
0.00250363
0.198964
0.0047831
0.197862
0.00686309
0.19638
0.00884764
0.194531
0.0108063
0.192316
0.0127688
0.189732
0.014757
0.186773
0.0167935
0.18343
0.0188998
0.179694
0.0210943
0.175551
0.0233931
0.170985
0.0258104
0.165981
0.0283577
0.16052
0.0310434
0.154584
0.0338711
0.148154
0.0368375
0.141208
0.0399293
0.133727
0.0431193
0.12569
0.0463605
0.117081
0.0495796
0.107888
0.0526689
0.0981096
0.055477
0.0877603
0.0577995
0.0768749
0.0593704
0.0655056
0.0598559
0.0537056
0.058857
0.0414522
0.055879
0.0285865
0.0504126
0.0148517
0.0423374
0.0309229
0.199653
0.00285092
0.198948
0.00548735
0.19787
0.00794131
0.196426
0.0102922
0.194625
0.0126067
0.192471
0.0149228
0.189961
0.0172671
0.18709
0.0196649
0.18385
0.0221397
0.180232
0.0247121
0.176225
0.0274002
0.171816
0.0302195
0.166991
0.0331829
0.161734
0.0362997
0.156031
0.0395743
0.149864
0.0430043
0.143216
0.0465776
0.136067
0.0502686
0.128395
0.0540325
0.120176
0.0577989
0.111382
0.0614628
0.101983
0.0648752
0.09195
0.067833
0.08125
0.0700705
0.0698509
0.071255
0.0577143
0.0709936
0.0447588
0.0688346
0.0308479
0.0643235
0.0158726
0.0573128
0.0467955
0.19965
0.00320097
0.198954
0.00618353
0.197904
0.00899122
0.196504
0.0116923
0.194761
0.0143494
0.192679
0.0170053
0.190254
0.0196913
0.187484
0.0224351
0.184362
0.0252624
0.180878
0.0281957
0.177023
0.0312548
0.172786
0.0344567
0.168154
0.0378155
0.163112
0.0413417
0.157645
0.0450408
0.151737
0.048912
0.14537
0.0529452
0.13852
0.057118
0.131162
0.0613905
0.123262
0.0656993
0.114776
0.0699489
0.105649
0.0740024
0.0958115
0.07767
0.0851819
0.0807001
0.0736648
0.082772
0.0611589
0.0834995
0.0475535
0.08244
0.0327576
0.0791194
0.0167824
0.073288
0.0635779
0.199655
0.00354641
0.198974
0.00686384
0.197958
0.0100073
0.196609
0.0130414
0.194933
0.0160259
0.192931
0.0190064
0.190605
0.022018
0.187949
0.025091
0.184958
0.028253
0.181626
0.0315284
0.177942
0.0349388
0.173896
0.0385027
0.169475
0.0422356
0.164668
0.0461496
0.159456
0.0502521
0.153824
0.0545446
0.147748
0.0590206
0.141204
0.0636627
0.134156
0.0684386
0.126559
0.0732957
0.118355
0.0781535
0.109463
0.0828944
0.0997808
0.0873518
0.0891826
0.0912983
0.0775215
0.0944331
0.0646449
0.0963762
0.0504158
0.096669
0.0347673
0.094768
0.0177895
0.0902658
0.0813674
0.199664
0.00388235
0.199006
0.00752186
0.19803
0.0109838
0.196738
0.0143332
0.195135
0.0176284
0.193225
0.0209168
0.191006
0.0242364
0.188477
0.0276203
0.185632
0.0310977
0.182466
0.0346948
0.17897
0.038435
0.175134
0.0423383
0.170948
0.0464222
0.166397
0.0507006
0.161465
0.0551837
0.156133
0.0598763
0.150377
0.0647771
0.144164
0.0698756
0.137453
0.0751499
0.130187
0.0805618
0.12229
0.0860506
0.113659
0.0915246
0.104162
0.0968492
0.0936288
0.101831
0.0818609
0.106201
0.068647
0.10959
0.0538007
0.111515
0.0372361
0.111333
0.0190833
0.108419
0.100451
0.199677
0.00420523
0.199047
0.00815231
0.198115
0.0119155
0.196886
0.0155619
0.195365
0.0191498
0.193554
0.022728
0.191453
0.0263369
0.189062
0.0300118
0.186376
0.0337836
0.18339
0.0376804
0.180098
0.041727
0.176491
0.0459452
0.172559
0.0503545
0.168288
0.0549714
0.163663
0.0598091
0.158662
0.064877
0.153259
0.07018
0.147418
0.0757166
0.141091
0.0814775
0.13421
0.0874421
0.126687
0.0935742
0.118397
0.0998146
0.109176
0.10607
0.0988137
0.112194
0.0870485
0.117966
0.0735876
0.123051
0.0581478
0.126955
0.0405522
0.128928
0.0209018
0.128069
0.121353
0.199693
0.00451242
0.199094
0.00875092
0.198212
0.0127974
0.197052
0.016722
0.195618
0.0205837
0.193914
0.0244324
0.19194
0.0283106
0.189697
0.0322554
0.187181
0.0362995
0.184389
0.0404722
0.181316
0.0448
0.177955
0.0493066
0.174296
0.0540133
0.170328
0.0589394
0.166035
0.0641018
0.161397
0.069515
0.156386
0.0751907
0.150965
0.0811379
0.145081
0.0873614
0.138662
0.093861
0.131608
0.100628
0.12378
0.107643
0.114987
0.114862
0.104976
0.122205
0.0934148
0.129528
0.0798962
0.13657
0.0639683
0.142883
0.0452365
0.14766
0.0236132
0.149692
0.144966
0.199711
0.00480184
0.199147
0.00931416
0.198319
0.0136253
0.197233
0.0178087
0.195892
0.0219244
0.194301
0.0260234
0.192462
0.0301498
0.190375
0.0343423
0.188039
0.0386351
0.185453
0.0430587
0.182612
0.0476409
0.179511
0.0524072
0.176144
0.0573809
0.172499
0.0625839
0.168564
0.0680367
0.16432
0.0737589
0.159741
0.0797699
0.15479
0.0860887
0.149416
0.0927354
0.143547
0.0997307
0.137079
0.107097
0.129867
0.114855
0.121706
0.123023
0.112307
0.131604
0.101269
0.140566
0.0880441
0.149794
0.0719251
0.159002
0.0520904
0.167495
0.0278893
0.173893
0.172855
0.19973
0.00507189
0.199205
0.00983917
0.198435
0.0143957
0.197425
0.0188178
0.196183
0.023167
0.194711
0.0274953
0.193013
0.031848
0.19109
0.0362651
0.188943
0.0407818
0.186572
0.04543
0.183974
0.0502386
0.181147
0.0552341
0.178086
0.060442
0.174784
0.0658862
0.17123
0.0715907
0.167409
0.0775799
0.163299
0.0838799
0.158868
0.0905195
0.154071
0.0975325
0.148842
0.10496
0.143086
0.112852
0.136666
0.121275
0.129381
0.130308
0.120933
0.140052
0.110878
0.150621
0.0985427
0.162129
0.0829059
0.174639
0.0624443
0.187956
0.0351331
0.201204
0.207988
0.199751
0.00532131
0.199266
0.0103237
0.198556
0.0151055
0.197628
0.0197458
0.196488
0.0243074
0.19514
0.0288433
0.193588
0.0333996
0.191836
0.0380174
0.189885
0.0427328
0.187737
0.0475783
0.185391
0.0525837
0.182849
0.0577767
0.180107
0.0631837
0.177163
0.0688308
0.174009
0.0747446
0.170635
0.0809532
0.167027
0.0874881
0.163161
0.0943859
0.159001
0.101692
0.154498
0.109463
0.149577
0.117774
0.144126
0.126726
0.137978
0.136456
0.130874
0.147156
0.1224
0.159095
0.11186
0.172668
0.0980259
0.188473
0.0785539
0.207428
0.0486831
0.231075
0.256671
0.199772
0.00554913
0.19933
0.0107658
0.198683
0.0157523
0.197839
0.0205899
0.196804
0.0253424
0.195584
0.0300636
0.194183
0.0348006
0.192606
0.0395946
0.190856
0.0444826
0.188937
0.0494975
0.186851
0.0546694
0.184601
0.0600267
0.182188
0.0655966
0.179613
0.0714062
0.176873
0.0774837
0.173967
0.0838597
0.170886
0.090569
0.167619
0.0976532
0.164146
0.105164
0.160439
0.11317
0.156454
0.121759
0.152125
0.131054
0.147353
0.141228
0.141979
0.15253
0.135741
0.165333
0.12817
0.18024
0.118324
0.198319
0.103954
0.221798
0.0777387
0.257291
0.33441
0.00509846
-0.00509846
0.00984947
-0.00475101
0.0139056
-0.00405612
0.0173248
-0.00341922
0.0202212
-0.00289638
0.0226953
-0.00247415
0.0248303
-0.00213498
0.0266933
-0.00186301
0.0283355
-0.0016422
0.0297938
-0.00145823
0.0310948
-0.00130101
0.0322584
-0.00116369
0.0332948
-0.0010364
0.0341924
-0.000897558
0.0349104
-0.00071798
0.035401
-0.000490587
0.0356553
-0.000254317
0.0357223
-6.69876e-05
0.0356409
8.14185e-05
0.0354314
0.000209414
0.0351144
0.000317028
0.0347665
0.000347881
0.0344998
0.00026669
0.0344198
8.00803e-05
0.034586
-0.000166236
0.035005
-0.000419053
0.0356599
-0.000654816
0.0365274
-0.000867524
0.0375458
-0.00101838
-0.000962888
0.00435773
-0.00945619
0.00858528
-0.00897856
0.0122698
-0.00774063
0.0154297
-0.00657914
0.0181623
-0.00562893
0.0205537
-0.00486557
0.0226729
-0.00425421
0.0245739
-0.00376397
0.0262964
-0.00336473
0.0278684
-0.00303017
0.02931
-0.00274269
0.0306403
-0.0024939
0.0318776
-0.00227378
0.0330283
-0.00204826
0.0340665
-0.0017561
0.0349435
-0.00136761
0.0356293
-0.000940084
0.0361618
-0.000599551
0.0366046
-0.000361316
0.0369448
-0.000130828
0.0371465
0.000115289
0.0372766
0.000217835
0.0374165
0.000126762
0.0375844
-8.77832e-05
0.0377946
-0.000376457
0.0380257
-0.00065021
0.0382806
-0.000909706
0.0385664
-0.00115333
0.0389088
-0.0013607
-0.00142885
0.00343178
-0.012888
0.00668687
-0.0122337
0.00949132
-0.0105451
0.0118893
-0.00897715
0.0139582
-0.00769778
0.0157614
-0.00666883
0.0173516
-0.00584435
0.0187687
-0.00518112
0.0200411
-0.00463715
0.0211863
-0.00417536
0.0222148
-0.00377114
0.0231388
-0.00341797
0.0239827
-0.00311767
0.0247691
-0.00283461
0.0254815
-0.00246851
0.0260656
-0.0019517
0.026467
-0.00134147
0.02676
-0.000892599
0.0269701
-0.000571389
0.0268961
-5.6798e-05
0.0264643
0.000547009
0.0256433
0.00103889
0.0245415
0.0012285
0.023329
0.0011248
0.0221673
0.000785189
0.0211848
0.000332302
0.0203966
-0.000121538
0.019834
-0.000590685
0.0196543
-0.00118105
-0.00184258
0.00245335
-0.0153413
0.0045806
-0.0143609
0.00632258
-0.0122871
0.00778115
-0.0104357
0.00900698
-0.0089236
0.0100379
-0.00769976
0.0109084
-0.00671487
0.0116452
-0.00591789
0.0122671
-0.00525904
0.0127834
-0.00469164
0.0131923
-0.00418005
0.0134871
-0.00371281
0.0136853
-0.00331588
0.0138334
-0.00298269
0.0139551
-0.00259018
0.0140226
-0.00201926
0.013746
-0.00106482
0.0127859
6.75276e-05
0.0113115
0.000902924
0.00989537
0.00135938
0.00870407
0.00173831
0.00759726
0.0021457
0.00651552
0.00231024
0.00550991
0.0021304
0.00468249
0.00161261
0.0041825
0.000832293
0.00405628
4.68257e-06
0.00435337
-0.000887767
0.00499037
-0.00181806
-0.00259603
0.00135058
-0.0166919
0.00222633
-0.0152367
0.00280103
-0.0128618
0.00319922
-0.0108339
0.00343951
-0.00916388
0.00354142
-0.00780167
0.00352281
-0.00669626
0.00339954
-0.00579462
0.00318553
-0.00504502
0.00289087
-0.00439697
0.00251448
-0.00380367
0.00202896
-0.00322728
0.00135497
-0.00264188
0.000416004
-0.00204373
-0.000753397
-0.00142078
-0.0020918
-0.000680861
-0.00327853
0.000121918
-0.00406713
0.000856125
-0.00464043
0.00147622
-0.00524965
0.00196859
-0.00585053
0.0023392
-0.00632464
0.00261981
-0.00667475
0.00266035
-0.00691273
0.00236838
-0.00704829
0.00174817
-0.00709716
0.000881157
-0.00698434
-0.000108131
-0.00677556
-0.00109655
-0.00652728
-0.00206634
-0.00283997
2.66931e-05
-0.0167186
-0.000362509
-0.0148475
-0.00100803
-0.0122162
-0.00175635
-0.0100856
-0.00261176
-0.00830848
-0.00355405
-0.00685937
-0.00457339
-0.00567693
-0.00566204
-0.00470597
-0.00681289
-0.00389417
-0.0080125
-0.00319737
-0.00923745
-0.00257872
-0.0104572
-0.00200755
-0.0116376
-0.00146151
-0.012755
-0.00092633
-0.0137921
-0.000383641
-0.0146336
0.000160637
-0.0152397
0.000728025
-0.0156983
0.00131468
-0.016068
0.00184594
-0.0163643
0.0022649
-0.0165866
0.00256154
-0.0166892
0.00272238
-0.0166889
0.00266002
-0.0166308
0.00231035
-0.0165582
0.00167557
-0.016496
0.000818962
-0.0164408
-0.000163376
-0.0163789
-0.00115842
-0.0163155
-0.00212978
-0.00292026
-0.00127279
-0.0154458
-0.00306768
-0.0130526
-0.004959
-0.0103249
-0.00689768
-0.00814692
-0.00882311
-0.00638305
-0.0107111
-0.00497139
-0.0125359
-0.00385215
-0.0142749
-0.00296691
-0.0159104
-0.00225873
-0.0174296
-0.00167819
-0.0188254
-0.00118293
-0.0200886
-0.000744321
-0.0212078
-0.000342267
-0.0221675
3.33121e-05
-0.022947
0.000395861
-0.0235656
0.000779239
-0.0240488
0.00121126
-0.0243992
0.00166509
-0.0246307
0.00207744
-0.0247638
0.00239801
-0.0248063
0.00260407
-0.0247534
0.00266942
-0.0246308
0.00253747
-0.0244845
0.00216398
-0.0243573
0.00154838
-0.0242758
0.000737432
-0.0242471
-0.00019209
-0.0242554
-0.00115003
-0.0242882
-0.002097
-0.00285878
-0.0026935
-0.0127523
-0.00578712
-0.00995894
-0.00887936
-0.00723267
-0.011835
-0.00519127
-0.0145771
-0.00364098
-0.0170846
-0.00246391
-0.0193491
-0.00158764
-0.0213752
-0.0009408
-0.0231716
-0.000462273
-0.0247488
-0.000101016
-0.0261081
0.000176373
-0.0272561
0.00040363
-0.0282124
0.000614033
-0.0290066
0.000827593
-0.0296741
0.00106329
-0.0302295
0.0013347
-0.0306603
0.00164206
-0.0309568
0.00196156
-0.0311283
0.0022489
-0.031194
0.00246374
-0.0311692
0.00257927
-0.0310671
0.00256737
-0.0309173
0.0023876
-0.0307607
0.00200745
-0.0306367
0.00142431
-0.030572
0.000672821
-0.0305777
-0.000186486
-0.0306412
-0.00108647
-0.0307559
-0.00198231
-0.00267137
-0.00418139
-0.0085709
-0.00851759
-0.00562275
-0.0126755
-0.00307473
-0.0164495
-0.00141727
-0.0197759
-0.000314623
-0.0226224
0.000382622
-0.0250132
0.000803177
-0.0270126
0.00105854
-0.0286912
0.00121634
-0.0301089
0.00131666
-0.0313212
0.00138873
-0.0323705
0.00145291
-0.0332751
0.00151861
-0.0340463
0.00159885
-0.0346914
0.0017084
-0.0352136
0.00185686
-0.035611
0.00203944
-0.0358825
0.00223306
-0.0360361
0.00240256
-0.0360876
0.00251519
-0.0360545
0.0025462
-0.0359579
0.00247076
-0.0358285
0.00225821
-0.0357035
0.00188243
-0.0356175
0.00133834
-0.0355962
0.000651443
-0.0356503
-0.000132313
-0.0357739
-0.000962954
-0.0359635
-0.00179265
-0.00241016
-0.00592382
-0.00264708
-0.0117074
0.000160785
-0.0165333
0.00175124
-0.0205361
0.0025855
-0.0238148
0.00296409
-0.0265193
0.00308707
-0.0287979
0.00308176
-0.030739
0.00299965
-0.0323979
0.0028753
-0.0338198
0.00273854
-0.0350412
0.00261014
-0.0360881
0.0024998
-0.03698
0.00241053
-0.0377306
0.00234944
-0.0383505
0.00232827
-0.0388478
0.00235417
-0.0392276
0.00241927
-0.0394939
0.00249931
-0.0396539
0.00256252
-0.0397202
0.00258152
-0.0397107
0.00253672
-0.0396496
0.00240963
-0.039568
0.00217665
-0.0394999
0.00181436
-0.0394752
0.00131359
-0.0395155
0.000691714
-0.0396307
-1.70923e-05
-0.0398205
-0.000773153
-0.04008
-0.00153313
-0.00209048
-0.0073607
0.00471362
-0.0136888
0.00648891
-0.0187562
0.0068186
-0.0229104
0.00673975
-0.0263325
0.0063862
-0.0291601
0.00591462
-0.0315041
0.00542576
-0.0334625
0.00495802
-0.0351103
0.00452313
-0.0365051
0.00413337
-0.0376934
0.00379844
-0.0387084
0.00351476
-0.0395699
0.00327211
-0.0402907
0.00307019
-0.0408831
0.00292066
-0.0413606
0.00283167
-0.041734
0.00279266
-0.0420097
0.00277499
-0.0421929
0.00274574
-0.0422927
0.00268134
-0.0423259
0.00256989
-0.0423179
0.00240168
-0.0423006
0.00215929
-0.0423054
0.00181917
-0.0423578
0.00136598
-0.0424733
0.000807299
-0.0426599
0.000169498
-0.0429167
-0.000516379
-0.0432447
-0.00120514
-0.00171104
-0.0080846
0.0127982
-0.0150566
0.0134609
-0.0206624
0.0124245
-0.0250577
0.011135
-0.0285349
0.00986337
-0.0313192
0.00869898
-0.0335821
0.00768866
-0.0354522
0.00682809
-0.0370123
0.00608325
-0.0383226
0.00544364
-0.039437
0.00491289
-0.0403948
0.00447255
-0.0412129
0.00409022
-0.0418976
0.00375483
-0.0424606
0.00348371
-0.0429217
0.00329271
-0.0432976
0.00316863
-0.0435957
0.00307305
-0.0438165
0.00296659
-0.0439638
0.00282857
-0.0440518
0.00265792
-0.0441074
0.00245729
-0.0441636
0.00221553
-0.0442505
0.00190603
-0.0443882
0.00150372
-0.0445865
0.00100552
-0.04485
0.000433078
-0.0451827
-0.000183758
-0.0455827
-0.000805086
-0.00126576
-0.00938107
0.0221793
-0.0172672
0.021347
-0.0230811
0.0182384
-0.0273467
0.0154005
-0.0305992
0.0131159
-0.0331282
0.0112279
-0.0351462
0.00970673
-0.0368163
0.00849819
-0.0382144
0.00748137
-0.0393847
0.00661394
-0.0403868
0.00591498
-0.0412684
0.0053541
-0.0420374
0.00485926
-0.042684
0.00440141
-0.0432159
0.00401558
-0.0436622
0.00373905
-0.0440492
0.00355563
-0.0443832
0.00340698
-0.0446561
0.00323951
-0.0448626
0.00303506
-0.0450136
0.00280891
-0.0451382
0.00258195
-0.0452732
0.00235051
-0.0454483
0.00208114
-0.0456789
0.00173432
-0.0459681
0.00129473
-0.0463167
0.000781611
-0.0467287
0.000228268
-0.0472056
-0.00032817
-0.000746332
-0.0117619
0.0339412
-0.0208708
0.030456
-0.0264198
0.0237873
-0.029949
0.0189298
-0.0326183
0.0157851
-0.0346528
0.0132625
-0.0362408
0.0112946
-0.0376038
0.00986121
-0.0387851
0.00866274
-0.0397677
0.00759649
-0.0406197
0.00676696
-0.0414137
0.00614817
-0.0421405
0.00558601
-0.042754
0.00501492
-0.0432517
0.0045133
-0.0436822
0.00416951
-0.044089
0.00396245
-0.0444752
0.00379319
-0.044817
0.0035813
-0.0450944
0.00331244
-0.0453136
0.00302813
-0.0455093
0.00277769
-0.045726
0.00256717
-0.045995
0.00235015
-0.0463261
0.00206539
-0.0467135
0.0016821
-0.0471512
0.00121938
-0.0476461
0.000723099
-0.048208
0.000233761
-0.000139592
-0.0160872
0.0500283
-0.0267872
0.041156
-0.031267
0.0282671
-0.0328666
0.0205294
-0.0345583
0.0174768
-0.0358828
0.014587
-0.0368224
0.0122343
-0.0377903
0.0108291
-0.0387593
0.00963171
-0.0395193
0.00835652
-0.0401726
0.00742025
-0.0408766
0.00685217
-0.0415903
0.00629975
-0.0421887
0.00561325
-0.0426454
0.00497004
-0.0430526
0.00457667
-0.04349
0.00439983
-0.0439516
0.00425487
-0.0443846
0.00401426
-0.0447457
0.00367354
-0.0450355
0.00331797
-0.0453003
0.00304242
-0.0455991
0.00286604
-0.0459673
0.0027183
-0.0464064
0.00250451
-0.0468985
0.00217416
-0.0474284
0.00174931
-0.0480068
0.00130155
-0.0486599
0.000886794
0.000575432
0.207447
0.00576203
0.207034
0.0111787
0.206431
0.0163552
0.205646
0.0213749
0.204686
0.0263023
0.203558
0.0311919
0.202267
0.036091
0.200821
0.0410414
0.199223
0.0460801
0.197481
0.0512401
0.195598
0.0565516
0.193582
0.0620431
0.191437
0.0677417
0.189168
0.0736748
0.186781
0.079871
0.184279
0.0863616
0.181666
0.0931823
0.178943
0.100376
0.176111
0.107997
0.173167
0.116113
0.170109
0.124817
0.166932
0.134232
0.16363
0.14453
0.160207
0.155953
0.156686
0.168854
0.153164
0.183763
0.150009
0.201473
0.14891
0.222897
0.160697
0.245504
0.258552
0.236556
0.21249
0.00595459
0.212117
0.0115518
0.211573
0.0168992
0.210867
0.0220813
0.210006
0.0271635
0.208997
0.0322002
0.207849
0.037239
0.206569
0.0423217
0.205164
0.0474849
0.203643
0.0527615
0.202013
0.0581812
0.200284
0.0637716
0.198467
0.0695595
0.19657
0.0755714
0.194606
0.0818348
0.192588
0.0883796
0.190531
0.0952399
0.188451
0.102456
0.18637
0.110077
0.184318
0.118166
0.182333
0.126802
0.180478
0.136087
0.178852
0.146156
0.177626
0.157178
0.177125
0.169356
0.178004
0.182884
0.181683
0.197794
0.190773
0.213807
0.206287
0.229991
0.245409
0.21943
0.217657
0.00612467
0.217328
0.0118811
0.216849
0.0173783
0.216229
0.0227016
0.215476
0.0279166
0.214598
0.0330777
0.213605
0.0382322
0.212505
0.0434215
0.211308
0.0486817
0.210025
0.0540446
0.208668
0.0595391
0.207248
0.0651916
0.20578
0.0710272
0.204281
0.0770707
0.202768
0.083347
0.201265
0.0898829
0.199797
0.0967081
0.198396
0.103857
0.197105
0.111368
0.19598
0.119291
0.195098
0.127683
0.194574
0.136611
0.194577
0.146153
0.195372
0.156384
0.197368
0.167359
0.201177
0.179075
0.207567
0.191404
0.217196
0.204178
0.22977
0.217416
0.228539
0.24664
0.222951
0.00627027
0.22267
0.0121627
0.222261
0.0177869
0.221734
0.0232285
0.221098
0.0285529
0.220361
0.0338142
0.219534
0.039059
0.218628
0.0443278
0.217654
0.0496557
0.216625
0.0550735
0.215556
0.0606083
0.214463
0.0662847
0.213364
0.0721256
0.212283
0.0781525
0.211242
0.0843871
0.210274
0.0908511
0.209415
0.0975676
0.20871
0.104562
0.208218
0.11186
0.208015
0.119494
0.208204
0.127494
0.208925
0.13589
0.210372
0.144706
0.212807
0.153949
0.216576
0.16359
0.222097
0.173554
0.229818
0.183683
0.240305
0.193691
0.25447
0.203251
0.210106
0.272903
0.228374
0.00638955
0.228144
0.012393
0.227811
0.0181199
0.227384
0.0236554
0.226872
0.0290644
0.226286
0.0344003
0.225636
0.0397086
0.224935
0.0450288
0.224197
0.0503946
0.223435
0.0558348
0.222669
0.0613748
0.221917
0.0670366
0.221202
0.07284
0.220552
0.0788031
0.219996
0.0849426
0.219573
0.0912743
0.219327
0.0978135
0.219314
0.104575
0.219603
0.111572
0.220282
0.118815
0.221464
0.126312
0.223293
0.134061
0.225954
0.142045
0.229678
0.150225
0.234743
0.158525
0.241476
0.16682
0.250255
0.174904
0.261522
0.182424
0.275748
0.189025
0.193623
0.292231
0.233929
0.0064808
0.233753
0.0125688
0.233501
0.0183726
0.23318
0.0239764
0.2328
0.029444
0.232373
0.0348278
0.231909
0.0401721
0.231423
0.0455148
0.23093
0.0508877
0.230447
0.0563177
0.229994
0.0618277
0.229594
0.0674368
0.229273
0.0731614
0.229061
0.0790152
0.228993
0.0850097
0.229114
0.0911541
0.229472
0.0974553
0.230129
0.103918
0.23116
0.110541
0.232655
0.11732
0.234726
0.124241
0.237509
0.131278
0.241167
0.138387
0.245892
0.1455
0.251903
0.152514
0.259442
0.159281
0.268748
0.165598
0.279999
0.171173
0.293287
0.175737
0.178778
0.308132
0.23962
0.00654254
0.239501
0.0126872
0.239333
0.0185409
0.239123
0.0241861
0.238882
0.0296855
0.23862
0.0350899
0.23835
0.040442
0.238087
0.0457777
0.237847
0.051127
0.237651
0.0565145
0.237518
0.0619601
0.237475
0.0674798
0.237551
0.0730863
0.237777
0.0787887
0.238194
0.0845931
0.238845
0.0905022
0.239786
0.096515
0.241077
0.102626
0.242794
0.108824
0.245025
0.11509
0.247871
0.121395
0.251451
0.127697
0.255902
0.133936
0.261372
0.14003
0.268016
0.14587
0.275984
0.151314
0.285393
0.156188
0.296289
0.160277
0.308659
0.163367
0.165193
0.322244
0.245448
0.0065735
0.24539
0.0127458
0.245309
0.0186213
0.245215
0.0242803
0.245117
0.0297839
0.245025
0.035181
0.244955
0.0405124
0.244921
0.045812
0.24494
0.0511074
0.245034
0.0564206
0.245226
0.0617688
0.245541
0.0671647
0.24601
0.0726169
0.246669
0.0781302
0.247556
0.0837057
0.248718
0.0893398
0.250209
0.0950246
0.252088
0.100747
0.254426
0.106486
0.257302
0.112214
0.260806
0.117892
0.265034
0.123468
0.270092
0.128878
0.276086
0.134037
0.283114
0.138842
0.291258
0.14317
0.300563
0.146883
0.311018
0.149822
0.322555
0.15183
0.152777
0.334971
0.251418
0.00657266
0.251421
0.0127426
0.251431
0.018611
0.251456
0.0242557
0.251504
0.0297355
0.251588
0.0350972
0.251721
0.0403795
0.251919
0.0456142
0.2522
0.0508263
0.252586
0.0560351
0.253099
0.0612549
0.253769
0.0664952
0.254625
0.0717609
0.255702
0.0770528
0.257041
0.0823672
0.258685
0.0876955
0.260686
0.0930241
0.263099
0.0983337
0.265987
0.103598
0.269418
0.108782
0.273465
0.113844
0.278205
0.118729
0.283711
0.123372
0.290054
0.127694
0.297288
0.131607
0.305449
0.13501
0.314537
0.137795
0.324506
0.139853
0.335258
0.141078
0.141413
0.346622
0.257532
0.00653927
0.257599
0.0126762
0.257701
0.0185082
0.257847
0.02411
0.258045
0.0295378
0.258306
0.0348362
0.258644
0.0400417
0.259074
0.0451834
0.259617
0.050284
0.260291
0.0553602
0.261123
0.0604233
0.262138
0.0654798
0.263368
0.0705313
0.264846
0.0755749
0.26661
0.0806032
0.268702
0.0856036
0.271167
0.0905586
0.274056
0.0954446
0.277422
0.100232
0.28132
0.104884
0.285807
0.109357
0.290938
0.113598
0.296762
0.117548
0.303319
0.121137
0.310633
0.124293
0.318706
0.126937
0.32751
0.128991
0.336982
0.130381
0.347017
0.131043
0.130956
0.357474
0.263794
0.00647286
0.263924
0.0125458
0.264121
0.0183117
0.264389
0.0238418
0.264737
0.0291898
0.265176
0.0343976
0.265718
0.0394992
0.26638
0.0445212
0.267181
0.049484
0.268139
0.0544015
0.26928
0.0592825
0.270629
0.0641307
0.272215
0.068945
0.274071
0.0737195
0.27623
0.0784438
0.278731
0.0831027
0.281614
0.087676
0.28492
0.0921384
0.288693
0.0964591
0.292976
0.100601
0.297809
0.104524
0.30323
0.108178
0.309266
0.111512
0.315935
0.114469
0.323237
0.11699
0.331155
0.119019
0.339645
0.1205
0.348638
0.121388
0.358035
0.121646
0.121273
0.367718
0.270207
0.00637325
0.270401
0.012351
0.270692
0.0180212
0.271083
0.0234513
0.27158
0.0286919
0.272196
0.0337824
0.272941
0.0387541
0.273831
0.0436314
0.274883
0.0484319
0.276117
0.0531674
0.277555
0.0578442
0.279222
0.0624638
0.281144
0.0670226
0.283351
0.0715128
0.285873
0.075922
0.288742
0.0802333
0.291993
0.0844254
0.295659
0.0884727
0.299772
0.0923452
0.304365
0.0960085
0.309465
0.0994245
0.315091
0.102552
0.321255
0.105347
0.32796
0.107764
0.335189
0.109761
0.342914
0.111295
0.351083
0.112331
0.359628
0.112843
0.368461
0.112813
0.112253
0.377481
0.276774
0.00624054
0.277032
0.0120921
0.277416
0.0176372
0.277928
0.0229393
0.278575
0.0280458
0.279364
0.0329933
0.280307
0.0378107
0.281419
0.0425198
0.282714
0.047136
0.284213
0.051669
0.285934
0.056123
0.2879
0.0604975
0.290135
0.0647876
0.292665
0.0689837
0.295514
0.0730725
0.298711
0.0770365
0.302282
0.0808547
0.306252
0.0845023
0.310646
0.0879514
0.315483
0.0911712
0.320779
0.0941286
0.326542
0.096789
0.332771
0.0991174
0.339456
0.10108
0.346572
0.102644
0.354084
0.103783
0.361939
0.104476
0.370072
0.104709
0.378407
0.104479
0.103801
0.386859
0.283498
0.0060751
0.28382
0.0117698
0.284297
0.017161
0.284928
0.0223078
0.285719
0.0272545
0.286678
0.0320347
0.287814
0.0366749
0.289139
0.0411944
0.290669
0.0456067
0.292418
0.0499194
0.294406
0.0541354
0.296651
0.0582525
0.299174
0.0622647
0.301995
0.0661619
0.305137
0.0699303
0.308621
0.073553
0.312466
0.0770098
0.31669
0.0802779
0.321309
0.0833325
0.326334
0.0861469
0.331769
0.0886934
0.337614
0.0909442
0.343859
0.0928725
0.350485
0.0944534
0.357464
0.0956654
0.364756
0.0964916
0.372311
0.0969212
0.38007
0.0969503
0.387966
0.0965824
0.0958379
0.395929
0.290384
0.00587757
0.290768
0.0113854
0.291335
0.0165946
0.292082
0.0215599
0.293015
0.0263221
0.294137
0.0309121
0.295458
0.0353539
0.296988
0.0396646
0.298739
0.0438558
0.300725
0.0479337
0.302961
0.0518996
0.305463
0.0557506
0.308247
0.05948
0.311332
0.0630776
0.314732
0.0665301
0.318463
0.0698214
0.32254
0.0729333
0.326972
0.0758454
0.331769
0.0785364
0.336932
0.0809838
0.342459
0.0831656
0.348343
0.0850603
0.354568
0.086648
0.361109
0.0879118
0.367937
0.0888381
0.37501
0.089418
0.382283
0.0896478
0.389704
0.0895302
0.397213
0.0890731
0.0882977
0.404753
0.297435
0.00564881
0.297879
0.0109407
0.298533
0.0159408
0.299394
0.0206993
0.300462
0.0252537
0.301742
0.0296323
0.303239
0.0338563
0.304963
0.0379412
0.306922
0.0418967
0.309128
0.0457278
0.311593
0.0494347
0.314329
0.0530142
0.31735
0.0564593
0.320667
0.0597603
0.324292
0.0629047
0.328236
0.065878
0.332505
0.0686639
0.337105
0.0712453
0.342038
0.0736041
0.347299
0.0757224
0.352882
0.0775831
0.358772
0.0791701
0.36495
0.08047
0.37139
0.0814717
0.37806
0.082168
0.384922
0.0825557
0.391934
0.0826362
0.399048
0.0824158
0.406216
0.0819053
0.0811255
0.413388
0.304654
0.00538988
0.305157
0.0104377
0.305895
0.0152027
0.306864
0.0197306
0.308062
0.0240554
0.309492
0.0282027
0.311156
0.0321917
0.313062
0.0360358
0.315215
0.0397434
0.317625
0.0433182
0.320299
0.0467602
0.323248
0.0500657
0.326479
0.053228
0.330001
0.0562382
0.333821
0.0590849
0.337943
0.0617556
0.342371
0.0642363
0.347104
0.0665127
0.352137
0.0685703
0.357464
0.0703953
0.363073
0.071975
0.368945
0.0732981
0.375059
0.0743559
0.381388
0.0751425
0.387901
0.0756551
0.394562
0.0758945
0.401333
0.0758654
0.408172
0.0755765
0.415038
0.0750398
0.0742747
0.421888
0.312046
0.00510199
0.312605
0.00987886
0.313424
0.0143839
0.314496
0.0186586
0.315818
0.0227335
0.317389
0.0266317
0.31921
0.0303702
0.321285
0.0339606
0.323619
0.0374102
0.326215
0.0407219
0.32908
0.0438952
0.332219
0.0469266
0.335637
0.04981
0.339338
0.0525373
0.343324
0.0550986
0.347596
0.0574834
0.352152
0.05968
0.356988
0.0616771
0.362095
0.0634633
0.367462
0.0650284
0.373073
0.0663634
0.37891
0.0674612
0.38495
0.0683168
0.391164
0.0689278
0.397524
0.069295
0.403997
0.0694218
0.410547
0.0693149
0.41714
0.068984
0.423738
0.0684415
0.0677053
0.430308
0.319615
0.00478646
0.320227
0.00926673
0.321123
0.0134885
0.322293
0.0174887
0.323731
0.0212951
0.325435
0.0249279
0.327403
0.0284021
0.329636
0.0317279
0.332134
0.0349115
0.334901
0.0379551
0.337938
0.0408582
0.341247
0.0436175
0.34483
0.0462275
0.348686
0.0486813
0.352814
0.0509707
0.35721
0.0530867
0.36187
0.0550204
0.366784
0.0567628
0.371942
0.0583054
0.37733
0.0596412
0.382929
0.0607642
0.38872
0.0616704
0.394679
0.0623578
0.40078
0.0628269
0.406994
0.0630803
0.413293
0.0631234
0.419644
0.0629639
0.426016
0.0626118
0.432378
0.0620792
0.0613824
0.438701
0.327365
0.00444465
0.328028
0.00860402
0.328996
0.0125203
0.330258
0.0162266
0.331806
0.0197471
0.333634
0.0230998
0.335738
0.0262978
0.338117
0.0293498
0.340767
0.032261
0.343689
0.0350334
0.346881
0.0376663
0.350341
0.0401568
0.354068
0.0425003
0.358059
0.044691
0.362307
0.0467222
0.366807
0.0485868
0.37155
0.0502779
0.376524
0.0517887
0.381716
0.0531135
0.387109
0.0542474
0.392686
0.0551873
0.398425
0.0559313
0.404303
0.0564798
0.410295
0.0568348
0.416375
0.0570007
0.422515
0.0569836