/*--------------------------------*- C++ -*----------------------------------*\
  =========                 |
  \\      /  F ield         | OpenFOAM: The Open Source CFD Toolbox
   \\    /   O peration     | Website:  https://openfoam.org
    \\  /    A nd           | Version:  dev
     \\/     M anipulation  |
\*---------------------------------------------------------------------------*/
FoamFile
{
    version     2.0;
    format      ascii;
    class       volVectorField;
    location    "2.7";
    object      U;
}
// * * * * * * * * * * * * * * * * * * * * * * * * * * * * * * * * * * * * * //

dimensions      [0 1 -1 0 0 0 0];

internalField   nonuniform List<vector> 
2790
(
(9.94399 0 0.0205243)
(9.87571 0 0.0295901)
(9.77519 0 0.0359932)
(9.6494 0 0.0425612)
(9.50403 0 0.0493917)
(9.33999 0 0.0564357)
(9.15644 0 0.0638243)
(8.95249 0 0.0717209)
(8.7273 0 0.0802652)
(8.47988 0 0.089584)
(8.20904 0 0.0998042)
(7.91339 0 0.111056)
(7.5914 0 0.123471)
(7.24147 0 0.137175)
(6.862 0 0.152282)
(6.45145 0 0.168878)
(6.00852 0 0.187004)
(5.53233 0 0.206624)
(5.02261 0 0.227592)
(4.48011 0 0.249611)
(3.90683 0 0.272173)
(3.30653 0 0.294519)
(2.68501 0 0.31561)
(2.05038 0 0.334275)
(1.4116 0 0.350591)
(0.797884 0 0.37287)
(0.110534 0 0.324971)
(-0.469531 0 -0.114874)
(-0.453777 0 -0.297088)
(-0.231148 0 -0.423815)
(9.9985 0 0.0407066)
(9.98145 0 0.0623902)
(9.93572 0 0.0791513)
(9.86413 0 0.0966396)
(9.77091 0 0.115142)
(9.65707 0 0.13451)
(9.52195 0 0.154999)
(9.36471 0 0.176969)
(9.18455 0 0.200735)
(8.98047 0 0.226578)
(8.75129 0 0.254773)
(8.49563 0 0.285589)
(8.21191 0 0.319276)
(7.89851 0 0.356047)
(7.55371 0 0.396041)
(7.17585 0 0.439279)
(6.76343 0 0.485603)
(6.3153 0 0.534592)
(5.8309 0 0.58546)
(5.31054 0 0.636944)
(4.75583 0 0.687186)
(4.17011 0 0.733622)
(3.55903 0 0.772921)
(2.93132 0 0.801055)
(2.29975 0 0.813707)
(1.6928 0 0.807209)
(1.10702 0 0.747189)
(0.658813 0 0.547868)
(0.186308 0 0.224519)
(-0.00819165 0 -0.453747)
(9.99559 0 0.0432131)
(9.97555 0 0.0752841)
(9.93178 0 0.103365)
(9.86486 0 0.132396)
(9.77772 0 0.16309)
(9.67147 0 0.195434)
(9.54577 0 0.229783)
(9.4 0 0.266647)
(9.23349 0 0.306517)
(9.04544 0 0.349855)
(8.83486 0 0.39712)
(8.60056 0 0.448768)
(8.34117 0 0.505236)
(8.0552 0 0.566902)
(7.74105 0 0.634043)
(7.39711 0 0.706755)
(7.02176 0 0.784851)
(6.61361 0 0.867726)
(6.17159 0 0.954185)
(5.6953 0 1.04223)
(5.18531 0 1.12885)
(4.64367 0 1.20974)
(4.07453 0 1.2791)
(3.48514 0 1.32926)
(2.88665 0 1.35001)
(2.29931 0 1.32635)
(1.73172 0 1.22069)
(1.21616 0 0.972928)
(0.701084 0 0.570081)
(0.357993 0 -0.156642)
(9.99403 0 0.0495078)
(9.9718 0 0.0932237)
(9.92786 0 0.133598)
(9.86221 0 0.174244)
(9.77687 0 0.216476)
(9.6729 0 0.260711)
(9.55021 0 0.307486)
(9.40835 0 0.357476)
(9.24686 0 0.411355)
(9.06513 0 0.469771)
(8.86246 0 0.533368)
(8.63794 0 0.602786)
(8.39056 0 0.678651)
(8.11921 0 0.761526)
(7.82267 0 0.851862)
(7.49967 0 0.949904)
(7.1489 0 1.05556)
(6.76909 0 1.16824)
(6.35915 0 1.28659)
(5.91827 0 1.40823)
(5.44622 0 1.52941)
(4.94371 0 1.64461)
(4.41291 0 1.74606)
(3.85804 0 1.82312)
(3.28563 0 1.86126)
(2.70625 0 1.84021)
(2.12553 0 1.72589)
(1.55418 0 1.47776)
(0.957901 0 1.0836)
(0.509407 0 0.502233)
(9.99331 0 0.0572247)
(9.96993 0 0.110981)
(9.92591 0 0.162138)
(9.86142 0 0.213392)
(9.77793 0 0.266412)
(9.67627 0 0.321978)
(9.55643 0 0.380774)
(9.41807 0 0.443567)
(9.2608 0 0.511139)
(9.08413 0 0.584255)
(8.88747 0 0.663671)
(8.67012 0 0.750144)
(8.4313 0 0.844409)
(8.17014 0 0.947148)
(7.88574 0 1.05893)
(7.57713 0 1.18011)
(7.2433 0 1.3107)
(6.88325 0 1.45018)
(6.49593 0 1.5972)
(6.08039 0 1.74927)
(5.63584 0 1.90234)
(5.16182 0 2.05022)
(4.65851 0 2.18406)
(4.12699 0 2.29161)
(3.56922 0 2.35642)
(2.98874 0 2.35718)
(2.38672 0 2.26481)
(1.76631 0 2.04751)
(1.08995 0 1.69127)
(0.536634 0 1.15402)
(9.99302 0 0.0655522)
(9.96922 0 0.128729)
(9.92554 0 0.190155)
(9.86249 0 0.251898)
(9.78122 0 0.315646)
(9.68236 0 0.382398)
(9.56589 0 0.452963)
(9.43157 0 0.528198)
(9.27903 0 0.608982)
(9.10785 0 0.696188)
(8.91753 0 0.790682)
(8.70746 0 0.893323)
(8.47698 0 1.00495)
(8.22534 0 1.12634)
(7.95179 0 1.25815)
(7.65552 0 1.40085)
(7.33565 0 1.55456)
(6.99126 0 1.71886)
(6.62131 0 1.89252)
(6.22464 0 2.07316)
(5.79994 0 2.25675)
(5.34573 0 2.43708)
(4.86044 0 2.60505)
(4.34247 0 2.74806)
(3.79021 0 2.84937)
(3.20243 0 2.88802)
(2.57647 0 2.83805)
(1.9134 0 2.67144)
(1.17271 0 2.37384)
(0.549953 0 1.89425)
(9.99297 0 0.074091)
(9.96926 0 0.146347)
(9.92635 0 0.217533)
(9.86504 0 0.289357)
(9.78636 0 0.363436)
(9.69076 0 0.440921)
(9.57823 0 0.522766)
(9.44856 0 0.609926)
(9.30146 0 0.703377)
(9.13656 0 0.804089)
(8.95339 0 0.913024)
(8.75141 0 1.03113)
(8.53002 0 1.15933)
(8.28853 0 1.29849)
(8.02622 0 1.44937)
(7.7423 0 1.61253)
(7.43589 0 1.78821)
(7.10599 0 1.97615)
(6.7514 0 2.17536)
(6.37062 0 2.38373)
(5.96174 0 2.59762)
(5.52231 0 2.81123)
(5.04924 0 3.01597)
(4.53877 0 3.19976)
(3.98647 0 3.34646)
(3.38777 0 3.43574)
(2.73716 0 3.44309)
(2.03618 0 3.34129)
(1.24172 0 3.11339)
(0.563504 0 2.69298)
(9.99306 0 0.0826068)
(9.9698 0 0.163644)
(9.92805 0 0.244107)
(9.86881 0 0.325556)
(9.79306 0 0.40954)
(9.70117 0 0.497316)
(9.59311 0 0.589962)
(9.46872 0 0.68853)
(9.32777 0 0.794082)
(9.16991 0 0.907676)
(8.99476 0 1.03036)
(8.8018 0 1.16318)
(8.59048 0 1.30714)
(8.36014 0 1.4632)
(8.11005 0 1.63224)
(7.83939 0 1.81493)
(7.54717 0 2.01169)
(7.23223 0 2.2225)
(6.89307 0 2.44668)
(6.52774 0 2.68259)
(6.13369 0 2.92721)
(5.70749 0 3.17558)
(5.24466 0 3.42014)
(4.73953 0 3.64995)
(4.18529 0 3.84997)
(3.57462 0 4.00062)
(2.89943 0 4.07765)
(2.16207 0 4.05215)
(1.3161 0 3.90149)
(0.583215 0 3.53996)
(9.99326 0 0.0909498)
(9.97071 0 0.180452)
(9.93044 0 0.269733)
(9.87358 0 0.360329)
(9.80111 0 0.453754)
(9.71334 0 0.551335)
(9.61025 0 0.654254)
(9.49172 0 0.763651)
(9.35756 0 0.880669)
(9.2075 0 1.00645)
(9.04118 0 1.14213)
(8.85816 0 1.28883)
(8.65792 0 1.44767)
(8.43982 0 1.61972)
(8.20315 0 1.80597)
(7.94701 0 2.00728)
(7.67031 0 2.22428)
(7.37168 0 2.45727)
(7.04932 0 2.70599)
(6.70081 0 2.96945)
(6.32291 0 3.24549)
(5.91125 0 3.53031)
(5.46002 0 3.8178)
(4.96173 0 4.09868)
(4.4072 0 4.35954)
(3.78626 0 4.58177)
(3.08749 0 4.74077)
(2.31268 0 4.80419)
(1.41064 0 4.74086)
(0.614315 0 4.44173)
(9.99352 0 0.0990164)
(9.9719 0 0.196628)
(9.93338 0 0.294269)
(9.8792 0 0.393515)
(9.81033 0 0.495877)
(9.72707 0 0.602731)
(9.6294 0 0.715343)
(9.51725 0 0.834938)
(9.39048 0 0.962731)
(9.24888 0 1.09994)
(9.09216 0 1.24779)
(8.91994 0 1.40748)
(8.73175 0 1.58024)
(8.527 0 1.76726)
(8.30498 0 1.96969)
(8.06477 0 2.18857)
(7.80521 0 2.42484)
(7.52477 0 2.67916)
(7.22138 0 2.95186)
(6.89225 0 3.24269)
(6.53353 0 3.55059)
(6.14002 0 3.87323)
(5.70466 0 4.20638)
(5.21817 0 4.54301)
(4.66877 0 4.87204)
(4.04273 0 5.17657)
(3.32364 0 5.43194)
(2.50977 0 5.60166)
(1.5419 0 5.64326)
(0.664081 0 5.41786)
(9.99384 0 0.106731)
(9.97329 0 0.212055)
(9.93677 0 0.317585)
(9.88553 0 0.424966)
(9.82057 0 0.535725)
(9.74215 0 0.65128)
(9.65031 0 0.772968)
(9.54501 0 0.902083)
(9.42616 0 1.03991)
(9.29364 0 1.18774)
(9.14722 0 1.34685)
(8.98659 0 1.51857)
(8.81135 0 1.70419)
(8.62098 0 1.90505)
(8.41483 0 2.12246)
(8.192 0 2.35771)
(7.95132 0 2.61203)
(7.6912 0 2.88655)
(7.40946 0 3.18222)
(7.10305 0 3.49972)
(6.76778 0 3.83925)
(6.39781 0 4.20024)
(5.9851 0 4.5808)
(5.51872 0 4.97688)
(4.98412 0 5.38083)
(4.36312 0 5.77906)
(3.63187 0 6.14869)
(2.78018 0 6.45031)
(1.73354 0 6.62828)
(0.744893 0 6.50297)
(9.9942 0 0.114036)
(9.97486 0 0.226636)
(9.94053 0 0.339565)
(9.89247 0 0.454545)
(9.83166 0 0.573134)
(9.75841 0 0.696787)
(9.67275 0 0.826895)
(9.5747 0 0.964815)
(9.46426 0 1.11189)
(9.34135 0 1.26946)
(9.20584 0 1.4389)
(9.05749 0 1.62158)
(8.89602 0 1.81892)
(8.72099 0 2.03237)
(8.53185 0 2.26342)
(8.32779 0 2.51358)
(8.10774 0 2.78443)
(7.87017 0 3.07758)
(7.61294 0 3.39467)
(7.33306 0 3.73734)
(7.02626 0 4.1072)
(6.68653 0 4.50568)
(6.30534 0 4.93366)
(5.87064 0 5.39091)
(5.36546 0 5.87475)
(4.76674 0 6.37762)
(4.04073 0 6.88265)
(3.16161 0 7.35307)
(2.02495 0 7.723)
(0.880867 0 7.75711)
(9.99459 0 0.120886)
(9.97656 0 0.240291)
(9.94459 0 0.360108)
(9.89991 0 0.482135)
(9.84349 0 0.607962)
(9.77565 0 0.739079)
(9.69648 0 0.87692)
(9.60605 0 1.02289)
(9.5044 0 1.17838)
(9.39157 0 1.34479)
(9.26748 0 1.52354)
(9.13203 0 1.71606)
(8.98502 0 1.92388)
(8.82618 0 2.14854)
(8.65506 0 2.3917)
(8.47105 0 2.6551)
(8.27325 0 2.94064)
(8.06036 0 3.25038)
(7.83051 0 3.58664)
(7.58102 0 3.95203)
(7.30802 0 4.34957)
(7.00591 0 4.78276)
(6.66654 0 5.25557)
(6.27791 0 5.7723)
(5.82206 0 6.33693)
(5.27229 0 6.95161)
(4.58459 0 7.61288)
(3.71026 0 8.30036)
(2.4886 0 8.95805)
(1.12477 0 9.29356)
(9.99501 0 0.127247)
(9.97837 0 0.252957)
(9.94888 0 0.379131)
(9.90775 0 0.507633)
(9.85591 0 0.64009)
(9.79371 0 0.778017)
(9.72128 0 0.922884)
(9.63874 0 1.07613)
(9.54623 0 1.23919)
(9.44383 0 1.41348)
(9.3316 0 1.60048)
(9.20953 0 1.80168)
(9.07758 0 2.01865)
(8.9356 0 2.25304)
(8.78337 0 2.50664)
(8.62049 0 2.78139)
(8.44634 0 3.07944)
(8.26001 0 3.40326)
(8.0601 0 3.75575)
(7.84457 0 4.14036)
(7.6104 0 4.5614)
(7.35319 0 5.02428)
(7.06631 0 5.53593)
(6.73968 0 6.10537)
(6.35738 0 6.74431)
(5.89381 0 7.46787)
(5.3009 0 8.29526)
(4.50942 0 9.24714)
(3.26971 0 10.3417)
(1.60571 0 11.3602)
(9.99544 0 0.13309)
(9.98025 0 0.264583)
(9.95336 0 0.396562)
(9.91591 0 0.530949)
(9.8688 0 0.669398)
(9.81242 0 0.813448)
(9.74693 0 0.964591)
(9.67252 0 1.12429)
(9.58938 0 1.294)
(9.49771 0 1.47518)
(9.39766 0 1.66931)
(9.28934 0 1.87793)
(9.17287 0 2.10265)
(9.04828 0 2.34518)
(8.91558 0 2.6074)
(8.77465 0 2.89138)
(8.62525 0 3.19947)
(8.46694 0 3.53443)
(8.29899 0 3.89956)
(8.12027 0 4.29895)
(7.92908 0 4.73782)
(7.72288 0 5.22301)
(7.49785 0 5.76374)
(7.2481 0 6.37284)
(6.96419 0 7.06876)
(6.63063 0 7.87936)
(6.21468 0 8.85015)
(5.66697 0 10.0643)
(4.69232 0 11.7304)
(2.68934 0 14.5956)
(0.164517 0 -0.173425)
(0.372966 0 -0.152779)
(0.591401 0 -0.124557)
(0.783417 0 -0.100303)
(0.943718 0 -0.0810458)
(1.07797 0 -0.0658895)
(1.19247 0 -0.053957)
(1.29174 0 -0.0445493)
(1.37883 0 -0.0370611)
(1.45592 0 -0.0309906)
(1.52456 0 -0.0259697)
(1.58591 0 -0.0217237)
(1.64074 0 -0.0179362)
(1.68913 0 -0.0141085)
(1.72989 0 -0.00968007)
(1.76067 0 -0.00454446)
(1.77957 0 0.00060148)
(1.78722 0 0.00456028)
(1.78619 0 0.00656677)
(1.77854 0 0.00736062)
(1.76511 0 0.0076067)
(1.74774 0 0.00719348)
(1.73103 0 0.00607492)
(1.72086 0 0.00446696)
(1.72224 0 0.00209941)
(1.73684 0 -0.000656081)
(1.76394 0 -0.00374089)
(1.80231 0 -0.00718974)
(1.84988 0 -0.0104818)
(1.91328 0 -0.0114746)
(0.126751 0 -0.368987)
(0.324583 0 -0.339745)
(0.520318 0 -0.284515)
(0.69479 0 -0.234634)
(0.843764 0 -0.194562)
(0.971894 0 -0.162932)
(1.08417 0 -0.138021)
(1.18418 0 -0.118358)
(1.27437 0 -0.102628)
(1.35642 0 -0.0897433)
(1.43151 0 -0.0789522)
(1.50056 0 -0.0697811)
(1.56443 0 -0.0616749)
(1.62385 0 -0.0534933)
(1.6787 0 -0.0437132)
(1.72733 0 -0.0319831)
(1.76722 0 -0.0201472)
(1.79744 0 -0.0103884)
(1.82086 0 -0.001658)
(1.84053 0 0.00738451)
(1.85437 0 0.0131334)
(1.86203 0 0.013756)
(1.8679 0 0.00873159)
(1.87569 0 -0.000383369)
(1.88445 0 -0.0109677)
(1.89514 0 -0.0211224)
(1.90743 0 -0.0300773)
(1.92078 0 -0.0370488)
(1.9357 0 -0.0409059)
(1.95937 0 -0.0382795)
(0.0922339 0 -0.566766)
(0.255442 0 -0.52801)
(0.403361 0 -0.44695)
(0.536212 0 -0.372713)
(0.648957 0 -0.312705)
(0.745841 0 -0.265001)
(0.830451 0 -0.227143)
(0.905334 0 -0.19695)
(0.972297 0 -0.172459)
(1.03256 0 -0.152053)
(1.08682 0 -0.134675)
(1.13551 0 -0.119878)
(1.17924 0 -0.107324)
(1.21921 0 -0.0954401)
(1.25645 0 -0.0808487)
(1.29011 0 -0.0614803)
(1.31699 0 -0.0415761)
(1.33299 0 -0.0300642)
(1.34411 0 -0.0256791)
(1.35167 0 -0.0192878)
(1.34026 0 -0.00895922)
(1.30896 0 -0.00154314)
(1.25893 0 6.71691e-05)
(1.19753 0 -0.00285705)
(1.13575 0 -0.00691737)
(1.08024 0 -0.0104058)
(1.03795 0 -0.0129649)
(1.00239 0 -0.0170684)
(0.981203 0 -0.0222736)
(0.989071 0 -0.0283309)
(0.0610436 0 -0.710175)
(0.180172 0 -0.655438)
(0.270015 0 -0.551775)
(0.353617 0 -0.459424)
(0.421186 0 -0.385151)
(0.477819 0 -0.32601)
(0.525408 0 -0.279025)
(0.565465 0 -0.241493)
(0.599235 0 -0.210954)
(0.6276 0 -0.185292)
(0.65089 0 -0.163024)
(0.668828 0 -0.143613)
(0.680871 0 -0.127391)
(0.68756 0 -0.114037)
(0.692189 0 -0.100579)
(0.697397 0 -0.0838406)
(0.705158 0 -0.0593857)
(0.679449 0 -0.0292133)
(0.602514 0 -0.00424673)
(0.522976 0 0.0178381)
(0.466999 0 0.0419416)
(0.411901 0 0.0588196)
(0.355803 0 0.0654668)
(0.301428 0 0.0613315)
(0.25309 0 0.0472622)
(0.215108 0 0.0265171)
(0.200883 0 0.00459308)
(0.207683 0 -0.0154581)
(0.227943 0 -0.0389381)
(0.274521 0 -0.0618502)
(0.0296604 0 -0.802647)
(0.096579 0 -0.726882)
(0.120947 0 -0.604265)
(0.150501 0 -0.500125)
(0.166007 0 -0.416263)
(0.175041 0 -0.349202)
(0.177415 0 -0.295779)
(0.17389 0 -0.253037)
(0.16528 0 -0.218305)
(0.152383 0 -0.189165)
(0.135688 0 -0.163585)
(0.114941 0 -0.14013)
(0.0883336 0 -0.117976)
(0.0472433 0 -0.0963313)
(-0.00746909 0 -0.0721578)
(-0.0708507 0 -0.0414663)
(-0.142309 0 -0.00302299)
(-0.182719 0 0.0309212)
(-0.214769 0 0.0502641)
(-0.24799 0 0.0594044)
(-0.276379 0 0.0679021)
(-0.302328 0 0.0754908)
(-0.323349 0 0.0756448)
(-0.338825 0 0.0658423)
(-0.349087 0 0.0471828)
(-0.355223 0 0.022705)
(-0.354927 0 -0.00340552)
(-0.343738 0 -0.0278176)
(-0.333641 0 -0.0512562)
(-0.326769 0 -0.0690169)
(-0.00390129 0 -0.834918)
(0.00367995 0 -0.735102)
(-0.0399612 0 -0.596999)
(-0.0692077 0 -0.486217)
(-0.110388 0 -0.396395)
(-0.154586 0 -0.324643)
(-0.203175 0 -0.267358)
(-0.255631 0 -0.221202)
(-0.31161 0 -0.183179)
(-0.370607 0 -0.150827)
(-0.431654 0 -0.122198)
(-0.493146 0 -0.0959004)
(-0.553427 0 -0.0712453)
(-0.611533 0 -0.0482603)
(-0.666153 0 -0.0270421)
(-0.715192 0 -0.00628469)
(-0.749145 0 0.0135014)
(-0.773324 0 0.0342988)
(-0.794206 0 0.0544797)
(-0.811374 0 0.0686092)
(-0.824008 0 0.0769243)
(-0.831394 0 0.0810087)
(-0.833526 0 0.0780132)
(-0.831944 0 0.06639)
(-0.82894 0 0.0469621)
(-0.826384 0 0.0223848)
(-0.824242 0 -0.00385547)
(-0.81996 0 -0.030276)
(-0.819467 0 -0.0539799)
(-0.822039 0 -0.0717248)
(-0.0437762 0 -0.798978)
(-0.10049 0 -0.675241)
(-0.20724 0 -0.532365)
(-0.299373 0 -0.420164)
(-0.395631 0 -0.330383)
(-0.490393 0 -0.259416)
(-0.582993 0 -0.203479)
(-0.672088 0 -0.15934)
(-0.756513 0 -0.124047)
(-0.835435 0 -0.0951865)
(-0.908368 0 -0.070869)
(-0.974884 0 -0.0497142)
(-1.0345 0 -0.0308419)
(-1.08708 0 -0.0135974)
(-1.13121 0 0.00258175)
(-1.16512 0 0.018455)
(-1.19178 0 0.0344547)
(-1.21213 0 0.0501345)
(-1.22653 0 0.0638516)
(-1.23564 0 0.0738528)
(-1.2397 0 0.0795453)
(-1.23882 0 0.0806413)
(-1.23386 0 0.0754991)
(-1.2268 0 0.0631057)
(-1.21999 0 0.0440388)
(-1.21524 0 0.0203203)
(-1.21298 0 -0.00532928)
(-1.21235 0 -0.0306293)
(-1.21594 0 -0.0541481)
(-1.22057 0 -0.071654)
(-0.0892086 0 -0.695316)
(-0.207094 0 -0.553537)
(-0.375071 0 -0.412715)
(-0.523796 0 -0.305887)
(-0.665516 0 -0.224464)
(-0.795992 0 -0.162784)
(-0.914657 0 -0.115967)
(-1.02155 0 -0.0805587)
(-1.11686 0 -0.053811)
(-1.20096 0 -0.0333803)
(-1.27458 0 -0.0173977)
(-1.33691 0 -0.0046075)
(-1.38924 0 0.00636054)
(-1.43258 0 0.0163725)
(-1.46884 0 0.0262837)
(-1.49944 0 0.0369545)
(-1.52386 0 0.0485258)
(-1.5417 0 0.0599364)
(-1.55315 0 0.0695435)
(-1.55887 0 0.076103)
(-1.55953 0 0.0789987)
(-1.55582 0 0.0776763)
(-1.54899 0 0.0710813)
(-1.54094 0 0.0585374)
(-1.53382 0 0.0404462)
(-1.52933 0 0.0183487)
(-1.52826 0 -0.00560738)
(-1.53068 0 -0.0295444)
(-1.53712 0 -0.0520177)
(-1.54261 0 -0.0683653)
(-0.140855 0 -0.525859)
(-0.318183 0 -0.376141)
(-0.541606 0 -0.248794)
(-0.737009 0 -0.157779)
(-0.913201 0 -0.0915162)
(-1.06729 0 -0.0446035)
(-1.19704 0 -0.0141863)
(-1.30547 0 0.00516512)
(-1.39644 0 0.017561)
(-1.47318 0 0.0256508)
(-1.53807 0 0.031172)
(-1.59439 0 0.0356171)
(-1.6431 0 0.0397647)
(-1.68491 0 0.0441249)
(-1.72027 0 0.0491368)
(-1.74938 0 0.0551007)
(-1.77219 0 0.0618971)
(-1.78867 0 0.0687083)
(-1.79904 0 0.0742585)
(-1.80388 0 0.0774764)
(-1.80396 0 0.0777141)
(-1.80025 0 0.0744068)
(-1.79412 0 0.0668094)
(-1.78738 0 0.0544223)
(-1.78192 0 0.0374958)
(-1.77932 0 0.0171911)
(-1.78058 0 -0.00480541)
(-1.78626 0 -0.027001)
(-1.79541 0 -0.0479447)
(-1.80173 0 -0.0627696)
(-0.203735 0 -0.305749)
(-0.450755 0 -0.155641)
(-0.725093 0 -0.0298171)
(-0.940386 0 0.033676)
(-1.11873 0 0.0651908)
(-1.26492 0 0.0786696)
(-1.38791 0 0.0838302)
(-1.49255 0 0.084668)
(-1.58186 0 0.0830991)
(-1.65835 0 0.0804199)
(-1.72403 0 0.0775195)
(-1.78047 0 0.0748489)
(-1.82874 0 0.0726574)
(-1.86964 0 0.071283)
(-1.90377 0 0.07111)
(-1.93158 0 0.0723211)
(-1.95335 0 0.0746262)
(-1.9693 0 0.0772055)
(-1.97972 0 0.0789793)
(-1.98508 0 0.0790486)
(-1.98612 0 0.0768415)
(-1.98393 0 0.0718851)
(-1.97995 0 0.0636167)
(-1.97586 0 0.0515997)
(-1.97329 0 0.0359272)
(-1.97369 0 0.0174574)
(-1.97814 0 -0.00249763)
(-1.98739 0 -0.0229036)
(-1.99934 0 -0.0422051)
(-2.0066 0 -0.0556248)
(-0.266985 0 0.0656601)
(-0.545811 0 0.177201)
(-0.829842 0 0.20492)
(-1.05455 0 0.213389)
(-1.24072 0 0.208204)
(-1.3946 0 0.196125)
(-1.52223 0 0.18123)
(-1.62863 0 0.165583)
(-1.71792 0 0.150332)
(-1.79334 0 0.136316)
(-1.85749 0 0.124077)
(-1.91228 0 0.113658)
(-1.95897 0 0.10483)
(-1.99831 0 0.0975904)
(-2.03094 0 0.092212)
(-2.05752 0 0.0888254)
(-2.07866 0 0.0870151)
(-2.09474 0 0.0858455)
(-2.10601 0 0.084254)
(-2.11279 0 0.0814636)
(-2.11574 0 0.0770649)
(-2.11598 0 0.0707591)
(-2.11499 0 0.0621138)
(-2.11437 0 0.050664)
(-2.11551 0 0.0362974)
(-2.11969 0 0.019569)
(-2.12812 0 0.00148553)
(-2.14092 0 -0.0171285)
(-2.15579 0 -0.0348105)
(-2.16411 0 -0.0470722)
(-0.288496 0 0.434781)
(-0.597895 0 0.477343)
(-0.915435 0 0.451182)
(-1.15767 0 0.409156)
(-1.35029 0 0.36322)
(-1.50402 0 0.319079)
(-1.62832 0 0.279588)
(-1.73037 0 0.245305)
(-1.81515 0 0.215538)
(-1.88617 0 0.189967)
(-1.94634 0 0.168582)
(-1.99791 0 0.150802)
(-2.04211 0 0.135668)
(-2.07942 0 0.122763)
(-2.11033 0 0.112383)
(-2.13574 0 0.104769)
(-2.15656 0 0.0993902)
(-2.17334 0 0.0950546)
(-2.18616 0 0.0905557)
(-2.19508 0 0.0852)
(-2.20059 0 0.0788286)
(-2.20382 0 0.0714112)
(-2.20631 0 0.0626385)
(-2.20963 0 0.0519379)
(-2.21495 0 0.0389141)
(-2.22331 0 0.0237891)
(-2.23589 0 0.00734471)
(-2.25283 0 -0.00954999)
(-2.27089 0 -0.0256963)
(-2.28045 0 -0.0370182)
(-0.332021 0 0.857082)
(-0.68941 0 0.835388)
(-1.03434 0 0.720377)
(-1.27658 0 0.608565)
(-1.45955 0 0.514737)
(-1.6007 0 0.435909)
(-1.71226 0 0.37124)
(-1.80325 0 0.319067)
(-1.87899 0 0.275688)
(-1.94237 0 0.239195)
(-1.99624 0 0.209477)
(-2.04325 0 0.185379)
(-2.08443 0 0.164761)
(-2.11951 0 0.146597)
(-2.14859 0 0.131502)
(-2.17281 0 0.120175)
(-2.19362 0 0.111972)
(-2.21168 0 0.10519)
(-2.22677 0 0.0982719)
(-2.23849 0 0.0905924)
(-2.24704 0 0.0823825)
(-2.25356 0 0.0740249)
(-2.25981 0 0.0653545)
(-2.26737 0 0.0555972)
(-2.27722 0 0.04397)
(-2.29015 0 0.0303512)
(-2.30726 0 0.0153922)
(-2.32877 0 -8.06889e-06)
(-2.35013 0 -0.014766)
(-2.36111 0 -0.0252654)
(-0.419364 0 1.35882)
(-0.850157 0 1.24227)
(-1.21242 0 0.994597)
(-1.42508 0 0.790599)
(-1.57457 0 0.648337)
(-1.68833 0 0.536219)
(-1.7766 0 0.44849)
(-1.84959 0 0.382294)
(-1.91244 0 0.328342)
(-1.96554 0 0.282162)
(-2.01097 0 0.245373)
(-2.05237 0 0.216807)
(-2.09055 0 0.192129)
(-2.12368 0 0.16921)
(-2.15087 0 0.149583)
(-2.17378 0 0.13515)
(-2.19481 0 0.125137)
(-2.21486 0 0.11683)
(-2.2331 0 0.108)
(-2.2483 0 0.0981179)
(-2.26026 0 0.0880473)
(-2.27025 0 0.0788244)
(-2.28038 0 0.0704781)
(-2.29241 0 0.0618933)
(-2.30716 0 0.0517398)
(-2.32501 0 0.0395009)
(-2.34691 0 0.025776)
(-2.37312 0 0.0116499)
(-2.39827 0 -0.00180536)
(-2.41085 0 -0.0115058)
(-0.603674 0 2.23628)
(-1.12116 0 1.84954)
(-1.48884 0 1.2842)
(-1.61654 0 0.905494)
(-1.69397 0 0.738919)
(-1.76564 0 0.611089)
(-1.81963 0 0.506292)
(-1.86773 0 0.432087)
(-1.91607 0 0.371885)
(-1.95773 0 0.316372)
(-1.99248 0 0.273974)
(-2.02733 0 0.244435)
(-2.06348 0 0.218296)
(-2.09575 0 0.190996)
(-2.1211 0 0.166398)
(-2.14227 0 0.149373)
(-2.16373 0 0.138949)
(-2.18675 0 0.130332)
(-2.20931 0 0.120078)
(-2.22885 0 0.107877)
(-2.24452 0 0.0956533)
(-2.25792 0 0.0855084)
(-2.2719 0 0.0777547)
(-2.28862 0 0.0706979)
(-2.30862 0 0.0621939)
(-2.33175 0 0.0512333)
(-2.35859 0 0.0384438)
(-2.38951 0 0.0253716)
(-2.41885 0 0.0133468)
(-2.43344 0 0.00461911)
(9.9959 0 0.138488)
(9.98224 0 0.275324)
(9.95808 0 0.412654)
(9.92448 0 0.552446)
(9.88234 0 0.696376)
(9.83205 0 0.845996)
(9.77383 0 1.00281)
(9.70794 0 1.1683)
(9.63466 0 1.34391)
(9.55426 0 1.53113)
(9.46701 0 1.73143)
(9.37318 0 1.94636)
(9.27302 0 2.17755)
(9.16681 0 2.42674)
(9.05478 0 2.69585)
(8.93717 0 2.987)
(8.81415 0 3.30264)
(8.68588 0 3.64567)
(8.55243 0 4.01958)
(8.4138 0 4.42877)
(8.26992 0 4.87885)
(8.1207 0 5.37729)
(7.96609 0 5.93425)
(7.80639 0 6.56408)
(7.64286 0 7.28785)
(7.48055 0 8.13815)
(7.33288 0 9.16897)
(7.29033 0 10.4739)
(7.75258 0 12.198)
(7.94315 0 14.9175)
(9.99638 0 0.143451)
(9.98433 0 0.285186)
(9.96303 0 0.427393)
(9.93346 0 0.572071)
(9.89648 0 0.720909)
(9.8525 0 0.875467)
(9.80181 0 1.03725)
(9.74471 0 1.20773)
(9.68157 0 1.38837)
(9.61276 0 1.58062)
(9.53867 0 1.78596)
(9.4597 0 2.00591)
(9.37631 0 2.24209)
(9.28897 0 2.49623)
(9.19821 0 2.77019)
(9.10459 0 3.06611)
(9.00878 0 3.38639)
(8.91152 0 3.73388)
(8.81374 0 4.11204)
(8.71661 0 4.52512)
(8.62175 0 4.97852)
(8.53153 0 5.47926)
(8.44968 0 6.03665)
(8.38249 0 6.66327)
(8.34117 0 7.37629)
(8.34786 0 8.19909)
(8.44156 0 9.16169)
(8.67831 0 10.2972)
(9.32721 0 11.5496)
(9.82062 0 12.6319)
(9.99688 0 0.147891)
(9.98649 0 0.294005)
(9.96816 0 0.440554)
(9.94277 0 0.589555)
(9.91112 0 0.742702)
(9.87365 0 0.901545)
(9.83069 0 1.06758)
(9.78261 0 1.24226)
(9.72985 0 1.42703)
(9.67288 0 1.6233)
(9.6122 0 1.83252)
(9.54838 0 2.05618)
(9.48202 0 2.29582)
(9.41382 0 2.55309)
(9.34459 0 2.82981)
(9.27524 0 3.12797)
(9.20688 0 3.44983)
(9.14083 0 3.79802)
(9.0788 0 4.17567)
(9.02299 0 4.58652)
(8.97643 0 5.03516)
(8.94339 0 5.52725)
(8.93018 0 6.06976)
(8.94633 0 6.67105)
(9.00633 0 7.34051)
(9.13234 0 8.0867)
(9.35536 0 8.91133)
(9.68477 0 9.80302)
(10.2499 0 10.7099)
(10.9364 0 11.421)
(9.9974 0 0.151757)
(9.98872 0 0.301673)
(9.97344 0 0.451972)
(9.95233 0 0.60467)
(9.92614 0 0.761453)
(9.89532 0 0.923854)
(9.86024 0 1.09335)
(9.82135 0 1.27135)
(9.77913 0 1.45927)
(9.73416 0 1.65848)
(9.68703 0 1.87035)
(9.63845 0 2.09629)
(9.5892 0 2.33776)
(9.54017 0 2.59631)
(9.49242 0 2.87358)
(9.44717 0 3.17137)
(9.40592 0 3.49169)
(9.37048 0 3.83678)
(9.34316 0 4.20923)
(9.32692 0 4.61199)
(9.3257 0 5.04847)
(9.34478 0 5.52248)
(9.39143 0 6.03813)
(9.47553 0 6.59937)
(9.61027 0 7.2089)
(9.81244 0 7.86634)
(10.1047 0 8.56448)
(10.4957 0 9.28855)
(11.0519 0 10.0283)
(11.843 0 10.6707)
(9.99792 0 0.155)
(9.991 0 0.3081)
(9.97881 0 0.461512)
(9.96206 0 0.617237)
(9.94141 0 0.776943)
(9.91733 0 0.942135)
(9.89022 0 1.11425)
(9.86059 0 1.29466)
(9.82898 0 1.48471)
(9.79604 0 1.6857)
(9.76247 0 1.89894)
(9.72908 0 2.12572)
(9.6968 0 2.36737)
(9.6667 0 2.62528)
(9.64004 0 2.90089)
(9.61829 0 3.19574)
(9.60323 0 3.51146)
(9.59704 0 3.84984)
(9.60241 0 4.21278)
(9.62272 0 4.60234)
(9.66229 0 5.02059)
(9.72664 0 5.46954)
(9.82283 0 5.9508)
(9.9598 0 6.46502)
(10.1486 0 7.01111)
(10.4022 0 7.58514)
(10.7379 0 8.17898)
(11.1672 0 8.77792)
(11.7129 0 9.37039)
(12.4637 0 9.8816)
(9.99845 0 0.157578)
(9.99329 0 0.313199)
(9.98424 0 0.469045)
(9.97188 0 0.627091)
(9.95681 0 0.78897)
(9.93949 0 0.956147)
(9.92037 0 1.13001)
(9.89998 0 1.31187)
(9.87894 0 1.503)
(9.85795 0 1.70462)
(9.83778 0 1.91792)
(9.81935 0 2.14408)
(9.8037 0 2.38427)
(9.79202 0 2.63967)
(9.78571 0 2.91149)
(9.78644 0 3.20094)
(9.79616 0 3.50927)
(9.81724 0 3.83771)
(9.85254 0 4.18749)
(9.90554 0 4.55972)
(9.98052 0 4.9553)
(10.0827 0 5.37469)
(10.2184 0 5.81761)
(10.3951 0 6.2826)
(10.6217 0 6.7664)
(10.9077 0 7.26321)
(11.2643 0 7.76382)
(11.6995 0 8.25268)
(12.214 0 8.71314)
(12.8874 0 9.10374)
(9.99898 0 0.159451)
(9.99559 0 0.316892)
(9.98968 0 0.47446)
(9.98171 0 0.634084)
(9.9722 0 0.797353)
(9.96161 0 0.965679)
(9.95041 0 1.14039)
(9.93918 0 1.32273)
(9.92856 0 1.51387)
(9.9193 0 1.71495)
(9.91224 0 1.92702)
(9.90835 0 2.15112)
(9.90874 0 2.38825)
(9.91471 0 2.63936)
(9.92775 0 2.9054)
(9.94958 0 3.18723)
(9.98225 0 3.48569)
(10.0281 0 3.80149)
(10.0901 0 4.13518)
(10.1715 0 4.48707)
(10.2762 0 4.85704)
(10.4089 0 5.2444)
(10.5748 0 5.64755)
(10.7798 0 6.0637)
(11.0303 0 6.48835)
(11.3328 0 6.91481)
(11.6932 0 7.33375)
(12.1157 0 7.73179)
(12.5941 0 8.09439)
(13.1974 0 8.40113)
(9.99951 0 0.160586)
(9.99787 0 0.319114)
(9.99507 0 0.477658)
(9.99145 0 0.638089)
(9.98744 0 0.80194)
(9.98349 0 0.97056)
(9.98009 0 1.1452)
(9.97783 0 1.32703)
(9.97738 0 1.51713)
(9.9795 0 1.7165)
(9.98509 0 1.92608)
(9.99515 0 2.14674)
(10.0108 0 2.37929)
(10.0335 0 2.62446)
(10.0645 0 2.88291)
(10.1058 0 3.15519)
(10.1593 0 3.44172)
(10.2273 0 3.74272)
(10.3124 0 4.05819)
(10.4177 0 4.38773)
(10.5466 0 4.73049)
(10.7029 0 5.08495)
(10.8907 0 5.44872)
(11.1143 0 5.81828)
(11.3781 0 6.18873)
(11.6857 0 6.55353)
(12.0399 0 6.90443)
(12.4424 0 7.23113)
(12.8853 0 7.52255)
(13.4266 0 7.76744)
(10 0 0.160955)
(10.0001 0 0.31981)
(10.0004 0 0.47856)
(10.001 0 0.639007)
(10.0024 0 0.802613)
(10.0049 0 0.970659)
(10.0091 0 1.14431)
(10.0156 0 1.32465)
(10.0249 0 1.51264)
(10.038 0 1.70918)
(10.0556 0 1.91506)
(10.0789 0 2.13097)
(10.1089 0 2.35755)
(10.147 0 2.5953)
(10.1947 0 2.8446)
(10.2535 0 3.1057)
(10.3254 0 3.37866)
(10.4126 0 3.66329)
(10.5173 0 3.9591)
(10.6422 0 4.26522)
(10.79 0 4.58027)
(10.9638 0 4.90221)
(11.1665 0 5.22827)
(11.4011 0 5.55475)
(11.6702 0 5.87689)
(11.9756 0 6.18888)
(12.3181 0 6.48385)
(12.6975 0 6.75401)
(13.1061 0 6.99106)
(13.5925 0 7.18818)
(10.0005 0 0.160535)
(10.0023 0 0.318937)
(10.0056 0 0.477106)
(10.0104 0 0.636762)
(10.017 0 0.79929)
(10.0258 0 0.96589)
(10.0373 0 1.13764)
(10.0521 0 1.31552)
(10.0708 0 1.5004)
(10.0942 0 1.69302)
(10.1232 0 1.89405)
(10.1588 0 2.10403)
(10.2021 0 2.32338)
(10.2543 0 2.55241)
(10.3169 0 2.79125)
(10.3913 0 3.03989)
(10.4793 0 3.29806)
(10.5827 0 3.56526)
(10.7035 0 3.84067)
(10.8439 0 4.12304)
(11.006 0 4.4107)
(11.192 0 4.70139)
(11.404 0 4.99224)
(11.6437 0 5.27968)
(11.9125 0 5.55942)
(12.2109 0 5.82651)
(12.5385 0 6.07543)
(12.894 0 6.30031)
(13.2703 0 6.49514)
(13.7091 0 6.65578)
(10.001 0 0.159313)
(10.0044 0 0.316466)
(10.0106 0 0.473256)
(10.0194 0 0.631308)
(10.031 0 0.791924)
(10.0458 0 0.956216)
(10.0643 0 1.12517)
(10.087 0 1.29966)
(10.1145 0 1.48044)
(10.1477 0 1.66814)
(10.1872 0 1.86327)
(10.2342 0 2.06623)
(10.2895 0 2.27727)
(10.3545 0 2.49649)
(10.4302 0 2.72383)
(10.5181 0 2.95903)
(10.6197 0 3.20161)
(10.7366 0 3.45082)
(10.8703 0 3.70559)
(11.0225 0 3.9645)
(11.1947 0 4.22572)
(11.3886 0 4.48698)
(11.6053 0 4.7455)
(11.8458 0 4.99804)
(12.1104 0 5.24089)
(12.3989 0 5.46997)
(12.7101 0 5.68097)
(13.0422 0 5.86954)
(13.389 0 6.03148)
(13.787 0 6.16427)
(10.0015 0 0.15728)
(10.0065 0 0.312383)
(10.0153 0 0.466992)
(10.028 0 0.622629)
(10.0444 0 0.780506)
(10.0649 0 0.941643)
(10.09 0 1.10693)
(10.1201 0 1.27714)
(10.1559 0 1.45291)
(10.198 0 1.63475)
(10.2472 0 1.82304)
(10.3044 0 2.01804)
(10.3706 0 2.21983)
(10.4467 0 2.42837)
(10.5339 0 2.64342)
(10.6333 0 2.86454)
(10.7462 0 3.09107)
(10.8739 0 3.32212)
(11.0174 0 3.55647)
(11.1782 0 3.79264)
(11.3572 0 4.02878)
(11.5554 0 4.26272)
(11.7733 0 4.49192)
(12.0114 0 4.71354)
(12.2692 0 4.92448)
(12.5461 0 5.12148)
(12.8406 0 5.30122)
(13.1506 0 5.46055)
(13.4709 0 5.59657)
(13.8338 0 5.70779)
(10.0019 0 0.154436)
(10.0084 0 0.306687)
(10.0199 0 0.458316)
(10.0361 0 0.610736)
(10.057 0 0.765065)
(10.0829 0 0.922227)
(10.1141 0 1.08302)
(10.1511 0 1.2481)
(10.1944 0 1.41801)
(10.2447 0 1.59315)
(10.3027 0 1.77377)
(10.3691 0 1.96)
(10.4448 0 2.1518)
(10.5306 0 2.34899)
(10.6276 0 2.55119)
(10.7365 0 2.75785)
(10.8585 0 2.9682)
(10.9945 0 3.18124)
(11.1453 0 3.39573)
(11.3119 0 3.61017)
(11.4947 0 3.82283)
(11.6944 0 4.03169)
(11.911 0 4.23453)
(12.1443 0 4.42892)
(12.3938 0 4.61235)
(12.6584 0 4.78223)
(12.9364 0 4.9361)
(13.226 0 5.07168)
(13.5226 0 5.187)
(13.8552 0 5.28121)
(10.0024 0 0.150785)
(10.0102 0 0.29939)
(10.0241 0 0.447252)
(10.0437 0 0.59567)
(10.0689 0 0.745664)
(10.0997 0 0.898066)
(10.1365 0 1.05357)
(10.1798 0 1.21275)
(10.23 0 1.37603)
(10.2877 0 1.54371)
(10.3535 0 1.71594)
(10.428 0 1.89274)
(10.5119 0 2.07396)
(10.606 0 2.25932)
(10.7109 0 2.44835)
(10.8276 0 2.64042)
(10.9567 0 2.83468)
(11.0988 0 3.03013)
(11.2546 0 3.22553)
(11.4246 0 3.41948)
(11.609 0 3.61035)
(11.808 0 3.79638)
(12.0213 0 3.97564)
(12.2484 0 4.14613)
(12.4886 0 4.30583)
(12.7407 0 4.45276)
(13.003 0 4.58507)
(13.2738 0 4.70116)
(13.5492 0 4.79972)
(13.8557 0 4.88031)
(10.0027 0 0.146341)
(10.0119 0 0.290519)
(10.0281 0 0.433843)
(10.0508 0 0.577497)
(10.0798 0 0.722401)
(10.1151 0 0.869295)
(10.1571 0 1.01878)
(10.2061 0 1.17134)
(10.2625 0 1.3273)
(10.3268 0 1.48686)
(10.3993 0 1.6501)
(10.4808 0 1.81694)
(10.5717 0 1.98716)
(10.6726 0 2.16039)
(10.7841 0 2.3361)
(10.9068 0 2.51363)
(11.0411 0 2.69212)
(11.1875 0 2.87057)
(11.3464 0 3.04783)
(11.5179 0 3.22259)
(11.702 0 3.3934)
(11.8986 0 3.55873)
(12.1072 0 3.71698)
(12.3273 0 3.86651)
(12.5578 0 4.00572)
(12.7976 0 4.13311)
(13.0451 0 4.24734)
(13.2987 0 4.34728)
(13.5553 0 4.43208)
(13.8389 0 4.50157)
(10.0031 0 0.141121)
(10.0134 0 0.280111)
(10.0317 0 0.41815)
(10.0573 0 0.556306)
(10.0898 0 0.695401)
(10.1293 0 0.836085)
(10.1759 0 0.978874)
(10.23 0 1.12415)
(10.2918 0 1.27218)
(10.3617 0 1.42308)
(10.4402 0 1.57684)
(10.5275 0 1.73332)
(10.6242 0 1.89224)
(10.7307 0 2.05318)
(10.8473 0 2.2156)
(10.9745 0 2.37881)
(11.1125 0 2.54198)
(11.2616 0 2.70416)
(11.4219 0 2.8643)
(11.5933 0 3.0212)
(11.7757 0 3.17363)
(11.9687 0 3.32028)
(12.1718 0 3.45982)
(12.3842 0 3.59094)
(12.605 0 3.71241)
(12.8329 0 3.82309)
(13.0666 0 3.92202)
(13.3046 0 4.00843)
(13.5443 0 4.08178)
(13.8079 0 4.14206)
(10.0034 0 0.13515)
(10.0148 0 0.268216)
(10.035 0 0.40025)
(10.0632 0 0.532207)
(10.0988 0 0.664815)
(10.142 0 0.798637)
(10.1927 0 0.934107)
(10.2513 0 1.07153)
(10.3178 0 1.2111)