/*--------------------------------*- C++ -*----------------------------------*\
  =========                 |
  \\      /  F ield         | OpenFOAM: The Open Source CFD Toolbox
   \\    /   O peration     | Website:  https://openfoam.org
    \\  /    A nd           | Version:  dev
     \\/     M anipulation  |
\*---------------------------------------------------------------------------*/
FoamFile
{
    version     2.0;
    format      ascii;
    class       surfaceVectorField;
    location    "2.7";
    object      Uf;
}
// * * * * * * * * * * * * * * * * * * * * * * * * * * * * * * * * * * * * * //

dimensions      [0 1 -1 0 0 0 0];

internalField   nonuniform List<vector> 
5457
(
(9.92088 0 0.0251114)
(9.97124 0 0.0387482)
(9.824 0 0.0328299)
(9.92858 0 0.0485901)
(9.70958 0 0.0393165)
(9.85546 0 0.0587757)
(9.57539 0 0.0460173)
(9.75676 0 0.0706034)
(9.42131 0 0.0529558)
(9.63747 0 0.0830258)
(9.24745 0 0.0601742)
(9.49853 0 0.095951)
(9.0535 0 0.0678198)
(9.33919 0 0.109629)
(8.83877 0 0.0760441)
(9.1586 0 0.124307)
(8.60233 0 0.0849803)
(8.95592 0 0.140186)
(8.34305 0 0.0947552)
(8.73018 0 0.157453)
(8.0596 0 0.105497)
(8.48017 0 0.176289)
(7.75052 0 0.117338)
(8.20451 0 0.196875)
(7.41426 0 0.130405)
(7.90166 0 0.219379)
(7.04918 0 0.144818)
(7.56999 0 0.243938)
(6.65369 0 0.160679)
(7.20785 0 0.270645)
(6.22637 0 0.178049)
(6.81365 0 0.29951)
(5.76608 0 0.196931)
(6.38598 0 0.330419)
(5.27223 0 0.217233)
(5.92381 0 0.363085)
(4.74504 0 0.238733)
(5.42676 0 0.396972)
(4.18588 0 0.261027)
(4.89532 0 0.431227)
(3.59768 0 0.283479)
(4.33133 0 0.464605)
(2.98529 0 0.30519)
(3.73832 0 0.495405)
(2.35589 0 0.325054)
(3.12202 0 0.521488)
(1.71891 0 0.342531)
(2.49085 0 0.540529)
(1.08419 0 0.361863)
(1.85567 0 0.551642)
(0.451711 0 0.348634)
(1.24534 0 0.562991)
(-0.14589 0 0.10242)
(0.608779 0 0.544813)
(-0.423619 0 -0.20707)
(0.0946409 0 0.259321)
(-0.402143 0 -0.361208)
(-0.133734 0 -0.0205382)
(-0.11967 0 -0.393874)
(9.9964 0 0.051678)
(9.99705 0 0.0405095)
(9.95877 0 0.0708709)
(9.9785 0 0.0674644)
(9.89821 0 0.088)
(9.93375 0 0.0898851)
(9.81654 0 0.106001)
(9.86449 0 0.113575)
(9.71351 0 0.124942)
(9.77432 0 0.13854)
(9.58899 0 0.144877)
(9.66427 0 0.164675)
(9.44261 0 0.166115)
(9.53386 0 0.192365)
(9.27374 0 0.188994)
(9.38236 0 0.222066)
(9.08147 0 0.213811)
(9.20902 0 0.254186)
(8.86468 0 0.240844)
(9.01296 0 0.289103)
(8.62205 0 0.270365)
(8.79308 0 0.327191)
(8.35211 0 0.302634)
(8.54809 0 0.368824)
(8.05325 0 0.337881)
(8.27654 0 0.414351)
(7.72379 0 0.376283)
(7.97685 0 0.464077)
(7.36202 0 0.417918)
(7.64738 0 0.518214)
(6.96637 0 0.462718)
(7.28648 0 0.576825)
(6.53547 0 0.51039)
(6.8926 0 0.639736)
(6.06847 0 0.56033)
(6.46446 0 0.706429)
(5.56524 0 0.61151)
(6.00125 0 0.7759)
(5.02677 0 0.662366)
(5.50292 0 0.846504)
(4.45557 0 0.710681)
(4.97057 0 0.915776)
(3.85622 0 0.753506)
(4.40689 0 0.980266)
(3.23595 0 0.787156)
(3.81678 0 1.03541)
(2.60561 0 0.807456)
(3.20823 0 1.07543)
(1.98262 0 0.810419)
(2.5932 0 1.09308)
(1.40516 0 0.77684)
(1.99605 0 1.07701)
(0.929636 0 0.646337)
(1.41937 0 0.978329)
(0.439751 0 0.384261)
(0.937489 0 0.716736)
(0.0591242 0 -0.118667)
(0.443696 0 0.343457)
(0.174901 0 -0.335965)
(9.98902 0 0.0594402)
(9.99481 0 0.0458848)
(9.95432 0 0.0894923)
(9.97368 0 0.0848692)
(9.89726 0 0.118054)
(9.92982 0 0.119196)
(9.82042 0 0.147926)
(9.86353 0 0.154006)
(9.72409 0 0.179455)
(9.7773 0 0.190445)
(9.60812 0 0.212814)
(9.67218 0 0.22868)
(9.47222 0 0.248435)
(9.54799 0 0.269178)
(9.31592 0 0.28682)
(9.40418 0 0.31255)
(9.1385 0 0.328445)
(9.24017 0 0.359381)
(8.93903 0 0.37377)
(9.05529 0 0.410231)
(8.7164 0 0.423253)
(8.84866 0 0.465655)
(8.46932 0 0.477339)
(8.61925 0 0.526207)
(8.19638 0 0.536437)
(8.36587 0 0.592422)
(7.896 0 0.600874)
(8.0872 0 0.66478)
(7.56658 0 0.670833)
(7.78186 0 0.743651)
(7.20649 0 0.746269)
(7.44839 0 0.829212)
(6.81421 0 0.826784)
(7.08533 0 0.921328)
(6.38853 0 0.911472)
(6.69135 0 1.0194)
(5.92869 0 0.998734)
(6.26537 0 1.12215)
(5.43482 0 1.08606)
(5.80679 0 1.22739)
(4.90825 0 1.16978)
(5.31576 0 1.3317)
(4.35216 0 1.24483)
(4.79369 0 1.43013)
(3.77235 0 1.30448)
(4.24372 0 1.5158)
(3.17853 0 1.33976)
(3.67159 0 1.57934)
(2.58646 0 1.33804)
(3.08614 0 1.60765)
(2.01973 0 1.27289)
(2.50278 0 1.58148)
(1.48684 0 1.09533)
(1.92863 0 1.46415)
(0.95823 0 0.769097)
(1.38517 0 1.21031)
(0.479833 0 0.202377)
(0.829492 0 0.800951)
(0.4337 0 0.134002)
(9.98515 0 0.0716269)
(9.99367 0 0.0531577)
(9.95037 0 0.113652)
(9.97087 0 0.102311)
(9.89434 0 0.154164)
(9.92688 0 0.147984)
(9.81877 0 0.195612)
(9.86181 0 0.193761)
(9.72435 0 0.238858)
(9.7774 0 0.241327)
(9.61102 0 0.284378)
(9.67458 0 0.291221)
(9.47862 0 0.33278)
(9.55332 0 0.34402)
(9.32679 0 0.384737)
(9.41321 0 0.400442)
(9.15504 0 0.440912)
(9.25383 0 0.461214)
(8.96269 0 0.501949)
(9.07463 0 0.527037)
(8.74892 0 0.568492)
(8.87496 0 0.598611)
(8.51276 0 0.641172)
(8.65403 0 0.676634)
(8.25316 0 0.720583)
(8.41093 0 0.761786)
(7.96893 0 0.807234)
(8.14468 0 0.854693)
(7.65884 0 0.901469)
(7.85421 0 0.955863)
(7.32157 0 1.00337)
(7.5384 0 1.0656)
(6.95585 0 1.11257)
(7.1961 0 1.18386)
(6.5605 0 1.22812)
(6.82617 0 1.31007)
(6.13455 0 1.34813)
(6.42754 0 1.44289)
(5.67752 0 1.46955)
(5.99933 0 1.57985)
(5.1897 0 1.5877)
(5.54103 0 1.71701)
(4.6726 0 1.69594)
(5.05277 0 1.84845)
(4.12957 0 1.78505)
(4.53571 0 1.96573)
(3.56646 0 1.84242)
(3.99252 0 2.05718)
(2.99189 0 1.85061)
(3.42742 0 2.10701)
(2.41572 0 1.78237)
(2.8475 0 2.09435)
(1.84045 0 1.60034)
(2.25613 0 1.9886)
(1.25933 0 1.27832)
(1.66025 0 1.75292)
(0.666746 0 0.789442)
(1.02392 0 1.36764)
(0.52302 0 0.787038)
(9.98337 0 0.0844242)
(9.99316 0 0.0613037)
(9.94819 0 0.136865)
(9.96958 0 0.119952)
(9.89311 0 0.188071)
(9.92573 0 0.176278)
(9.81901 0 0.240219)
(9.86195 0 0.232748)
(9.72655 0 0.294527)
(9.77958 0 0.291148)
(9.6158 0 0.351727)
(9.67931 0 0.352346)
(9.48658 0 0.412545)
(9.56116 0 0.417058)
(9.33863 0 0.477756)
(9.42482 0 0.486096)
(9.17151 0 0.548134)
(9.26991 0 0.560296)
(8.9847 0 0.624438)
(9.09599 0 0.64048)
(8.77753 0 0.707424)
(8.9025 0 0.72746)
(8.54925 0 0.797839)
(8.68879 0 0.822044)
(8.29904 0 0.896392)
(8.45414 0 0.925022)
(8.02601 0 1.00371)
(8.19774 0 1.03712)
(7.72922 0 1.12024)
(7.91877 0 1.15897)
(7.40769 0 1.24619)
(7.61632 0 1.29096)
(7.0604 0 1.38127)
(7.28948 0 1.43316)
(6.68633 0 1.52456)
(6.93725 0 1.58509)
(6.2845 0 1.67414)
(6.55862 0 1.74547)
(5.85405 0 1.82672)
(6.15252 0 1.91182)
(5.3944 0 1.97716)
(5.71789 0 2.08007)
(4.90548 0 2.11794)
(5.25378 0 2.24397)
(4.38801 0 2.23848)
(4.75947 0 2.39447)
(3.84375 0 2.3244)
(4.23473 0 2.51904)
(3.27528 0 2.3568)
(3.67971 0 2.60107)
(2.68528 0 2.31044)
(3.09559 0 2.61953)
(2.07261 0 2.15486)
(2.4816 0 2.54715)
(1.42933 0 1.86726)
(1.83986 0 2.35356)
(0.742587 0 1.41944)
(1.13133 0 2.02438)
(0.543293 0 1.51436)
(9.98264 0 0.0975182)
(9.99299 0 0.0698076)
(9.94742 0 0.159809)
(9.96924 0 0.137613)
(9.89351 0 0.221396)
(9.92595 0 0.203972)
(9.82129 0 0.284153)
(9.86377 0 0.270748)
(9.73126 0 0.349421)
(9.78379 0 0.339656)
(9.62357 0 0.418102)
(9.68656 0 0.411783)
(9.49806 0 0.49103)
(9.57206 0 0.488)
(9.35449 0 0.569072)
(9.44007 0 0.569209)
(9.19249 0 0.653106)
(9.29024 0 0.656344)
(9.0116 0 0.744)
(9.1222 0 0.750327)
(8.81125 0 0.842616)
(8.93546 0 0.852069)
(8.59079 0 0.949802)
(8.72944 0 0.962474)
(8.34953 0 1.06637)
(8.5035 0 1.08242)
(8.08671 0 1.19303)
(8.25693 0 1.21273)
(7.80155 0 1.33036)
(7.98901 0 1.35411)
(7.49322 0 1.47863)
(7.69891 0 1.50707)
(7.1608 0 1.63769)
(7.38577 0 1.67178)
(6.80334 0 1.80672)
(7.04863 0 1.8479)
(6.41974 0 1.98392)
(6.68636 0 2.03432)
(6.00878 0 2.16605)
(6.29763 0 2.22876)
(5.56908 0 2.34799)
(5.88084 0 2.42737)
(5.09917 0 2.52207)
(5.43402 0 2.62412)
(4.5975 0 2.67741)
(4.95484 0 2.81013)
(4.0625 0 2.79932)
(4.44062 0 2.97303)
(3.49255 0 2.86892)
(3.88834 0 3.09642)
(2.88572 0 2.86274)
(3.2951 0 3.15969)
(2.23794 0 2.75375)
(2.65681 0 3.13771)
(1.5424 0 2.52086)
(1.97479 0 3.003)
(0.793628 0 2.13118)
(1.20722 0 2.74043)
(0.556728 0 2.29167)
(9.9825 0 0.110651)
(9.99301 0 0.0783787)
(9.94769 0 0.182365)
(9.96953 0 0.155072)
(9.89519 0 0.253874)
(9.9272 0 0.230939)
(9.82519 0 0.326839)
(9.86693 0 0.307579)
(9.73805 0 0.402641)
(9.78971 0 0.386609)
(9.63393 0 0.482333)
(9.69596 0 0.469249)
(9.51272 0 0.566867)
(9.58567 0 0.556511)
(9.37421 0 0.65721)
(9.45864 0 0.649394)
(9.21808 0 0.754335)
(9.31462 0 0.748918)
(9.0439 0 0.859207)
(9.15324 0 0.856096)
(8.85117 0 0.972782)
(8.97407 0 0.971934)
(8.63931 0 1.096)
(8.77661 0 1.09742)
(8.40768 0 1.22974)
(8.56025 0 1.23354)
(8.15558 0 1.37484)
(8.32433 0 1.38118)
(7.88225 0 1.53193)
(8.06813 0 1.54116)
(7.58687 0 1.70142)
(7.79084 0 1.71411)
(7.26849 0 1.8833)
(7.49153 0 1.90033)
(6.92601 0 2.07695)
(7.16911 0 2.09969)
(6.55811 0 2.28079)
(6.82223 0 2.31134)
(6.16309 0 2.49196)
(6.44918 0 2.5334)
(5.73878 0 2.7057)
(6.04772 0 2.76252)
(5.28243 0 2.91482)
(5.6149 0 2.9933)
(4.79058 0 3.10896)
(5.14695 0 3.21765)
(4.25909 0 3.27399)
(4.63915 0 3.42404)
(3.68324 0 3.39164)
(4.08588 0 3.5969)
(3.05795 0 3.43946)
(3.48119 0 3.71629)
(2.37767 0 3.39159)
(2.81829 0 3.75789)
(1.63788 0 3.22598)
(2.09912 0 3.69377)
(0.839119 0 2.90067)
(1.27891 0 3.50429)
(0.57336 0 3.11353)
(9.98273 0 0.12361)
(9.99316 0 0.0868373)
(9.94871 0 0.204357)
(9.97026 0 0.172133)
(9.89791 0 0.285318)
(9.92924 0 0.257036)
(9.83045 0 0.36805)
(9.87119 0 0.343069)
(9.74663 0 0.453952)
(9.79709 0 0.431778)
(9.64657 0 0.544193)
(9.70726 0 0.524468)
(9.53024 0 0.639835)
(9.60168 0 0.622267)
(9.39745 0 0.741937)
(9.48022 0 0.726269)
(9.24792 0 0.851557)
(9.34266 0 0.837576)
(9.08128 0 0.969751)
(9.18871 0 0.957288)
(8.89708 0 1.09756)
(9.01797 0 1.0865)
(8.69478 0 1.23602)
(8.82998 0 1.22629)
(8.47377 0 1.3861)
(8.6242 0 1.37772)
(8.23338 0 1.54873)
(8.39998 0 1.54181)
(7.97281 0 1.72468)
(8.1566 0 1.71948)
(7.69118 0 1.91449)
(7.8932 0 1.9115)
(7.38741 0 2.11836)
(7.60874 0 2.11839)
(7.06018 0 2.33593)
(7.30196 0 2.34028)
(6.70778 0 2.56605)
(6.97119 0 2.5767)
(6.32796 0 2.80636)
(6.61427 0 2.82633)
(5.91773 0 3.05288)
(6.2283 0 3.08654)
(5.47313 0 3.29932)
(5.80937 0 3.35297)
(4.98904 0 3.53642)
(5.35234 0 3.61873)
(4.45913 0 3.75115)
(4.85063 0 3.87371)
(3.87608 0 3.92619)
(4.29624 0 4.10364)
(3.23224 0 4.03959)
(3.68044 0 4.28939)
(2.52079 0 4.06474)
(2.99346 0 4.4065)
(1.73836 0 3.97592)
(2.23737 0 4.42433)
(0.889474 0 3.71857)
(1.36337 0 4.31608)
(0.598765 0 3.98472)
(9.9832 0 0.136236)
(9.99339 0 0.095063)
(9.9503 0 0.225626)
(9.9713 0 0.188635)
(9.90148 0 0.315572)
(9.93191 0 0.282118)
(9.83688 0 0.4076)
(9.87639 0 0.377052)
(9.75676 0 0.503128)
(9.80572 0 0.474954)
(9.66124 0 0.603409)
(9.72021 0 0.577183)
(9.55032 0 0.709606)
(9.61983 0 0.684964)
(9.42385 0 0.822859)
(9.50449 0 0.79948)
(9.28162 0 0.94431)
(9.37402 0 0.921908)
(9.1233 0 1.0751)
(9.22819 0 1.05343)
(8.94849 0 1.21635)
(9.06667 0 1.19522)
(8.75671 0 1.3692)
(8.88905 0 1.34845)
(8.54739 0 1.53472)
(8.69483 0 1.51428)
(8.31984 0 1.71396)
(8.48341 0 1.69385)
(8.07326 0 1.90783)
(8.25406 0 1.88822)
(7.80667 0 2.11708)
(8.00589 0 2.09835)
(7.51885 0 2.34217)
(7.73776 0 2.32501)
(7.2082 0 2.58312)
(7.44823 0 2.56867)
(6.87264 0 2.8393)
(7.13535 0 2.82938)
(6.50933 0 3.10912)
(6.79653 0 3.10651)
(6.11448 0 3.3896)
(6.42822 0 3.39843)
(5.68296 0 3.67577)
(6.02564 0 3.70205)
(5.20809 0 3.95992)
(5.58234 0 4.01218)
(4.68144 0 4.23067)
(5.08995 0 4.32063)
(4.09304 0 4.47198)
(4.53798 0 4.61502)
(3.43235 0 4.66222)
(3.9145 0 4.8775)
(2.69004 0 4.77286)
(3.20556 0 5.08324)
(1.8618 0 4.77215)
(2.41123 0 5.19767)
(0.954166 0 4.58951)
(1.47627 0 5.18406)
(0.639198 0 4.91926)
(9.98386 0 0.148405)
(9.99368 0 0.102969)
(9.95233 0 0.246032)
(9.97259 0 0.204446)
(9.90575 0 0.344485)
(9.93508 0 0.306047)
(9.84432 0 0.445308)
(9.88237 0 0.409374)
(9.76825 0 0.549942)
(9.81545 0 0.515944)
(9.67769 0 0.65971)
(9.73461 0 0.627161)
(9.57266 0 0.775855)
(9.63986 0 0.744328)
(9.45309 0 0.899598)
(9.53113 0 0.868702)
(9.31879 0 1.03216)
(9.40832 0 1.00154)
(9.16951 0 1.17475)
(9.27126 0 1.14408)
(9.00491 0 1.32859)
(9.11969 0 1.29759)
(8.82456 0 1.49489)
(8.95327 0 1.46333)
(8.62795 0 1.67487)
(8.77155 0 1.64255)
(8.41441 0 1.86968)
(8.57399 0 1.83653)
(8.18314 0 2.08044)
(8.3599 0 2.04649)
(7.9331 0 2.30812)
(8.12838 0 2.2736)
(7.66296 0 2.55352)
(7.87827 0 2.51893)
(7.37091 0 2.81714)
(7.60799 0 2.78339)
(7.05453 0 3.09901)
(7.31542 0 3.06762)
(6.71051 0 3.39848)
(6.99765 0 3.37182)
(6.33433 0 3.71384)
(6.65066 0 3.69556)
(5.91983 0 4.0418)
(6.26892 0 4.03737)
(5.45882 0 4.37671)
(5.84488 0 4.39416)
(4.94069 0 4.70949)
(5.36844 0 4.7603)
(4.35243 0 5.02612)
(4.82644 0 5.12628)
(3.67938 0 5.30578)
(4.20293 0 5.4766)
(2.90739 0 5.51781)
(3.47775 0 5.78704)
(2.02761 0 5.62271)
(2.64498 0 6.01914)
(1.04509 0 5.52922)
(1.63772 0 6.12365)
(0.704487 0 5.94287)
(9.98464 0 0.160022)
(9.99402 0 0.110491)
(9.95471 0 0.26545)
(9.97408 0 0.219458)
(9.91061 0 0.371917)
(9.93865 0 0.328699)
(9.85261 0 0.481007)
(9.889 0 0.439892)
(9.78091 0 0.594193)
(9.82611 0 0.554577)
(9.69569 0 0.712851)
(9.75028 0 0.674194)
(9.59701 0 0.838297)
(9.66153 0 0.800108)
(9.48483 0 0.971821)
(9.55985 0 0.933645)
(9.35904 0 1.11471)
(9.44521 0 1.07612)
(9.21945 0 1.26825)
(9.3175 0 1.22885)
(9.06579 0 1.43374)
(9.17653 0 1.39315)
(8.89773 0 1.61249)
(9.02204 0 1.57038)
(8.71479 0 1.80582)
(8.85368 0 1.7619)
(8.51638 0 2.01506)
(8.67099 0 1.9691)
(8.30175 0 2.24149)
(8.47334 0 2.19337)
(8.06985 0 2.48639)
(8.25989 0 2.43613)
(7.81931 0 2.75093)
(8.02953 0 2.69878)
(7.54825 0 3.03615)
(7.78068 0 2.98268)
(7.25405 0 3.34287)
(7.5112 0 3.28915)
(6.93311 0 3.67151)
(7.21806 0 3.61933)
(6.5804 0 4.0219)
(6.89702 0 3.97415)
(6.18899 0 4.39279)
(6.54217 0 4.35401)
(5.74937 0 4.78121)
(6.14522 0 4.75839)
(5.24881 0 5.18127)
(5.69468 0 5.18507)
(4.67074 0 5.58232)
(5.17479 0 5.62869)
(3.99481 0 5.96608)
(4.56493 0 6.07827)
(3.19841 0 6.3013)
(3.8363 0 6.51309)
(2.26182 0 6.54036)
(2.9709 0 6.89365)
(1.18066 0 6.56488)
(1.87925 0 7.15757)
(0.81288 0 7.09925)
(9.98553 0 0.171009)
(9.9944 0 0.117578)
(9.95737 0 0.283775)
(9.97571 0 0.233583)
(9.91597 0 0.397742)
(9.94256 0 0.349965)
(9.86163 0 0.514548)
(9.89619 0 0.468479)
(9.7946 0 0.635699)
(9.83757 0 0.590699)
(9.71505 0 0.762618)
(9.76703 0 0.718096)
(9.62309 0 0.896679)
(9.68461 0 0.852088)
(9.51874 0 1.03923)
(9.59037 0 0.994053)
(9.40196 0 1.19162)
(9.48433 0 1.14536)
(9.27264 0 1.35519)
(9.36646 0 1.30738)
(9.13059 0 1.53133)
(9.23666 0 1.4815)
(8.97556 0 1.72143)
(9.09476 0 1.66914)
(8.80718 0 1.92692)
(8.94052 0 1.87175)
(8.62496 0 2.14928)
(8.77359 0 2.09086)
(8.42821 0 2.38999)
(8.59345 0 2.32801)
(8.21602 0 2.65062)
(8.39942 0 2.58486)
(7.98706 0 2.93276)
(8.19049 0 2.86313)
(7.73952 0 3.23802)
(7.96526 0 3.16468)
(7.47082 0 3.56805)
(7.72173 0 3.49147)
(7.17734 0 3.92448)
(7.45704 0 3.84567)
(6.85393 0 4.30882)
(7.16714 0 4.2296)
(6.49334 0 4.72222)
(6.84622 0 4.64572)
(6.08529 0 5.16501)
(6.48594 0 5.09648)
(5.61535 0 5.63572)
(6.07428 0 5.58386)
(5.06343 0 6.12919)
(5.59376 0 6.10837)
(4.40221 0 6.63315)
(5.01952 0 6.66684)
(3.59625 0 7.12067)
(4.31266 0 7.24785)
(2.60452 0 7.54024)
(3.43594 0 7.81965)
(1.39446 0 7.74026)
(2.25678 0 8.31476)
(1.00282 0 8.46504)
(9.9865 0 0.181302)
(9.9948 0 0.12419)
(9.96025 0 0.300916)
(9.97746 0 0.246749)
(9.92173 0 0.421851)
(9.94673 0 0.369752)
(9.87127 0 0.5458)
(9.90383 0 0.495025)
(9.80914 0 0.674304)
(9.8497 0 0.624178)
(9.73555 0 0.808823)
(9.78468 0 0.758711)
(9.65064 0 0.950778)
(9.70888 0 0.90008)
(9.55451 0 1.10157)
(9.62239 0 1.04971)
(9.44717 0 1.26258)
(9.52532 0 1.209)
(9.3286 0 1.43523)
(9.4177 0 1.37938)
(9.19872 0 1.62095)
(9.29954 0 1.56228)
(9.05737 0 1.82121)
(9.17078 0 1.75917)
(8.90432 0 2.03755)
(9.0313 0 1.9716)
(8.73921 0 2.27157)
(8.88089 0 2.20118)
(8.56151 0 2.52498)
(8.71921 0 2.44962)
(8.37045 0 2.79958)
(8.54577 0 2.71876)
(8.16495 0 3.09736)
(8.3598 0 3.01065)
(7.94342 0 3.42052)
(8.16018 0 3.32755)
(7.70356 0 3.77151)
(7.94531 0 3.67208)
(7.4421 0 4.15317)
(7.71279 0 4.04731)
(7.15431 0 4.56875)
(7.45921 0 4.45692)
(6.8333 0 5.02199)
(7.17955 0 4.90541)
(6.46903 0 5.51702)
(6.86642 0 5.39829)
(6.04664 0 6.05799)
(6.5088 0 5.94229)
(5.54389 0 6.64794)
(6.08972 0 6.54532)
(4.92714 0 7.28619)
(5.58305 0 7.21584)
(4.1453 0 7.96073)
(4.94274 0 7.96062)
(3.12222 0 8.63314)
(4.10984 0 8.77492)
(1.75666 0 9.12781)
(2.87916 0 9.62065)
(1.36524 0 10.1856)
(9.98753 0 0.190853)
(9.99523 0 0.130297)
(9.9633 0 0.316798)
(9.97931 0 0.258899)
(9.92782 0 0.44415)
(9.95112 0 0.387982)
(9.88142 0 0.574653)
(9.91183 0 0.519438)
(9.82439 0 0.709878)
(9.86235 0 0.654904)
(9.75699 0 0.851316)
(9.80306 0 0.795908)
(9.67941 0 1.00042)
(9.7341 0 0.943933)
(9.59179 0 1.15863)
(9.65563 0 1.10043)
(9.49424 0 1.32737)
(9.56781 0 1.26684)
(9.38683 0 1.5081)
(9.47077 0 1.44461)
(9.26957 0 1.70228)
(9.36463 0 1.6352)
(9.14245 0 1.91146)
(9.24944 0 1.84015)
(9.00536 0 2.13724)
(9.12522 0 2.06104)
(8.85813 0 2.38136)
(8.99194 0 2.29956)
(8.70043 0 2.64566)
(8.84947 0 2.55754)
(8.53176 0 2.9322)
(8.69757 0 2.83698)
(8.35136 0 3.24329)
(8.5358 0 3.14016)
(8.15803 0 3.58161)
(8.36348 0 3.46969)
(7.95007 0 3.95035)
(8.17955 0 3.82868)
(7.72492 0 4.3534)
(7.98242 0 4.22095)
(7.47884 0 4.79561)
(7.76974 0 4.65129)
(7.20629 0 5.28316)
(7.53804 0 5.12589)
(6.89889 0 5.82406)
(7.28208 0 5.65298)
(6.5437 0 6.42866)
(6.99389 0 6.2437)
(6.11998 0 7.11041)
(6.66078 0 6.91358)
(5.59302 0 7.88651)
(6.26222 0 7.6849)
(4.90129 0 8.77689)
(5.75779 0 8.59125)
(3.9277 0 9.80094)
(5.0882 0 9.68399)
(2.43416 0 10.857)
(3.98102 0 11.0489)
(2.14752 0 12.5697)
(9.98861 0 0.199622)
(9.99567 0 0.135876)
(9.9665 0 0.331361)
(9.98123 0 0.269988)
(9.93416 0 0.464558)
(9.95568 0 0.404596)
(9.89196 0 0.601)
(9.92012 0 0.541642)
(9.84021 0 0.742284)
(9.87544 0 0.68279)
(9.77919 0 0.889923)
(9.82205 0 0.829584)
(9.70914 0 1.0454)
(9.76013 0 0.983525)
(9.63028 0 1.21016)
(9.6899 0 1.14608)
(9.54279 0 1.38568)
(9.6116 0 1.31871)
(9.44683 0 1.57341)
(9.52546 0 1.50288)
(9.34255 0 1.77487)
(9.43168 0 1.70006)
(9.23004 0 1.99163)
(9.33047 0 1.91181)
(9.1094 0 2.22536)
(9.222 0 2.13975)
(8.98063 0 2.47786)
(9.10643 0 2.3856)
(8.84367 0 2.75109)
(8.98387 0 2.65126)
(8.69835 0 3.04726)
(8.85438 0 2.93884)
(8.5443 0 3.36895)
(8.71793 0 3.25074)
(8.38094 0 3.71917)
(8.57436 0 3.58979)
(8.20731 0 4.10164)
(8.42333 0 3.95943)
(8.02195 0 4.52101)
(8.26428 0 4.3639)
(7.8227 0 4.98331)
(8.0963 0 4.80867)
(7.60627 0 5.49661)
(7.91805 0 5.30098)
(7.36766 0 6.07193)
(7.72757 0 5.85068)
(7.09896 0 6.72496)
(7.522 0 6.47171)
(6.78707 0 7.47891)
(7.29715 0 7.18465)
(6.40848 0 8.37056)
(7.0476 0 8.02191)
(5.91622 0 9.46449)
(6.76327 0 9.04003)
(5.19771 0 10.9073)
(6.4634 0 10.3549)
(3.88693 0 13.1801)
(6.1937 0 12.3024)
(5.26688 0 16.3767)
(0.254923 0 -0.163225)
(0.145634 0 -0.249681)
(0.492473 0 -0.138837)
(0.348774 0 -0.227171)
(0.695279 0 -0.112575)
(0.55586 0 -0.189364)
(0.86624 0 -0.0907896)
(0.739103 0 -0.155859)
(1.01106 0 -0.0735582)
(0.893741 0 -0.128909)
(1.13477 0 -0.0599945)
(1.02493 0 -0.107516)
(1.24152 0 -0.0493094)
(1.13832 0 -0.0905855)
(1.33467 0 -0.0408499)
(1.23796 0 -0.0771791)
(1.41678 0 -0.0340621)
(1.3266 0 -0.0664246)
(1.48969 0 -0.0285101)
(1.40617 0 -0.0575904)
(1.55474 0 -0.0238721)
(1.47804 0 -0.0501676)
(1.61292 0 -0.0198526)
(1.54324 0 -0.0438126)
(1.66474 0 -0.0160452)
(1.60258 0 -0.0380987)
(1.70962 0 -0.0119207)
(1.65649 0 -0.0322155)
(1.74552 0 -0.00714295)
(1.7043 0 -0.0251614)
(1.77005 0 -0.00200224)
(1.744 0 -0.0167864)
(1.78276 0 0.00255723)
(1.7734 0 -0.00849645)
(1.78611 0 0.00555154)
(1.79233 0 -0.00218512)
(1.78204 0 0.00695895)
(1.80352 0 0.00259313)
(1.77157 0 0.00748219)
(1.80953 0 0.00651216)
(1.75572 0 0.00740256)
(1.80974 0 0.00962582)
(1.73833 0 0.00664089)
(1.80488 0 0.0103131)
(1.72499 0 0.00528055)
(1.79946 0 0.00771946)
(1.72099 0 0.00329733)
(1.79828 0 0.00226321)
(1.7293 0 0.00073813)
(1.80335 0 -0.00458717)
(1.75025 0 -0.00218005)
(1.81599 0 -0.0112904)
(1.78299 0 -0.00544471)
(1.83569 0 -0.0172257)
(1.82637 0 -0.00881612)
(1.86155 0 -0.0222823)
(1.87729 0 -0.0109723)
(1.89279 0 -0.0255393)
(1.93633 0 -0.0235772)
(0.217887 0 -0.354541)
(0.109492 0 -0.463088)
(0.429264 0 -0.31246)
(0.290013 0 -0.429312)
(0.613489 0 -0.259872)
(0.46184 0 -0.361379)
(0.771486 0 -0.214837)
(0.615501 0 -0.299899)
(0.908113 0 -0.178936)
(0.746361 0 -0.250526)
(1.02768 0 -0.150625)
(0.858868 0 -0.211436)
(1.13365 0 -0.128307)
(0.957313 0 -0.180503)
(1.22869 0 -0.110587)
(1.04476 0 -0.155931)
(1.31482 0 -0.0962628)
(1.12333 0 -0.136099)
(1.39342 0 -0.0844122)
(1.19449 0 -0.119671)
(1.4655 0 -0.0744215)
(1.25916 0 -0.10576)
(1.53201 0 -0.0657764)
(1.31804 0 -0.0938949)
(1.59388 0 -0.057633)
(1.37183 0 -0.0835857)
(1.65142 0 -0.0486617)
(1.42153 0 -0.0735171)
(1.70332 0 -0.0379183)
(1.46758 0 -0.0615421)
(1.74717 0 -0.0261359)
(1.50872 0 -0.0467955)
(1.78146 0 -0.0153261)
(1.5421 0 -0.0314071)
(1.80809 0 -0.00607537)
(1.56521 0 -0.0195572)
(1.83023 0 0.00280923)
(1.58248 0 -0.0115077)
(1.84724 0 0.0102246)
(1.5961 0 -0.00406838)
(1.85733 0 0.013441)
(1.59732 0 0.00350047)
(1.86383 0 0.0112738)
(1.58549 0 0.00645784)
(1.87083 0 0.00422857)
(1.56341 0 0.00366917)
(1.87922 0 -0.00561228)
(1.53661 0 -0.00248091)
(1.88973 0 -0.0159844)
(1.5101 0 -0.0103881)
(1.90129 0 -0.0255464)
(1.48769 0 -0.0175183)
(1.91403 0 -0.0335214)
(1.47269 0 -0.0239309)
(1.92832 0 -0.0389543)
(1.46159 0 -0.0296232)
(1.94544 0 -0.0396084)
(1.45845 0 -0.034124)
(1.47422 0 -0.0349868)
(0.171589 0 -0.547619)
(0.0766387 0 -0.631148)
(0.334344 0 -0.487964)
(0.217807 0 -0.584956)
(0.474566 0 -0.410275)
(0.336688 0 -0.492307)
(0.594467 0 -0.343068)
(0.444915 0 -0.409209)
(0.697909 0 -0.289138)
(0.535072 0 -0.342603)
(0.788072 0 -0.246298)
(0.61183 0 -0.289798)
(0.867579 0 -0.212227)
(0.677929 0 -0.247971)
(0.938436 0 -0.184851)
(0.735399 0 -0.214639)
(1.00206 0 -0.162378)
(0.785766 0 -0.187567)
(1.05932 0 -0.143468)
(0.830078 0 -0.164899)
(1.11074 0 -0.127365)
(0.868853 0 -0.145417)
(1.15694 0 -0.113676)
(0.902169 0 -0.128686)
(1.19914 0 -0.101453)
(0.930055 0 -0.114608)
(1.23845 0 -0.0882316)
(0.953385 0 -0.101741)
(1.27407 0 -0.0712802)
(0.974319 0 -0.0865082)
(1.30328 0 -0.0516471)
(0.993751 0 -0.0667813)
(1.32335 0 -0.0358889)
(1.01108 0 -0.0448171)
(1.338 0 -0.0278979)
(1.00622 0 -0.0291164)
(1.3485 0 -0.0225216)
(0.973311 0 -0.0181984)
(1.3448 0 -0.0141852)
(0.937325 0 -0.00176626)
(1.32322 0 -0.00529549)
(0.903632 0 0.0166087)
(1.28216 0 -0.000747606)
(0.860431 0 0.0307985)
(1.22708 0 -0.00137747)
(0.807367 0 0.0355594)
(1.16645 0 -0.00486295)
(0.74948 0 0.0317888)
(1.10837 0 -0.00864075)
(0.694421 0 0.0216667)
(1.05924 0 -0.0116701)
(0.647672 0 0.00895306)
(1.01983 0 -0.0149921)
(0.619417 0 -0.0031972)
(0.991699 0 -0.0196399)
(0.605038 0 -0.0151717)
(0.982717 0 -0.0252661)
(0.604573 0 -0.0296188)
(0.631796 0 -0.0451173)
(0.122667 0 -0.683134)
(0.045352 0 -0.751293)
(0.22903 0 -0.604226)
(0.138375 0 -0.686671)
(0.316129 0 -0.506151)
(0.195481 0 -0.573633)
(0.389058 0 -0.422731)
(0.252059 0 -0.475695)
(0.450349 0 -0.355934)
(0.293597 0 -0.39716)
(0.501895 0 -0.302798)
(0.32643 0 -0.334597)
(0.545421 0 -0.260483)
(0.351411 0 -0.284907)
(0.58226 0 -0.226406)
(0.369677 0 -0.245161)
(0.613354 0 -0.198276)
(0.382257 0 -0.212721)
(0.639168 0 -0.174291)
(0.389991 0 -0.185289)
(0.659614 0 -0.153435)
(0.393289 0 -0.161185)
(0.674356 0 -0.135599)
(0.391885 0 -0.139787)
(0.684266 0 -0.120794)
(0.384602 0 -0.121894)
(0.69167 0 -0.107389)
(0.367402 0 -0.107056)
(0.697754 0 -0.0923098)
(0.34236 0 -0.090772)
(0.701132 0 -0.0717593)
(0.313273 0 -0.0690931)
(0.687299 0 -0.0444798)
(0.281425 0 -0.0355743)
(0.639293 0 -0.0168792)
(0.248365 0 0.00220274)
(0.565577 0 0.00666374)
(0.193872 0 0.0287576)
(0.494768 0 0.0297458)
(0.137493 0 0.0422727)
(0.435203 0 0.0502797)
(0.0953098 0 0.0527797)
(0.379863 0 0.0621035)
(0.0547864 0 0.0636105)
(0.325776 0 0.0634238)
(0.016227 0 0.0668708)
(0.275496 0 0.0543809)
(-0.0186982 0 0.060209)
(0.234125 0 0.0370136)
(-0.0479987 0 0.0444987)
(0.209125 0 0.0156861)
(-0.0700573 0 0.0224241)
(0.202814 0 -0.0053127)
(-0.0770222 0 0.000123181)
(0.217668 0 -0.0270578)
(-0.0680274 0 -0.0228022)
(0.249518 0 -0.0502572)
(-0.0528487 0 -0.0455937)
(-0.0261244 0 -0.0635663)
(0.0675292 0 -0.765217)
(0.0128795 0 -0.817434)
(0.111317 0 -0.666307)
(0.0501295 0 -0.728545)
(0.140051 0 -0.552817)
(0.0404931 0 -0.600463)
(0.159961 0 -0.458695)
(0.0406468 0 -0.493846)
(0.171975 0 -0.383133)
(0.0278094 0 -0.407855)
(0.177071 0 -0.32281)
(0.0102276 0 -0.339026)
(0.176141 0 -0.274664)
(-0.01288 0 -0.284117)
(0.169977 0 -0.235879)
(-0.0408704 0 -0.240055)
(0.159277 0 -0.203909)
(-0.0731651 0 -0.204065)
(0.144543 0 -0.176528)
(-0.109112 0 -0.173651)
(0.125724 0 -0.151998)
(-0.147983 0 -0.146672)
(0.101448 0 -0.129185)
(-0.189102 0 -0.121507)
(0.0677483 0 -0.107283)
(-0.232547 0 -0.0971173)
(0.0208002 0 -0.084389)
(-0.282145 0 -0.0733543)
(-0.0376698 0 -0.0569954)
(-0.336811 0 -0.0497907)
(-0.10459 0 -0.0224743)
(-0.393021 0 -0.023297)
(-0.163927 0 0.0137463)
(-0.445727 0 0.00407314)
(-0.203357 0 0.0404771)
(-0.478021 0 0.0279266)
(-0.232021 0 0.0547797)
(-0.504488 0 0.0470167)
(-0.262482 0 0.0636025)
(-0.529682 0 0.0612176)
(-0.292527 0 0.0716511)
(-0.550194 0 0.0710243)
(-0.316232 0 0.0755669)
(-0.566861 0 0.0776657)
(-0.333738 0 0.0708021)
(-0.578438 0 0.077005)
(-0.345637 0 0.056624)
(-0.585384 0 0.0669346)
(-0.352415 0 0.0350901)
(-0.589014 0 0.0482394)
(-0.354858 0 0.00980574)
(-0.590803 0 0.0237406)
(-0.349217 0 -0.0154657)
(-0.589584 0 -0.0028445)
(-0.338778 0 -0.0393969)
(-0.581849 0 -0.0281649)
(-0.326364 0 -0.0600305)
(-0.576554 0 -0.0518202)
(-0.574404 0 -0.0695393)
(0.00133465 0 -0.785606)
(-0.0238387 0 -0.818741)
(-0.0181254 0 -0.666876)
(-0.0484052 0 -0.709935)
(-0.0504013 0 -0.54227)
(-0.123601 0 -0.570327)
(-0.0878176 0 -0.441843)
(-0.18429 0 -0.459735)
(-0.130588 0 -0.360948)
(-0.25301 0 -0.369783)
(-0.177703 0 -0.296343)
(-0.322489 0 -0.298078)
(-0.228669 0 -0.244556)
(-0.393084 0 -0.240868)
(-0.283102 0 -0.202418)
(-0.463859 0 -0.194955)
(-0.340645 0 -0.167197)
(-0.534061 0 -0.157514)
(-0.400625 0 -0.136684)
(-0.603021 0 -0.126275)
(-0.461872 0 -0.109206)
(-0.670011 0 -0.099437)
(-0.522859 0 -0.0837202)
(-0.734015 0 -0.0755841)
(-0.581878 0 -0.0598901)
(-0.793963 0 -0.0537259)
(-0.637748 0 -0.037778)
(-0.849306 0 -0.0332482)
(-0.689604 0 -0.0167874)
(-0.898683 0 -0.0134446)
(-0.731679 0 0.00349012)
(-0.940158 0 0.00549652)
(-0.761985 0 0.0237758)
(-0.97046 0 0.0243225)
(-0.784913 0 0.0442687)
(-0.992726 0 0.0428847)
(-0.803398 0 0.06146)
(-1.01037 0 0.058792)
(-0.818214 0 0.0727171)
(-1.0235 0 0.070432)
(-0.829331 0 0.0789421)
(-1.03185 0 0.0777752)
(-0.83446 0 0.0795288)
(-1.03511 0 0.0807066)
(-0.834443 0 0.0722711)
(-1.03369 0 0.0769952)
(-0.831541 0 0.0567921)
(-1.02937 0 0.0652945)
(-0.827911 0 0.0348203)
(-1.02447 0 0.046236)
(-0.824802 0 0.00942144)
(-1.02081 0 0.0220649)
(-0.822039 0 -0.0169079)
(-1.01861 0 -0.0042978)
(-0.818946 0 -0.0419863)
(-1.01615 0 -0.0297539)
(-0.815774 0 -0.0627463)
(-1.01771 0 -0.0534111)
(-1.0213 0 -0.0715054)
(-0.0636394 0 -0.737849)
(-0.0664924 0 -0.75641)
(-0.153384 0 -0.604657)
(-0.153792 0 -0.624112)
(-0.24795 0 -0.476935)
(-0.291155 0 -0.482029)
(-0.344884 0 -0.37581)
(-0.411584 0 -0.371364)
(-0.441155 0 -0.295323)
(-0.530574 0 -0.284089)
(-0.535555 0 -0.231782)
(-0.643192 0 -0.216034)
(-0.626794 0 -0.181674)
(-0.748825 0 -0.163444)
(-0.713747 0 -0.141905)
(-0.846816 0 -0.122911)
(-0.795519 0 -0.109789)
(-0.936687 0 -0.0913625)
(-0.871478 0 -0.083173)
(-1.0182 0 -0.0662772)
(-0.941268 0 -0.060418)
(-1.09147 0 -0.0456146)
(-1.00443 0 -0.0403908)
(-1.1559 0 -0.0280236)
(-1.06039 0 -0.0223227)
(-1.21187 0 -0.012582)
(-1.10837 0 -0.00560452)
(-1.25983 0 0.00119565)
(-1.14735 0 0.0104235)
(-1.30003 0 0.0138728)
(-1.17828 0 0.0263592)
(-1.33228 0 0.0266632)
(-1.20244 0 0.0422009)
(-1.35782 0 0.0404667)
(-1.21996 0 0.0569111)
(-1.37692 0 0.0543149)
(-1.23154 0 0.0687924)
(-1.38984 0 0.066165)
(-1.23819 0 0.076665)
(-1.39725 0 0.0745712)
(-1.24032 0 0.0800867)
(-1.39962 0 0.0790666)
(-1.23767 0 0.0781009)
(-1.39732 0 0.0791365)
(-1.23154 0 0.0693764)
(-1.39143 0 0.0734482)
(-1.22422 0 0.0536862)
(-1.38387 0 0.0611579)
(-1.21786 0 0.0323212)
(-1.3769 0 0.0427265)
(-1.21379 0 0.00764875)
(-1.37229 0 0.0198683)
(-1.21235 0 -0.0178281)
(-1.37062 0 -0.00505315)
(-1.21277 0 -0.0422482)
(-1.37151 0 -0.0295384)
(-1.21441 0 -0.0627965)
(-1.37653 0 -0.0525891)
(-1.38159 0 -0.07)
(-0.134675 0 -0.625274)
(-0.115032 0 -0.624504)
(-0.289356 0 -0.483967)
(-0.262639 0 -0.47619)
(-0.443968 0 -0.359939)
(-0.458339 0 -0.337664)
(-0.591751 0 -0.265662)
(-0.630403 0 -0.236635)
(-0.728854 0 -0.193993)
(-0.789359 0 -0.162048)
(-0.854228 0 -0.139656)
(-0.931642 0 -0.107071)
(-0.967453 0 -0.0984746)
(-1.05585 0 -0.0673622)
(-1.06876 0 -0.0673447)
(-1.16351 0 -0.0389746)
(-1.15858 0 -0.0437177)
(-1.25665 0 -0.0186983)
(-1.23744 0 -0.0254845)
(-1.33707 0 -0.00398947)
(-1.30541 0 -0.011079)
(-1.40632 0 0.00680106)
(-1.3628 0 0.000810985)
(-1.46565 0 0.0151966)
(-1.41062 0 0.0113067)
(-1.51617 0 0.0225723)
(-1.45033 0 0.0212689)
(-1.55874 0 0.0297043)
(-1.4837 0 0.0315553)
(-1.59455 0 0.0372627)
(-1.51148 0 0.042671)
(-1.62441 0 0.0456695)
(-1.53302 0 0.054163)
(-1.64803 0 0.0548593)
(-1.54784 0 0.0646826)
(-1.66518 0 0.0639856)
(-1.55641 0 0.072784)
(-1.6761 0 0.071626)
(-1.5597 0 0.0775335)
(-1.68138 0 0.0766152)
(-1.55846 0 0.0783454)
(-1.68175 0 0.0783136)
(-1.55336 0 0.0744182)
(-1.67804 0 0.0761112)
(-1.54586 0 0.0648843)
(-1.67155 0 0.06911)
(-1.53804 0 0.0495999)
(-1.66416 0 0.056734)
(-1.53183 0 0.0295295)
(-1.65787 0 0.0393028)
(-1.5286 0 0.00651381)
(-1.65433 0 0.0181275)
(-1.52888 0 -0.0174329)
(-1.65442 0 -0.00490573)
(-1.53206 0 -0.0406467)
(-1.65847 0 -0.027906)
(-1.53779 0 -0.0600938)
(-1.66627 0 -0.0497129)
(-1.67217 0 -0.065411)
(-0.20907 0 -0.451894)
(-0.172295 0 -0.419734)
(-0.425879 0 -0.313228)
(-0.384469 0 -0.268853)
(-0.633776 0 -0.20383)
(-0.63335 0 -0.143547)
(-0.822476 0 -0.125043)
(-0.838698 0 -0.0646041)
(-0.988794 0 -0.0683401)
(-1.01597 0 -0.0140028)
(-1.13112 0 -0.0295766)
(-1.16611 0 0.0166271)
(-1.25066 0 -0.0046262)