/*--------------------------------*- C++ -*----------------------------------*\
  =========                 |
  \\      /  F ield         | OpenFOAM: The Open Source CFD Toolbox
   \\    /   O peration     | Website:  https://openfoam.org
    \\  /    A nd           | Version:  dev
     \\/     M anipulation  |
\*---------------------------------------------------------------------------*/
FoamFile
{
    version     2.0;
    format      ascii;
    class       surfaceVectorField;
    location    "3.5";
    object      Uf;
}
// * * * * * * * * * * * * * * * * * * * * * * * * * * * * * * * * * * * * * //

dimensions      [0 1 -1 0 0 0 0];

internalField   nonuniform List<vector> 
5457
(
(9.92088 0 0.0251097)
(9.97125 0 0.0387459)
(9.82401 0 0.032827)
(9.92859 0 0.0485855)
(9.70961 0 0.0393123)
(9.85548 0 0.0587687)
(9.57543 0 0.046012)
(9.7568 0 0.0705941)
(9.42137 0 0.0529494)
(9.63753 0 0.0830143)
(9.24754 0 0.0601667)
(9.49861 0 0.0959375)
(9.05361 0 0.0678114)
(9.3393 0 0.109614)
(8.83892 0 0.0760349)
(9.15873 0 0.12429)
(8.60251 0 0.0849704)
(8.95609 0 0.140168)
(8.34326 0 0.0947448)
(8.73037 0 0.157433)
(8.05984 0 0.105487)
(8.4804 0 0.176269)
(7.7508 0 0.117327)
(8.20477 0 0.196856)
(7.41456 0 0.130394)
(7.90195 0 0.21936)
(7.04951 0 0.144809)
(7.57031 0 0.243921)
(6.65405 0 0.16067)
(7.2082 0 0.270629)
(6.22674 0 0.178042)
(6.81401 0 0.299496)
(5.76646 0 0.196925)
(6.38636 0 0.330409)
(5.27262 0 0.21723)
(5.92421 0 0.363078)
(4.74544 0 0.238732)
(5.42716 0 0.39697)
(4.18628 0 0.261028)
(4.89572 0 0.431231)
(3.59806 0 0.283484)
(4.33172 0 0.464614)
(2.98565 0 0.305199)
(3.7387 0 0.49542)
(2.35622 0 0.325067)
(3.12238 0 0.52151)
(1.71921 0 0.342547)
(2.49118 0 0.540557)
(1.08445 0 0.36188)
(1.85597 0 0.551675)
(0.451941 0 0.348708)
(1.24558 0 0.563022)
(-0.145768 0 0.102504)
(0.609038 0 0.544912)
(-0.423591 0 -0.207088)
(0.094705 0 0.259408)
(-0.402144 0 -0.361267)
(-0.133609 0 -0.0205096)
(-0.119677 0 -0.393875)
(9.99641 0 0.0516727)
(9.99705 0 0.0405049)
(9.95879 0 0.0708621)
(9.97851 0 0.0674551)
(9.89824 0 0.0879877)
(9.93377 0 0.089871)
(9.81658 0 0.105986)
(9.86453 0 0.113556)
(9.71358 0 0.124923)
(9.77437 0 0.138516)
(9.58908 0 0.144855)
(9.66435 0 0.164648)
(9.44273 0 0.166091)
(9.53396 0 0.192334)
(9.27389 0 0.188968)
(9.38249 0 0.222032)
(9.08165 0 0.213783)
(9.20918 0 0.25415)
(8.86489 0 0.240815)
(9.01315 0 0.289064)
(8.62229 0 0.270336)
(8.7933 0 0.327152)
(8.35238 0 0.302605)
(8.54835 0 0.368784)
(8.05356 0 0.337854)
(8.27683 0 0.414313)
(7.72412 0 0.376258)
(7.97717 0 0.464041)
(7.36238 0 0.417896)
(7.64772 0 0.518182)
(6.96674 0 0.4627)
(7.28684 0 0.576797)
(6.53586 0 0.510378)
(6.89298 0 0.639715)
(6.06887 0 0.560324)
(6.46485 0 0.706415)
(5.56565 0 0.611511)
(6.00165 0 0.775896)
(5.02717 0 0.662375)
(5.50332 0 0.84651)
(4.45596 0 0.7107)
(4.97097 0 0.915794)
(3.85659 0 0.753534)
(4.40727 0 0.980296)
(3.2363 0 0.787193)
(3.81714 0 1.03545)
(2.60592 0 0.807503)
(3.20856 0 1.07548)
(1.9829 0 0.810473)
(2.5935 0 1.09315)
(1.40537 0 0.776915)
(1.9963 0 1.0771)
(0.929837 0 0.646432)
(1.41959 0 0.978443)
(0.439937 0 0.384386)
(0.937639 0 0.716838)
(0.0592129 0 -0.11857)
(0.443867 0 0.343579)
(0.174936 0 -0.33588)
(9.98903 0 0.0594314)
(9.99481 0 0.0458779)
(9.95434 0 0.0894775)
(9.97368 0 0.0848551)
(9.89729 0 0.118033)
(9.92984 0 0.119175)
(9.82046 0 0.1479)
(9.86357 0 0.153978)
(9.72416 0 0.179424)
(9.77735 0 0.190411)
(9.60821 0 0.212777)
(9.67226 0 0.22864)
(9.47234 0 0.248394)
(9.54809 0 0.269132)
(9.31606 0 0.286776)
(9.40431 0 0.312499)
(9.13867 0 0.328398)
(9.24033 0 0.359327)
(8.93923 0 0.373721)
(9.05548 0 0.410174)
(8.71664 0 0.423203)
(8.84888 0 0.465596)
(8.46959 0 0.47729)
(8.6195 0 0.526148)
(8.19667 0 0.53639)
(8.36615 0 0.592365)
(7.89632 0 0.600831)
(8.08751 0 0.664726)
(7.56693 0 0.670795)
(7.7822 0 0.743602)
(7.20685 0 0.746239)
(7.44874 0 0.82917)
(6.8146 0 0.826762)
(7.0857 0 0.921296)
(6.38892 0 0.911461)
(6.69174 0 1.01938)
(5.92909 0 0.998735)
(6.26577 0 1.12214)
(5.43521 0 1.08607)
(5.80718 0 1.2274)
(4.90863 0 1.16981)
(5.31615 0 1.33172)
(4.35253 0 1.24488)
(4.79407 0 1.43017)
(3.7727 0 1.30454)
(4.24408 0 1.51586)
(3.17884 0 1.33984)
(3.67192 0 1.57942)
(2.58674 0 1.33813)
(3.08644 0 1.60775)
(2.01996 0 1.273)
(2.50303 0 1.58161)
(1.48703 0 1.09546)
(1.92883 0 1.4643)
(0.958361 0 0.76923)
(1.38533 0 1.21047)
(0.479916 0 0.202531)
(0.829594 0 0.801119)
(0.433755 0 0.134168)
(9.98515 0 0.0716147)
(9.99367 0 0.0531484)
(9.95039 0 0.113632)
(9.97087 0 0.102292)
(9.89436 0 0.154135)
(9.9269 0 0.147956)
(9.81882 0 0.195576)
(9.86185 0 0.193724)
(9.72441 0 0.238814)
(9.77746 0 0.241281)
(9.61111 0 0.284327)
(9.67466 0 0.291167)
(9.47873 0 0.332723)
(9.55342 0 0.343959)
(9.32694 0 0.384676)
(9.41334 0 0.400375)
(9.15522 0 0.440847)
(9.25399 0 0.461141)
(8.9629 0 0.501882)
(9.07482 0 0.526961)
(8.74915 0 0.568424)
(8.87518 0 0.598533)
(8.51303 0 0.641104)
(8.65428 0 0.676556)
(8.25345 0 0.720519)
(8.41121 0 0.76171)
(7.96926 0 0.807174)
(8.14499 0 0.854621)
(7.65918 0 0.901416)
(7.85454 0 0.955798)
(7.32194 0 1.00332)
(7.53876 0 1.06554)
(6.95623 0 1.11254)
(7.19648 0 1.18382)
(6.56088 0 1.2281)
(6.82656 0 1.31004)
(6.13494 0 1.34813)
(6.42793 0 1.44288)
(5.67791 0 1.46956)
(5.99972 0 1.57986)
(5.19008 0 1.58774)
(5.54142 0 1.71704)
(4.67296 0 1.696)
(5.05314 0 1.84851)
(4.12991 0 1.78513)
(4.53607 0 1.96581)
(3.56677 0 1.84253)
(3.99284 0 2.05729)
(2.99216 0 1.85074)
(3.42772 0 2.10715)
(2.41595 0 1.78253)
(2.84775 0 2.09451)
(1.84063 0 1.60052)
(2.25633 0 1.98879)
(1.25945 0 1.27851)
(1.6604 0 1.75313)
(0.666807 0 0.789633)
(1.02402 0 1.36787)
(0.523057 0 0.787264)
(9.98337 0 0.0844084)
(9.99316 0 0.0612921)
(9.94821 0 0.136839)
(9.96958 0 0.119929)
(9.89314 0 0.188035)
(9.92574 0 0.176243)
(9.81906 0 0.240172)
(9.86199 0 0.232701)
(9.72662 0 0.294471)
(9.77963 0 0.291091)
(9.61589 0 0.351663)
(9.67939 0 0.352278)
(9.4867 0 0.412473)
(9.56127 0 0.416981)
(9.33877 0 0.477678)
(9.42495 0 0.486011)
(9.17169 0 0.54805)
(9.27008 0 0.560206)
(8.98491 0 0.624351)
(9.09618 0 0.640385)
(8.77777 0 0.707337)
(8.90273 0 0.727363)
(8.54952 0 0.797753)
(8.68905 0 0.821947)
(8.29934 0 0.896309)
(8.45443 0 0.924927)
(8.02634 0 1.00363)
(8.19806 0 1.03703)
(7.72957 0 1.12018)
(7.91911 0 1.15889)
(7.40806 0 1.24613)
(7.61669 0 1.29089)
(7.06078 0 1.38123)
(7.28986 0 1.43311)
(6.68673 0 1.52454)
(6.93765 0 1.58506)
(6.2849 0 1.67414)
(6.55903 0 1.74545)
(5.85445 0 1.82674)
(6.15292 0 1.91183)
(5.39479 0 1.97721)
(5.71829 0 2.08011)
(4.90585 0 2.11802)
(5.25417 0 2.24404)
(4.38836 0 2.23859)
(4.75984 0 2.39457)
(3.84406 0 2.32454)
(4.23507 0 2.51918)
(3.27555 0 2.35697)
(3.68001 0 2.60124)
(2.6855 0 2.31064)
(3.09584 0 2.61974)
(2.07278 0 2.15508)
(2.4818 0 2.54739)
(1.42945 0 1.8675)
(1.84001 0 2.35382)
(0.742649 0 1.41969)
(1.13142 0 2.02466)
(0.543333 0 1.51464)
(9.98264 0 0.0974989)
(9.99299 0 0.0697936)
(9.94744 0 0.159777)
(9.96925 0 0.137585)
(9.89354 0 0.221351)
(9.92597 0 0.20393)
(9.82133 0 0.284096)
(9.8638 0 0.270692)
(9.73133 0 0.349352)
(9.78385 0 0.339587)
(9.62366 0 0.418023)
(9.68664 0 0.411702)
(9.49818 0 0.490942)
(9.57217 0 0.487908)
(9.35464 0 0.568976)
(9.4402 0 0.569108)
(9.19267 0 0.653004)
(9.29041 0 0.656235)
(9.01181 0 0.743894)
(9.1224 0 0.750212)
(8.81149 0 0.842508)
(8.93569 0 0.851952)
(8.59107 0 0.949696)
(8.7297 0 0.962356)
(8.34983 0 1.06626)
(8.50379 0 1.08231)
(8.08705 0 1.19294)
(8.25726 0 1.21262)
(7.80191 0 1.33027)
(7.98936 0 1.35401)
(7.4936 0 1.47856)
(7.69929 0 1.50699)
(7.1612 0 1.63764)
(7.38617 0 1.67172)
(6.80375 0 1.8067)
(7.04904 0 1.84786)
(6.42015 0 1.98392)
(6.68678 0 2.0343)
(6.00919 0 2.16608)
(6.29806 0 2.22877)
(5.56948 0 2.34805)
(5.88126 0 2.42742)
(5.09956 0 2.52216)
(5.43443 0 2.6242)
(4.59786 0 2.67754)
(4.95522 0 2.81025)
(4.06282 0 2.79949)
(4.44097 0 2.9732)
(3.49283 0 2.86913)
(3.88865 0 3.09663)
(2.88595 0 2.86298)
(3.29537 0 3.15994)
(2.23812 0 2.75403)
(2.65703 0 3.13799)
(1.54252 0 2.52116)
(1.97495 0 3.00332)
(0.79369 0 2.13149)
(1.20731 0 2.74077)
(0.556769 0 2.29201)
(9.9825 0 0.110628)
(9.99302 0 0.0783624)
(9.9477 0 0.182327)
(9.96954 0 0.155039)
(9.89522 0 0.253821)
(9.92722 0 0.230889)
(9.82524 0 0.326772)
(9.86696 0 0.307514)
(9.73812 0 0.40256)
(9.78977 0 0.386528)
(9.63402 0 0.482239)
(9.69604 0 0.469154)
(9.51284 0 0.566762)
(9.58578 0 0.556403)
(9.37436 0 0.657095)
(9.45878 0 0.649275)
(9.21826 0 0.754213)
(9.31478 0 0.74879)
(9.04412 0 0.859081)
(9.15344 0 0.855962)
(8.85142 0 0.972654)
(8.97431 0 0.971796)
(8.6396 0 1.09587)
(8.77688 0 1.09729)
(8.408 0 1.22962)
(8.56055 0 1.2334)
(8.15593 0 1.37472)
(8.32467 0 1.38105)
(7.88263 0 1.53183)
(8.0685 0 1.54105)
(7.58727 0 1.70134)
(7.79124 0 1.71401)
(7.2689 0 1.88324)
(7.49195 0 1.90025)
(6.92645 0 2.07691)
(7.16955 0 2.09964)
(6.55855 0 2.28079)
(6.82268 0 2.31132)
(6.16353 0 2.49199)
(6.44964 0 2.53342)
(5.73921 0 2.70577)
(6.04817 0 2.76257)
(5.28283 0 2.91494)
(5.61534 0 2.9934)
(4.79096 0 3.10912)
(5.14736 0 3.21779)
(4.25944 0 3.27419)
(4.63953 0 3.42424)
(3.68354 0 3.39188)
(4.08622 0 3.59715)
(3.05819 0 3.43975)
(3.48148 0 3.71658)
(2.37786 0 3.39191)
(2.81852 0 3.75823)
(1.63801 0 3.22634)
(2.09929 0 3.69414)
(0.839184 0 2.90104)
(1.27901 0 3.50468)
(0.573402 0 3.11394)
(9.98273 0 0.123583)
(9.99316 0 0.0868187)
(9.94873 0 0.204312)
(9.97026 0 0.172096)
(9.89794 0 0.285257)
(9.92926 0 0.256979)
(9.8305 0 0.367971)
(9.87123 0 0.342994)
(9.7467 0 0.453858)
(9.79714 0 0.431685)
(9.64667 0 0.544084)
(9.70734 0 0.524358)
(9.53036 0 0.639713)
(9.60179 0 0.622143)
(9.3976 0 0.741804)
(9.48036 0 0.726132)
(9.24811 0 0.851416)
(9.34284 0 0.837429)
(9.0815 0 0.969604)
(9.18891 0 0.957132)
(8.89733 0 1.09741)
(9.01821 0 1.08634)
(8.69507 0 1.23587)
(8.83026 0 1.22612)
(8.4741 0 1.38596)
(8.62451 0 1.37756)
(8.23374 0 1.5486)
(8.40033 0 1.54166)
(7.9732 0 1.72456)
(8.15699 0 1.71934)
(7.6916 0 1.91439)
(7.89361 0 1.91138)
(7.38785 0 2.11829)
(7.60919 0 2.1183)
(7.06064 0 2.33589)
(7.30242 0 2.34022)
(6.70824 0 2.56604)
(6.97167 0 2.57668)
(6.32842 0 2.8064)
(6.61476 0 2.82634)
(5.91819 0 3.05297)
(6.22879 0 3.08661)
(5.47357 0 3.29946)
(5.80985 0 3.35308)
(4.98945 0 3.5366)
(5.35279 0 3.61891)
(4.45951 0 3.75139)
(4.85105 0 3.87394)
(3.8764 0 3.92649)
(4.29662 0 4.10393)
(3.23251 0 4.03994)
(3.68076 0 4.28973)
(2.521 0 4.06513)
(2.99372 0 4.40689)
(1.7385 0 3.97633)
(2.23756 0 4.42477)
(0.889543 0 3.719)
(1.36348 0 4.31655)
(0.59881 0 3.98519)
(9.98321 0 0.136206)
(9.99339 0 0.0950419)
(9.95032 0 0.225576)
(9.97131 0 0.188593)
(9.9015 0 0.315502)
(9.93193 0 0.282054)
(9.83693 0 0.40751)
(9.87643 0 0.376967)
(9.75683 0 0.50302)
(9.80578 0 0.474849)
(9.66134 0 0.603285)
(9.72029 0 0.577059)
(9.55044 0 0.709466)
(9.61994 0 0.684824)
(9.42401 0 0.822707)
(9.50463 0 0.799324)
(9.28181 0 0.944148)
(9.37419 0 0.92174)
(9.12353 0 1.07493)
(9.2284 0 1.05325)
(8.94876 0 1.21618)
(9.06692 0 1.19503)
(8.75702 0 1.36903)
(8.88934 0 1.34826)
(8.54773 0 1.53456)
(8.69516 0 1.5141)
(8.32022 0 1.7138)
(8.48378 0 1.69367)
(8.07367 0 1.90769)
(8.25447 0 1.88806)
(7.80712 0 2.11696)
(8.00633 0 2.09821)
(7.51932 0 2.34208)
(7.73823 0 2.32489)
(7.20869 0 2.58306)
(7.44873 0 2.56859)
(6.87314 0 2.83929)
(7.13587 0 2.82935)
(6.50984 0 3.10916)
(6.79706 0 3.10652)
(6.11498 0 3.3897)
(6.42876 0 3.39849)
(5.68345 0 3.67593)
(6.02616 0 3.70218)
(5.20855 0 3.96013)
(5.58284 0 4.01238)
(4.68186 0 4.23095)
(5.09042 0 4.32089)
(4.09341 0 4.47233)
(4.5384 0 4.61536)
(3.43265 0 4.66262)
(3.91486 0 4.8779)
(2.69026 0 4.77331)
(3.20585 0 5.0837)
(1.86196 0 4.77263)
(2.41143 0 5.19818)
(0.954242 0 4.59002)
(1.47639 0 5.1846)
(0.639246 0 4.91982)
(9.98386 0 0.148372)
(9.99368 0 0.102946)
(9.95235 0 0.245976)
(9.9726 0 0.204398)
(9.90578 0 0.344406)
(9.9351 0 0.305976)
(9.84436 0 0.445207)
(9.8824 0 0.409279)
(9.76832 0 0.549821)
(9.81551 0 0.515827)
(9.67778 0 0.65957)
(9.7347 0 0.627023)
(9.57279 0 0.775698)
(9.63997 0 0.74417)
(9.45325 0 0.899426)
(9.53127 0 0.868527)
(9.31899 0 1.03197)
(9.4085 0 1.00135)
(9.16974 0 1.17455)
(9.27148 0 1.14388)
(9.00518 0 1.32839)
(9.11995 0 1.29738)
(8.82488 0 1.4947)
(8.95357 0 1.46311)
(8.6283 0 1.67468)
(8.77189 0 1.64234)
(8.4148 0 1.8695)
(8.57438 0 1.83633)
(8.18357 0 2.08027)
(8.36033 0 2.0463)
(7.93357 0 2.30798)
(8.12885 0 2.27343)
(7.66346 0 2.55341)
(7.87877 0 2.51879)
(7.37143 0 2.81707)
(7.60852 0 2.78329)
(7.05508 0 3.09899)
(7.31598 0 3.06756)
(6.71107 0 3.39852)
(6.99823 0 3.37182)
(6.33489 0 3.71394)
(6.65125 0 3.69563)
(5.92038 0 4.04197)
(6.2695 0 4.03751)
(5.45933 0 4.37695)
(5.84545 0 4.39437)
(4.94116 0 4.70981)
(5.36897 0 4.76061)
(4.35284 0 5.02652)
(4.82692 0 5.12667)
(3.67972 0 5.30624)
(4.20334 0 5.47706)
(2.90765 0 5.51833)
(3.47808 0 5.78757)
(2.02778 0 5.62327)
(2.64521 0 6.01973)
(1.04517 0 5.5298)
(1.63785 0 6.12427)
(0.704537 0 5.9435)
(9.98465 0 0.159985)
(9.99402 0 0.110465)
(9.95473 0 0.265388)
(9.97408 0 0.219405)
(9.91064 0 0.37183)
(9.93867 0 0.328621)
(9.85266 0 0.480895)
(9.88904 0 0.439787)
(9.78099 0 0.594058)
(9.82617 0 0.554447)
(9.69579 0 0.712695)
(9.75036 0 0.674041)
(9.59714 0 0.838121)
(9.66164 0 0.799933)
(9.48499 0 0.971628)
(9.56 0 0.93345)
(9.35924 0 1.1145)
(9.4454 0 1.07591)
(9.21969 0 1.26803)
(9.31772 0 1.22862)
(9.06608 0 1.43351)
(9.17679 0 1.39292)
(8.89805 0 1.61227)
(9.02235 0 1.57014)
(8.71516 0 1.8056)
(8.85404 0 1.76167)
(8.5168 0 2.01485)
(8.67139 0 1.96887)
(8.3022 0 2.2413)
(8.47378 0 2.19315)
(8.07035 0 2.48622)
(8.26039 0 2.43594)
(7.81985 0 2.7508)
(8.03006 0 2.69861)
(7.54882 0 3.03606)
(7.78126 0 2.98256)
(7.25465 0 3.34283)
(7.51181 0 3.28907)
(6.93372 0 3.67155)
(7.21869 0 3.61932)
(6.58102 0 4.02201)
(6.89767 0 3.97422)
(6.1896 0 4.39298)
(6.54283 0 4.35416)
(5.74996 0 4.78148)
(6.14586 0 4.75863)
(5.24935 0 5.18164)
(5.69529 0 5.18541)
(4.67121 0 5.58278)
(5.17535 0 5.62913)
(3.9952 0 5.96662)
(4.56541 0 6.07881)
(3.19871 0 6.30191)
(3.83668 0 6.51371)
(2.26201 0 6.54101)
(2.97116 0 6.89434)
(1.18075 0 6.56555)
(1.87939 0 7.15829)
(0.812928 0 7.09997)
(9.98553 0 0.170967)
(9.9944 0 0.117549)
(9.95738 0 0.283706)
(9.97572 0 0.233526)
(9.916 0 0.397646)
(9.94258 0 0.349879)
(9.86168 0 0.514425)
(9.89623 0 0.468365)
(9.79467 0 0.635551)
(9.83763 0 0.590556)
(9.71515 0 0.762446)
(9.76711 0 0.717928)
(9.62322 0 0.896484)
(9.68473 0 0.851895)
(9.51891 0 1.03902)
(9.59052 0 0.993837)
(9.40217 0 1.19139)
(9.48452 0 1.14512)
(9.27289 0 1.35495)
(9.36669 0 1.30713)
(9.13088 0 1.53108)
(9.23693 0 1.48124)
(8.9759 0 1.72118)
(9.09508 0 1.66887)
(8.80756 0 1.92667)
(8.94089 0 1.87148)
(8.62539 0 2.14904)
(8.774 0 2.09059)
(8.4287 0 2.38977)
(8.59392 0 2.32776)
(8.21655 0 2.65043)
(8.39994 0 2.58463)
(7.98764 0 2.9326)
(8.19106 0 2.86294)
(7.74014 0 3.23791)
(7.96588 0 3.16452)
(7.47147 0 3.568)
(7.72239 0 3.49138)
(7.17801 0 3.9245)
(7.45774 0 3.84564)
(6.85462 0 4.30892)
(7.16787 0 4.22965)
(6.49403 0 4.72242)
(6.84696 0 4.64587)
(6.08596 0 5.16532)
(6.48668 0 5.09673)
(5.61598 0 5.63613)
(6.07498 0 5.58423)
(5.06399 0 6.12971)
(5.59441 0 6.10888)
(4.40267 0 6.63378)
(5.02008 0 6.66747)
(3.59659 0 7.12138)
(4.3131 0 7.24858)
(2.60473 0 7.541)
(3.43623 0 7.82046)
(1.39455 0 7.74102)
(2.25692 0 8.31559)
(1.00286 0 8.46585)
(9.9865 0 0.181257)
(9.9948 0 0.124159)
(9.96026 0 0.30084)
(9.97747 0 0.246687)
(9.92176 0 0.421745)
(9.94676 0 0.369658)
(9.87132 0 0.545666)
(9.90387 0 0.4949)
(9.80922 0 0.674141)
(9.84976 0 0.624022)
(9.73565 0 0.808634)
(9.78476 0 0.758527)
(9.65078 0 0.950564)
(9.709 0 0.899869)
(9.55468 0 1.10133)
(9.62255 0 1.04947)
(9.44738 0 1.26233)
(9.52551 0 1.20874)
(9.32885 0 1.43496)
(9.41793 0 1.3791)
(9.19902 0 1.62067)
(9.29982 0 1.56198)
(9.05772 0 1.82093)
(9.17111 0 1.75887)
(8.90472 0 2.03727)
(9.03168 0 1.9713)
(8.73966 0 2.2713)
(8.88133 0 2.20088)
(8.56202 0 2.52472)
(8.71971 0 2.44933)
(8.37102 0 2.79935)
(8.54632 0 2.7185)
(8.16557 0 3.09717)
(8.36041 0 3.01042)
(7.94408 0 3.42038)
(8.16085 0 3.32736)
(7.70427 0 3.77144)
(7.94602 0 3.67195)
(7.44285 0 4.15317)
(7.71356 0 4.04725)
(7.15508 0 4.56885)
(7.46002 0 4.45695)
(6.83409 0 5.0222)
(7.18038 0 4.90555)
(6.46981 0 5.51735)
(6.86727 0 5.39855)
(6.04738 0 6.05845)
(6.50962 0 5.9427)
(5.54455 0 6.64855)
(6.09049 0 6.54589)
(4.92769 0 7.28693)
(5.58373 0 7.21656)
(4.14569 0 7.96157)
(4.94328 0 7.9615)
(3.12244 0 8.63403)
(4.11018 0 8.77589)
(1.75672 0 9.12868)
(2.87927 0 9.62163)
(1.36523 0 10.1865)
(9.98753 0 0.190804)
(9.99523 0 0.130264)
(9.96332 0 0.316717)
(9.97932 0 0.258832)
(9.92785 0 0.444036)
(9.95114 0 0.387881)
(9.88146 0 0.574507)
(9.91187 0 0.519302)
(9.82447 0 0.709701)
(9.86242 0 0.654736)
(9.7571 0 0.85111)
(9.80315 0 0.795708)
(9.67955 0 1.00019)
(9.73422 0 0.943702)
(9.59197 0 1.15837)
(9.65578 0 1.10017)
(9.49446 0 1.32709)
(9.568 0 1.26656)
(9.38709 0 1.5078)
(9.47101 0 1.4443)
(9.26988 0 1.70197)
(9.36492 0 1.63488)
(9.14281 0 1.91114)
(9.24978 0 1.83982)
(9.00578 0 2.13693)
(9.12562 0 2.0607)
(8.8586 0 2.38105)
(8.9924 0 2.29922)
(8.70096 0 2.64536)
(8.84999 0 2.55721)
(8.53236 0 2.93193)
(8.69815 0 2.83667)
(8.35201 0 3.24306)
(8.53645 0 3.13988)
(8.15875 0 3.58143)
(8.36419 0 3.46945)
(7.95084 0 3.95024)
(8.18032 0 3.82851)
(7.72575 0 4.35337)
(7.98326 0 4.22085)
(7.47971 0 4.79568)
(7.77064 0 4.65129)
(7.20719 0 5.28336)
(7.53898 0 5.12601)
(6.89979 0 5.8244)
(7.28305 0 5.65324)
(6.54457 0 6.42917)
(6.99486 0 6.24413)
(6.12078 0 7.11111)
(6.66172 0 6.91421)
(5.59369 0 7.88738)
(6.26306 0 7.68574)
(4.90177 0 8.77791)
(5.75845 0 8.5923)
(3.92792 0 9.80202)
(5.08858 0 9.6852)
(2.43414 0 10.858)
(3.98103 0 11.0501)
(2.14736 0 12.5705)
(9.98861 0 0.199569)
(9.99567 0 0.13584)
(9.96652 0 0.331273)
(9.98124 0 0.269915)
(9.93419 0 0.464435)
(9.9557 0 0.404487)
(9.89201 0 0.600842)
(9.92015 0 0.541496)
(9.84028 0 0.742092)
(9.87551 0 0.682608)
(9.77929 0 0.889699)
(9.82213 0 0.829368)
(9.70928 0 1.04514)
(9.76024 0 0.983276)
(9.63046 0 1.20988)
(9.69005 0 1.1458)
(9.54301 0 1.38537)
(9.61179 0 1.3184)
(9.4471 0 1.57308)
(9.5257 0 1.50254)
(9.34286 0 1.77452)
(9.43197 0 1.69971)
(9.23041 0 1.99128)
(9.33082 0 1.91144)
(9.10983 0 2.225)
(9.22241 0 2.13937)
(8.98112 0 2.4775)
(9.1069 0 2.38522)
(8.84423 0 2.75074)
(8.98441 0 2.65089)
(8.69898 0 3.04695)
(8.85499 0 2.93848)
(8.54501 0 3.36867)
(8.71861 0 3.25041)
(8.38171 0 3.71895)
(8.57512 0 3.58951)
(8.20815 0 4.10148)
(8.42417 0 3.9592)
(8.02287 0 4.52094)
(8.2652 0 4.36375)
(7.82367 0 4.98335)
(8.0973 0 4.80862)
(7.60729 0 5.49679)
(7.91912 0 5.30106)
(7.36871 0 6.07228)
(7.72869 0 5.85092)
(7.10001 0 6.72551)
(7.52316 0 6.47215)
(6.78806 0 7.47969)
(7.29829 0 7.18533)
(6.40932 0 8.37159)
(7.04867 0 8.02287)
(5.91682 0 9.46576)
(6.76416 0 9.0413)
(5.19791 0 10.9087)
(6.46389 0 10.3565)
(3.88662 0 13.1811)
(6.1933 0 12.3041)
(5.26481 0 16.3772)
(0.220248 0 -0.137199)
(0.12672 0 -0.215719)
(0.427519 0 -0.116513)
(0.305753 0 -0.198214)
(0.601448 0 -0.0922495)
(0.486544 0 -0.162401)
(0.743902 0 -0.0717527)
(0.643183 0 -0.12987)
(0.860463 0 -0.0556111)
(0.771813 0 -0.103755)
(0.956386 0 -0.0431442)
(0.877595 0 -0.083368)
(1.03615 0 -0.0336405)
(0.966229 0 -0.0676864)
(1.10353 0 -0.0264899)
(1.04204 0 -0.0558234)
(1.16157 0 -0.0211502)
(1.1082 0 -0.0469599)
(1.21264 0 -0.0171372)
(1.16712 0 -0.0403383)
(1.25839 0 -0.014029)
(1.22062 0 -0.0352798)
(1.29981 0 -0.011473)
(1.26992 0 -0.0311905)
(1.33734 0 -0.00920913)
(1.31571 0 -0.0275887)
(1.371 0 -0.00709262)
(1.3582 0 -0.0241643)
(1.4007 0 -0.0050748)
(1.39729 0 -0.0208181)
(1.42639 0 -0.0031005)
(1.43291 0 -0.0175772)
(1.44786 0 -0.000971757)
(1.46507 0 -0.0143469)
(1.46426 0 0.00164416)
(1.49372 0 -0.0107002)
(1.47386 0 0.00488034)
(1.51819 0 -0.00611868)
(1.47539 0 0.00807777)
(1.53696 0 -0.000948438)
(1.46837 0 0.0102292)
(1.54845 0 0.00426257)
(1.4562 0 0.0107926)
(1.55297 0 0.00721878)
(1.44298 0 0.00981186)
(1.55375 0 0.00765135)
(1.43103 0 0.00779707)
(1.55452 0 0.00675639)
(1.42158 0 0.00525762)
(1.55703 0 0.00521448)
(1.4157 0 0.00232666)
(1.56164 0 0.00316867)
(1.4149 0 -0.000801171)
(1.56863 0 0.00041765)
(1.42173 0 -0.00361491)
(1.57874 0 -0.00350958)
(1.43578 0 -0.00545711)
(1.59247 0 -0.00704708)
(1.61372 0 -0.00874862)
(0.193229 0 -0.309426)
(0.0985478 0 -0.404976)
(0.380565 0 -0.271929)
(0.259247 0 -0.377365)
(0.541 0 -0.221663)
(0.411551 0 -0.312202)
(0.675587 0 -0.178209)
(0.544712 0 -0.252569)
(0.789232 0 -0.143812)
(0.655577 0 -0.204915)
(0.886394 0 -0.117218)
(0.748748 0 -0.167812)
(0.970741 0 -0.096948)
(0.828612 0 -0.139262)
(1.04527 0 -0.0817025)
(0.898437 0 -0.11757)
(1.11237 0 -0.0703134)
(0.96065 0 -0.101242)
(1.17389 0 -0.0617346)
(1.01712 0 -0.088938)
(1.2312 0 -0.0550433)
(1.06927 0 -0.0794716)
(1.28512 0 -0.0494561)
(1.11811 0 -0.0717956)
(1.33606 0 -0.0443855)
(1.16423 0 -0.0650382)
(1.38405 0 -0.0395168)
(1.20779 0 -0.0586171)
(1.42905 0 -0.0347982)
(1.24869 0 -0.0523553)
(1.47117 0 -0.0302253)
(1.28674 0 -0.0464028)
(1.51075 0 -0.0254892)
(1.32205 0 -0.0407948)
(1.54787 0 -0.0198995)
(1.35514 0 -0.0349188)
(1.58162 0 -0.0130359)
(1.38634 0 -0.0276162)
(1.60978 0 -0.00575608)
(1.41487 0 -0.0184622)
(1.63159 0 0.000176553)
(1.43849 0 -0.00897914)
(1.64854 0 0.00368541)
(1.45585 0 -0.00283285)
(1.66414 0 0.00507847)
(1.46924 0 -0.00137639)
(1.6801 0 0.00511508)
(1.48209 0 -0.00226559)
(1.69698 0 0.00411914)
(1.49548 0 -0.00410182)
(1.71457 0 0.00195045)
(1.50895 0 -0.00631224)
(1.73231 0 -0.0015275)
(1.52154 0 -0.00891196)
(1.74945 0 -0.00590849)
(1.53181 0 -0.0123181)
(1.76712 0 -0.00960001)
(1.53974 0 -0.0159063)
(1.54802 0 -0.0163511)
(0.155088 0 -0.481296)
(0.0712596 0 -0.556874)
(0.301645 0 -0.426265)
(0.19888 0 -0.517519)
(0.425106 0 -0.35102)
(0.306856 0 -0.427479)
(0.528308 0 -0.285939)
(0.40199 0 -0.346655)
(0.615523 0 -0.234311)
(0.479752 0 -0.282548)
(0.690185 0 -0.194175)
(0.544963 0 -0.232702)
(0.755092 0 -0.163334)
(0.600508 0 -0.194341)
(0.812472 0 -0.13987)
(0.64856 0 -0.165112)
(0.864095 0 -0.122096)
(0.690809 0 -0.143003)
(0.911355 0 -0.108516)
(0.728588 0 -0.126267)
(0.955297 0 -0.0978027)
(0.762943 0 -0.11336)
(0.996598 0 -0.0887969)
(0.794658 0 -0.102894)
(1.03554 0 -0.0805979)
(0.824268 0 -0.0936656)
(1.07203 0 -0.0727153)
(0.851971 0 -0.0848161)
(1.10586 0 -0.0651411)
(0.877585 0 -0.0760684)
(1.13708 0 -0.0580763)
(0.900619 0 -0.0677635)
(1.16625 0 -0.0512684)
(0.920658 0 -0.0602838)
(1.19407 0 -0.04348)
(0.938421 0 -0.0530707)
(1.22023 0 -0.0332304)
(0.955376 0 -0.0442797)
(1.24294 0 -0.0212663)
(0.972789 0 -0.0325887)
(1.26067 0 -0.0117935)
(0.988414 0 -0.019746)
(1.27409 0 -0.00823102)
(0.991247 0 -0.0107859)
(1.28584 0 -0.00945508)
(0.981026 0 -0.00818101)
(1.29691 0 -0.0125948)
(0.968168 0 -0.00852074)
(1.30737 0 -0.0158699)
(0.956072 0 -0.00987491)
(1.3158 0 -0.0185547)
(0.945576 0 -0.0108563)
(1.32083 0 -0.0206919)
(0.938313 0 -0.0115562)
(1.32164 0 -0.0224587)
(0.931187 0 -0.0127368)
(1.31903 0 -0.0228202)
(0.924688 0 -0.0145965)
(0.919398 0 -0.0172851)
(0.11427 0 -0.605358)
(0.0448644 0 -0.668795)
(0.213124 0 -0.531431)
(0.13183 0 -0.612053)
(0.291845 0 -0.435706)
(0.187956 0 -0.500983)
(0.356365 0 -0.354854)
(0.240127 0 -0.405476)
(0.409981 0 -0.2912)
(0.278533 0 -0.330273)
(0.454932 0 -0.241774)
(0.309534 0 -0.27177)
(0.493052 0 -0.203763)
(0.334133 0 -0.226688)
(0.525754 0 -0.174765)
(0.353556 0 -0.192208)
(0.554169 0 -0.152732)
(0.368834 0 -0.16599)
(0.57922 0 -0.135875)
(0.380796 0 -0.146054)
(0.601653 0 -0.122597)
(0.390113 0 -0.130661)
(0.62203 0 -0.111463)
(0.397392 0 -0.118238)
(0.640646 0 -0.101291)
(0.403259 0 -0.107353)
(0.657427 0 -0.0913676)
(0.408122 0 -0.0968622)
(0.671926 0 -0.0816559)
(0.411978 0 -0.0862307)
(0.683659 0 -0.0726549)
(0.414115 0 -0.0757929)
(0.692909 0 -0.064717)
(0.412493 0 -0.0664645)
(0.701175 0 -0.0572188)
(0.407167 0 -0.0584637)
(0.709867 0 -0.0484621)
(0.397704 0 -0.049816)
(0.717376 0 -0.0366101)
(0.388393 0 -0.0372591)
(0.7147 0 -0.0224622)
(0.376536 0 -0.0181206)
(0.694361 0 -0.0110153)
(0.362315 0 0.00127288)
(0.661861 0 -0.00525226)
(0.339553 0 0.0106335)
(0.626641 0 -0.00318616)
(0.314448 0 0.0113868)
(0.59467 0 -0.00224481)
(0.289507 0 0.00776976)
(0.56871 0 -0.00151421)
(0.267152 0 0.00313243)
(0.548142 0 -0.00191249)
(0.253712 0 -0.000735155)
(0.533003 0 -0.00417828)
(0.244684 0 -0.00495973)
(0.524884 0 -0.0087091)
(0.238596 0 -0.0105245)
(0.234054 0 -0.0187027)
(0.0677965 0 -0.684636)
(0.0173879 0 -0.735198)
(0.113711 0 -0.590998)
(0.0571352 0 -0.655961)
(0.143671 0 -0.479671)
(0.0568986 0 -0.528957)
(0.164839 0 -0.38874)
(0.0627965 0 -0.424773)
(0.17953 0 -0.317469)
(0.057411 0 -0.34335)
(0.188937 0 -0.262106)
(0.0492972 0 -0.279946)
(0.194052 0 -0.219447)
(0.0376306 0 -0.231029)
(0.195671 0 -0.186799)
(0.0232267 0 -0.193549)
(0.194443 0 -0.161922)
(0.00670113 0 -0.164997)
(0.190908 0 -0.142902)
(-0.01145 0 -0.143262)
(0.185558 0 -0.128038)
(-0.0308199 0 -0.126535)
(0.178865 0 -0.115754)
(-0.0509324 0 -0.113198)
(0.171267 0 -0.104628)
(-0.0711367 0 -0.101766)
(0.163034 0 -0.09361)
(-0.0908062 0 -0.0909522)
(0.153971 0 -0.0823187)
(-0.109539 0 -0.0798783)
(0.142938 0 -0.0710429)
(-0.127524 0 -0.0682428)
(0.127729 0 -0.0600722)
(-0.146345 0 -0.0563023)
(0.106275 0 -0.0484693)
(-0.166374 0 -0.0444667)
(0.078756 0 -0.0336686)
(-0.189167 0 -0.032287)
(0.0478109 0 -0.0138567)
(-0.211141 0 -0.0180131)
(0.0210532 0 0.00691125)
(-0.233005 0 -0.00187193)
(0.00452989 0 0.0204837)
(-0.243998 0 0.0110698)
(-0.0100154 0 0.0236568)
(-0.252122 0 0.0190539)
(-0.0241765 0 0.0192921)
(-0.260542 0 0.0193911)
(-0.037091 0 0.0112956)
(-0.270514 0 0.0148971)
(-0.0464114 0 0.00309422)
(-0.280731 0 0.00815469)
(-0.0506321 0 -0.0037543)
(-0.286182 0 0.0014855)
(-0.0514439 0 -0.0102976)
(-0.288284 0 -0.00454273)
(-0.0503956 0 -0.0186139)
(-0.29143 0 -0.0110503)
(-0.29595 0 -0.019059)
(0.0138974 0 -0.71247)
(-0.0132891 0 -0.748809)
(0.00380136 0 -0.59889)
(-0.0264189 0 -0.646307)
(-0.0176711 0 -0.476389)
(-0.0827265 0 -0.508908)
(-0.0421782 0 -0.380103)
(-0.126723 0 -0.402431)
(-0.070532 0 -0.304905)
(-0.177364 0 -0.318111)
(-0.10118 0 -0.246899)
(-0.226827 0 -0.253309)
(-0.13337 0 -0.202464)
(-0.275735 0 -0.203714)
(-0.166452 0 -0.168626)
(-0.323258 0 -0.166139)
(-0.199999 0 -0.142888)
(-0.368834 0 -0.137858)
(-0.233711 0 -0.123199)
(-0.412104 0 -0.116634)
(-0.267285 0 -0.107835)
(-0.452933 0 -0.100643)
(-0.300326 0 -0.0952769)
(-0.491239 0 -0.0883183)
(-0.332326 0 -0.0841857)
(-0.526874 0 -0.0782398)
(-0.362685 0 -0.0735178)
(-0.559604 0 -0.0691588)
(-0.390815 0 -0.0626944)
(-0.589199 0 -0.0601623)
(-0.416262 0 -0.0516609)
(-0.615577 0 -0.0508283)
(-0.438958 0 -0.0406406)
(-0.638845 0 -0.0411372)
(-0.459343 0 -0.0296631)
(-0.659193 0 -0.0311678)
(-0.477535 0 -0.0183535)
(-0.676729 0 -0.020699)
(-0.49194 0 -0.00677112)
(-0.690501 0 -0.00905359)
(-0.499782 0 0.00449128)
(-0.699108 0 0.00289006)
(-0.503639 0 0.0141932)
(-0.702046 0 0.0133564)
(-0.505646 0 0.0191804)
(-0.703612 0 0.0202162)
(-0.508803 0 0.0181958)
(-0.7054 0 0.0211751)
(-0.513456 0 0.0134075)
(-0.708953 0 0.0174652)
(-0.519076 0 0.00710102)
(-0.714242 0 0.0111831)
(-0.524588 0 0.000587674)
(-0.719784 0 0.00438546)
(-0.529078 0 -0.00622945)
(-0.724347 0 -0.00223602)
(-0.531783 0 -0.0136571)
(-0.730953 0 -0.00969376)
(-0.736855 0 -0.0180179)
(-0.0435169 0 -0.681242)
(-0.049355 0 -0.706187)
(-0.111931 0 -0.55235)
(-0.117297 0 -0.580881)
(-0.184507 0 -0.427866)
(-0.227268 0 -0.441142)
(-0.258631 0 -0.331742)
(-0.321692 0 -0.334855)
(-0.330955 0 -0.257812)
(-0.414683 0 -0.253733)
(-0.400205 0 -0.201829)
(-0.500683 0 -0.193124)
(-0.465398 0 -0.159857)
(-0.579253 0 -0.148391)
(-0.525889 0 -0.128815)
(-0.650085 0 -0.11602)
(-0.58128 0 -0.106117)
(-0.713339 0 -0.0930485)
(-0.631489 0 -0.089605)
(-0.769441 0 -0.0769749)
(-0.676706 0 -0.0774907)
(-0.819045 0 -0.065771)
(-0.717249 0 -0.0682388)
(-0.862872 0 -0.0577897)
(-0.753431 0 -0.0605148)
(-0.901551 0 -0.0516381)
(-0.78548 0 -0.053244)
(-0.935566 0 -0.0461529)
(-0.813529 0 -0.0457275)
(-0.96528 0 -0.0405026)
(-0.837693 0 -0.0376741)
(-0.990997 0 -0.034292)
(-0.858144 0 -0.0290643)
(-1.01299 0 -0.0274723)
(-0.875137 0 -0.0198989)
(-1.03146 0 -0.0200816)
(-0.888779 0 -0.0100277)
(-1.04645 0 -0.0120096)
(-0.898694 0 0.000372472)
(-1.0577 0 -0.00288703)
(-0.904044 0 0.0100348)
(-1.06418 0 0.00613902)
(-0.905937 0 0.0173052)
(-1.06702 0 0.0144787)
(-0.906011 0 0.0206121)
(-1.06792 0 0.0202592)
(-0.906845 0 0.0193602)
(-1.06871 0 0.0216465)
(-0.909537 0 0.0147365)
(-1.07095 0 0.0189508)
(-0.91409 0 0.00854487)
(-1.0751 0 0.0136364)
(-0.919773 0 0.00198424)
(-1.08068 0 0.00737544)
(-0.925328 0 -0.0052689)
(-1.08707 0 0.000617934)
(-0.93043 0 -0.0131473)
(-1.09418 0 -0.00713503)
(-1.09954 0 -0.0149464)
(-0.105436 0 -0.594193)
(-0.0916334 0 -0.602919)
(-0.230364 0 -0.456657)
(-0.21432 0 -0.461413)
(-0.354914 0 -0.335173)
(-0.376577 0 -0.324847)
(-0.473372 0 -0.245149)
(-0.516308 0 -0.226861)
(-0.581751 0 -0.179357)
(-0.644755 0 -0.157261)
(-0.678506 0 -0.132162)
(-0.757723 0 -0.109033)
(-0.763513 0 -0.0988302)
(-0.855368 0 -0.0762551)
(-0.837479 0 -0.0758435)
(-0.938127 0 -0.0547362)
(-0.901527 0 -0.0604618)
(-1.00793 0 -0.0412351)
(-0.956942 0 -0.05043)
(-1.06713 0 -0.0332044)
(-1.005 0 -0.0439251)
(-1.11774 0 -0.0287119)
(-1.0468 0 -0.03949)
(-1.16143 0 -0.026314)
(-1.08322 0 -0.0359384)
(-1.19943 0 -0.0248593)
(-1.11492 0 -0.0323568)
(-1.23263 0 -0.023396)
(-1.14238 0 -0.028197)
(-1.26158 0 -0.0212539)
(-1.16594 0 -0.0232889)
(-1.28666 0 -0.0181721)
(-1.18578 0 -0.0176657)
(-1.30816 0 -0.014212)
(-1.20205 0 -0.0113352)
(-1.3262 0 -0.00947205)
(-1.2148 0 -0.00421103)
(-1.34064 0 -0.00388685)
(-1.22351 0 0.00363789)
(-1.35128 0 0.00253044)
(-1.2288 0 0.0114726)
(-1.35795 0 0.00935054)
(-1.23135 0 0.0178572)
(-1.3619 0 0.0159904)
(-1.23233 0 0.0212099)
(-1.36406 0 0.0208269)
(-1.23367 0 0.0208122)
(-1.36598 0 0.0224055)
(-1.2366 0 0.0172885)
(-1.36895 0 0.0205653)
(-1.24138 0 0.0119131)
(-1.37355 0 0.0162167)
(-1.24744 0 0.00560096)
(-1.37981 0 0.0105611)
(-1.25393 0 -0.00175305)
(-1.38756 0 0.00395142)
(-1.26078 0 -0.00938208)
(-1.39526 0 -0.00369765)
(-1.40036 0 -0.0102799)
(-0.172566 0 -0.450829)
(-0.142677 0 -0.433901)
(-0.355035 0 -0.3142)
(-0.326726 0 -0.286917)
(-0.527805 0 -0.206363)
(-0.545581 0 -0.163528)