/*--------------------------------*- C++ -*----------------------------------*\
  =========                 |
  \\      /  F ield         | OpenFOAM: The Open Source CFD Toolbox
   \\    /   O peration     | Website:  https://openfoam.org
    \\  /    A nd           | Version:  dev
     \\/     M anipulation  |
\*---------------------------------------------------------------------------*/
FoamFile
{
    version     2.0;
    format      ascii;
    class       volScalarField;
    location    "7.8";
    object      p;
}
// * * * * * * * * * * * * * * * * * * * * * * * * * * * * * * * * * * * * * //

dimensions      [0 2 -2 0 0 0 0];

internalField   nonuniform List<scalar> 
2790
(
146.747
146.654
146.922
147.493
148.273
149.23
150.362
151.669
153.146
154.787
156.586
158.537
160.631
162.856
165.196
167.632
170.136
172.675
175.207
177.682
180.04
182.217
184.148
185.768
187.028
187.902
188.338
188.393
188.444
188.657
146.544
146.562
146.854
147.422
148.199
149.153
150.281
151.581
153.051
154.683
156.473
158.414
160.497
162.711
165.04
167.466
169.962
172.495
175.025
177.503
179.872
182.067
184.021
185.67
186.954
187.829
188.225
188.28
188.412
188.697
146.346
146.433
146.744
147.302
148.066
149.007
150.12
151.402
152.85
154.458
156.22
158.13
160.178
162.353
164.641
167.024
169.476
171.967
174.459
176.906
179.256
181.448
183.421
185.11
186.461
187.437
188.03
188.385
188.701
188.999
146.121
146.239
146.563
147.112
147.861
148.786
149.879
151.137
152.556
154.131
155.854
157.72
159.719
161.839
164.067
166.385
168.77
171.193
173.62
176.011
178.318
180.49
182.471
184.211
185.665
186.817
187.685
188.356
188.909
189.428
145.86
145.992
146.325
146.866
147.598
148.502
149.57
150.797
152.179
153.71
155.384
157.194
159.129
161.18
163.332
165.568
167.866
170.201
172.542
174.855
177.101
179.236
181.218
183.009
184.579
185.921
187.052
188.014
188.825
189.572
145.559
145.697
146.032
146.564
147.276
148.154
149.19
150.379
151.716
153.196
154.811
156.553
158.414
160.382
162.443
164.581
166.777
169.006
171.243
173.458
175.621
177.698
179.66
181.481
183.144
184.646
185.992
187.198
188.218
189.135
145.216
145.356
145.687
146.206
146.895
147.743
148.742
149.887
151.173
152.593
154.14
155.806
157.581
159.454
161.411
163.437
165.513
167.619
169.731
171.828
173.883
175.874
177.782
179.592
181.298
182.898
184.392
185.771
186.936
187.982
144.832
144.969
145.293
145.796
146.459
147.273
148.23
149.326
150.553
151.906
153.377
154.956
156.635
158.401
160.241
162.14
164.081
166.046
168.013
169.965
171.883
173.75
175.557
177.3
178.978
180.597
182.152
183.624
184.874
186.025
144.406
144.539
144.853
145.335
145.97
146.746
147.657
148.698
149.861
151.14
152.526
154.011
155.583
157.231
158.942
160.7
162.49
164.293
166.093
167.872
169.615
171.313
172.961
174.562
176.124
177.659
179.167
180.638
181.909
183.147
143.939
144.067
144.368
144.828
145.431
146.165
147.026
148.007
149.101
150.299
151.594
152.976
154.432
155.953
157.522
159.126
160.748
162.37
163.976
165.55
167.078
168.553
169.971
171.339
172.672
173.991
175.312
176.65
177.85
179.154
143.434
143.555
143.841
144.276
144.844
145.535
146.342
147.258
148.277
149.39
150.587
151.858
153.192
154.575
155.992
157.428
158.866
160.287
161.673
163.008
164.276
165.466
166.574
167.602
168.566
169.496
170.426
171.426
172.388
173.707
142.892
143.006
143.274
143.683
144.214
144.857
145.607
146.456
147.396
148.418
149.512
150.667
151.87
153.107
154.362
155.619
156.857
158.058
159.2
160.262
161.224
162.067
162.775
163.341
163.768
164.079
164.323
164.632
165.014
166.188
142.315
142.421
142.671
143.051
143.543
144.137
144.827
145.605
146.462
147.39
148.376
149.41
150.476
151.561
152.646
153.712
154.739
155.703
156.578
157.338
157.95
158.385
158.608
158.583
158.281
157.684
156.811
155.821
154.875
155.381
141.705
141.804
142.034
142.383
142.834
143.377
144.005
144.71
145.482
146.312
147.187
148.095
149.021
149.947
150.856
151.725
152.53
153.244
153.835
154.267
154.498
154.475
154.136
153.405
152.183
150.355
147.795
144.497
140.555
138.524
141.066
141.156
141.366
141.683
142.092
142.582
143.146
143.776
144.461
145.191
145.953
146.732
147.514
148.279
149.007
149.674
150.251
150.707
151.004
151.094
150.921
150.411
149.466
147.951
145.673
142.343
137.504
130.494
120.046
107.844
0.676264
0.656409
0.587503
0.492277
0.393877
0.30435
0.228366
0.167077
0.119854
0.084873
0.0605662
0.0444761
0.0342979
0.0282794
0.0250744
0.0236017
0.0229894
0.0225687
0.0218606
0.0205643
0.0185561
0.0158809
0.0127212
0.009365
0.00624465
0.00363273
0.00166998
0.000383815
-0.000327108
-0.000625171
0.628196
0.605812
0.541027
0.453275
0.362637
0.279728
0.208979
0.151765
0.107902
0.0764531
0.0547737
0.0404542
0.0315726
0.0265354
0.0240862
0.0231881
0.0229858
0.0228279
0.0222529
0.0209789
0.0189064
0.0161058
0.0127904
0.00926378
0.00606285
0.0034348
0.00149828
0.0002692
-0.000373657
-0.000347522
0.574541
0.54783
0.485637
0.4049
0.322601
0.247339
0.183065
0.131249
0.0918054
0.0634584
0.0445367
0.0328207
0.026206
0.0230544
0.0221916
0.0226031
0.0234244
0.0239868
0.0238246
0.0226681
0.0204678
0.0173772
0.013647
0.00975766
0.00608004
0.0031115
0.00115797
2.59867e-05
-0.000466631
-0.000196674
0.522174
0.491027
0.430559
0.355782
0.281216
0.213276
0.155392
0.109033
0.0742499
0.0499159
0.033904
0.0245025
0.0200087
0.0187344
0.0195411
0.0213542
0.0232765
0.0246299
0.0249396
0.0239457
0.0216203
0.018137
0.0138948
0.00954111
0.00557077
0.00239621
0.000367074
-0.000565138
-0.000981279
-0.000774422
0.484556
0.449205
0.390262
0.319724
0.250766
0.188007
0.134648
0.0921728
0.060805
0.0395519
0.0262487
0.0185774
0.0148575
0.0146482
0.0166221
0.0195076
0.0223576
0.0244428
0.025229
0.0244063
0.0218924
0.0180419
0.0136111
0.00910617
0.00512569
0.00226628
0.000493944
-0.000554622
-0.00097995
-0.000944996
0.473948
0.433446
0.375509
0.306409
0.239535
0.178441
0.126449
0.0851023
0.0548344
0.0346104
0.0214083
0.0135687
0.0110036
0.011391
0.0139655
0.0174714
0.0210147
0.0238183
0.0251966
0.0247855
0.0224912
0.0185588
0.0136574
0.00859836
0.00421013
0.00117576
-0.000449963
-0.00119204
-0.00153853
-0.00114964
0.501103
0.452888
0.393607
0.321567
0.251592
0.187618
0.133093
0.0897098
0.0580377
0.0372467
0.0246297
0.0157649
0.0102415
0.00957369
0.0117767
0.0151528
0.0187267
0.0217173
0.0234178
0.0233574
0.0213821
0.0177569
0.0130686
0.00813083
0.00386613
0.000929527
-0.000690167
-0.00160805
-0.00220525
-0.00137848
0.57059
0.513377
0.445041
0.364107
0.285382
0.214252
0.154098
0.106288
0.0707729
0.0459121
0.0287625
0.0177765
0.0118052
0.00986087
0.0108066
0.0133296
0.0164129
0.0192407
0.0210688
0.0212985
0.0196308
0.0162212
0.0116533
0.00681698
0.00269818
-5.78918e-05
-0.0015856
-0.00263118
-0.00328748
-0.00165741
0.682544
0.607032
0.520162
0.423247
0.330827
0.248996
0.181013
0.127391
0.0864625
0.0563261
0.0355499
0.0221116
0.0142914
0.010809
0.0103318
0.0116416
0.0138325
0.0161809
0.0179419
0.0183593
0.0169066
0.0135767
0.0089887
0.00423361
0.000437922
-0.00184449
-0.00301436
-0.00396303
-0.00440918
-0.00194079
0.81983
0.713288
0.597457
0.479618
0.372773
0.280188
0.203109
0.142326
0.0968177
0.0639178
0.0407918
0.0254582
0.0162209
0.0115128
0.00976962
0.00977665
0.0108598
0.0125756
0.0142475
0.0148702
0.0135228
0.00995841
0.00492502
-5.83419e-05
-0.00350952
-0.00495873
-0.00526823
-0.00563218
-0.00549757
-0.00221133
0.950185
0.802391
0.658818
0.516598
0.392986
0.291969
0.211584
0.148865
0.101595
0.0670975
0.0425767
0.0261381
0.0162559
0.0110656
0.0085191
0.00727268
0.00707962
0.00810918
0.0098902
0.0109897
0.00977829
0.00560089
-0.000538315
-0.00631596
-0.00951516
-0.00968481
-0.00843992
-0.00759509
-0.00651834
-0.0024615
1.05803
0.855831
0.67538
0.516216
0.38507
0.281454
0.201324
0.140439
0.095486
0.062677
0.0388088
0.0225873
0.0133079
0.00890581
0.00636845
0.00393814
0.00213934
0.00238685
0.00469971
0.00689759
0.00606349
0.000812978
-0.00742136
-0.0149194
-0.0180837
-0.0163302
-0.0125346
-0.00974141
-0.00744106
-0.00268521
1.08327
0.812503
0.60535
0.443902
0.322451
0.23271
0.164484
0.112715
0.0757738
0.0491401
0.0284128
0.0136005
0.00635878
0.00467678
0.00346352
-0.000172649
-0.00435014
-0.00519745
-0.00161998
0.00287802
0.00302628
-0.00386128
-0.0156697
-0.0263711
-0.0299227
-0.0252833
-0.0174551
-0.0118434
-0.0082276
-0.00287814
0.861371
0.516009
0.364489
0.265882
0.187753
0.138009
0.0990063
0.0646139
0.0418485
0.0269039
0.0116397
-0.00175016
-0.00567466
-0.00151196
0.000917484
-0.00420101
-0.0125638
-0.015461
-0.00951294
-0.000579793
0.00173507
-0.0075277
-0.0251321
-0.0413802
-0.0460935
-0.0371035
-0.0229394
-0.013431
-0.00880147
-0.00303768
0.188641
-0.225066
-0.150022
-0.0387701
-0.0299638
0.00437861
0.0174194
-0.00182556
-0.00994628
-0.00435108
-0.00988661
-0.0234692
-0.0235861
-0.00888774
0.0010037
-0.00682871
-0.0234189
-0.0306414
-0.020478
-0.00314442
0.00365727
-0.00889066
-0.0355472
-0.0609562
-0.0682135
-0.0526677
-0.0284634
-0.0135793
-0.00898503
-0.00316242
140.387
140.468
140.656
140.941
141.306
141.741
142.239
142.79
143.385
144.012
144.657
145.305
145.939
146.538
147.081
147.539
147.883
148.075
148.068
147.808
147.221
146.213
144.648
142.335
138.973
134.068
126.701
114.958
92.8213
33.1254
139.66
139.731
139.897
140.147
140.466
140.844
141.273
141.744
142.245
142.765
143.29
143.802
144.283
144.713
145.066
145.313
145.419
145.342
145.031
144.421
143.428
141.937
139.792
136.758
132.481
126.374
117.406
103.844
84.3219
55.8552
138.89
138.952
139.094
139.308
139.58
139.899
140.257
140.645
141.051
141.463
141.864
142.239
142.566
142.825
142.988
143.023
142.893
142.553
141.947
141.004
139.633
137.713
135.08
131.503
126.656
120.085
111.199
99.3564
85.1032
68.4389
138.08
138.131
138.25
138.427
138.65
138.909
139.195
139.499
139.808
140.11
140.388
140.624
140.799
140.888
140.863
140.691
140.333
139.742
138.86
137.613
135.912
133.637
130.638
126.718
121.629
115.077
106.766
96.3608
83.7964
68.6311
137.23
137.271
137.365
137.505
137.678
137.877
138.09
138.31
138.522
138.714
138.869
138.97
138.993
138.916
138.709
138.339
137.766
136.943
135.811
134.3
132.324
129.778
126.531
122.428
117.288
110.91
103.093
93.5943
82.2446
69.2501
136.343
136.374
136.443
136.545
136.669
136.806
136.948
137.083
137.199
137.283
137.317
137.284
137.161
136.925
136.545
135.989
135.218
134.185
132.835
131.104
128.914
126.174
122.779
118.61
113.536
107.422
100.145
91.6055
81.7927
71.1189
135.422
135.442
135.487
135.551
135.626
135.703
135.772
135.824
135.846
135.823
135.74
135.578
135.316
134.928
134.387
133.661
132.711
131.495
129.962
128.055
125.707
122.843
119.383
115.238
110.322
104.554
97.881
90.2904
81.8255
72.822
134.47
134.48
134.5
134.527
134.553
134.57
134.569
134.539
134.469
134.344
134.148
133.864
133.469
132.941
132.253
131.373
130.267
128.895
127.214
125.174
122.719
119.793
116.333
112.28
107.582
102.197
96.112
89.3466
81.9505
74.1964
133.491
133.49
133.486
133.476
133.454
133.413
133.343
133.235
133.076
132.854
132.551
132.152
131.635
130.978
130.156
129.142
127.902
126.403
124.607
122.473
119.958
117.017
113.608
109.692
105.242
100.241
94.6966
88.6419
82.1307
75.3909
132.488
132.477
132.45
132.404
132.336
132.238
132.102
131.919
131.676
131.361
130.958
130.452
129.823
129.051
128.112
126.981
125.631
124.032
122.152
119.959
117.42
114.502
111.179
107.429
103.237
98.6063
93.5532
88.1175
82.3521
76.4423
131.466
131.445
131.396
131.316
131.203
131.051
130.852
130.597
130.275
129.873
129.379
128.775
128.046
127.171
126.131
124.903
123.464
121.789
119.853
117.631
115.098
112.233
109.02
105.447
101.515
97.2311
92.6203
87.7215
82.5827
77.3526
130.43
130.4
130.329
130.216
130.061
129.858
129.6
129.278
128.882
128.401
127.822
127.131
126.312
125.349
124.223
122.917
121.409
119.681
117.712
115.484
112.981
110.189
107.1
103.711
100.028
96.0652
91.8482
87.4132
82.802
78.1342
129.385
129.347
129.255
129.111
128.916
128.665
128.351
127.968
127.504
126.951
126.296
125.527
124.631
123.593
122.397
121.028
119.47
117.708
115.726
113.512
111.056
108.351
105.393
102.185
98.7381
95.0681
91.1996
87.1651
83.0006
78.8022
128.338
128.291
128.18
128.008
127.775
127.479
127.115
126.674
126.149
125.531
124.809
123.973
123.011
121.91
120.657
119.242
117.649
115.869
113.891
111.707
109.31
106.698
103.873
100.841
97.6135
94.2078
90.6467
86.9586
83.1738
79.3703
127.294
127.24
127.111
126.911
126.644
126.308
125.897
125.405
124.825
124.149
123.369
122.475
121.457
120.305
119.01
117.56
115.948
114.164
112.202
110.057
107.728
105.213
102.519
99.6531
96.6276
93.4592
90.1687
86.7804
83.32
79.8506
126.26
126.198
126.053
125.829
125.53
125.157
124.704
124.166
123.538
122.812
121.981
121.039
119.976
118.784
117.457
115.985
114.364
112.588
110.651
108.554
106.296
103.88
101.311
98.6005
95.7591
92.8029
89.7501
86.6217
83.4391
80.254
125.242
125.174
125.014
124.767
124.441
124.034
123.544
122.966
122.295
121.526
120.653
119.67
118.571
117.35
116
114.517
112.897
111.136
109.232
107.187
105.002
102.682
100.233
97.6653
94.9907
92.2233
89.3792
86.4763
83.5325
80.5905
124.247
124.173
124
123.733
123.382
122.946
122.423
121.809
121.102
120.297
119.389
118.374
117.248
116.005
114.642
113.155
111.543
109.804
107.938
105.947
103.835
101.606
99.2692
96.8329
94.3084
91.7086
89.0474
86.3403
83.6024
80.8687
123.283
123.204
123.019
122.735
122.361
121.899
121.348
120.704
119.966
119.131
118.195
117.155
116.008
114.751
113.381
111.898
110.299
108.587
106.761
104.825
102.783
100.642
98.4083
96.0913
93.7013
91.2496
88.7487
86.2117
83.6514
81.0967
122.356
122.273
122.077
121.778
121.384
120.901
120.325
119.656
118.893
118.033
117.075
116.016
114.855
113.59
112.219
110.744
109.164
107.48
105.695
103.813
101.839
99.7792
97.6401
95.4308
93.1605
90.8395
88.4787
86.0892
83.6822
81.2815
121.475
121.388
121.183
120.87
120.461
119.958
119.362
118.672
117.888
117.009
116.034
114.961
113.791
112.523
111.156
109.692
108.133
106.479
104.736
102.906
100.995
99.0098
96.9566
94.8435
92.6793
90.4731
88.2343
85.9727
83.6978
81.4296
120.648
120.557
120.344
120.02
119.596
119.077
118.464
117.757
116.957
116.063
115.075
113.993
112.819
111.551
110.191
108.742
107.204
105.582
103.878
102.097
100.245
98.3273
96.3512
94.3237
92.2529
90.1469
88.014
85.8628
83.7015
81.5469
119.881
119.787
119.568
119.234
118.798
118.266
117.639
116.918
116.105
115.199
114.203
113.116
111.94
110.676
109.325
107.891
106.376
104.783
103.117
101.382
99.5828
97.7264
95.8187
93.8666
91.8773
89.8581
87.8166
85.7601
83.6961
81.6383
119.184
119.088
118.862
118.519
118.073
117.53
116.892
116.161
115.338
114.424
113.422
112.332
111.157
109.899
108.559
107.141
105.648
104.083
102.451
100.757
99.0062
97.2038
95.3561
93.4695
91.5506
89.6061
87.6427
85.667
83.6855
81.71
118.565
118.466
118.235
117.885
117.43
116.878
116.231
115.491
114.661
113.741
112.736
111.646
110.473
109.221
107.892
106.49
105.017
103.478
101.878
100.22
98.5113
96.7558
94.9598
93.1293
91.2702
89.3888
87.4912
85.5833
83.6709
81.7639
118.033
117.932
117.695
117.337
116.875
116.316
115.663
114.917
114.081
113.158
112.151
111.061
109.893
108.648
107.33
105.941
104.488
102.972
101.398
99.7726
98.0992
96.3836
94.6312
92.8476
91.0385
89.2096
87.3666
85.5148
83.6596
81.8093
117.599
117.493
117.25
116.884
116.415
115.85
115.191
114.44
113.6
112.675
111.668
110.58
109.415
108.177
106.869
105.493
104.056
102.559
101.009
99.4092
97.7652
96.0821
94.365
92.6193
90.8503
89.0634
87.2636
85.4562
83.646
81.8398
117.273
117.162
116.909
116.537
116.063
115.493
114.83
114.076
113.234
112.307
111.3
110.214
109.053
107.821
106.52
105.156
103.731
102.25
100.718
99.1394
97.5187
95.861
94.1716
92.4554
90.7176
88.9631
87.1971
85.4242
83.6492
81.8782
117.071
116.936
116.666
116.288
115.812
115.24
114.574
113.818
112.975
112.048
111.042
109.958
108.8
107.573
106.279
104.922
103.506
102.037
100.517
98.9529
97.3479
95.7075
94.0365
92.3399
90.6226
88.8895
87.1453
85.3946
83.6419
81.892
117.052
116.854
116.555
116.171
115.692
115.117
114.448
113.69
112.846
111.92
110.914
109.832
108.677
107.453
106.163
104.812
103.404
101.942
100.431
98.8757
97.2811
95.6518
93.9926
92.3084
90.604
88.8841
87.1534
85.4163
83.6772
81.9403
-50.5259
-30.2663
-11.1574
35.4718
27.9974
15.9021
50.9077
38.7996
27.5614
52.3408
41.9075
33.8511
56.684
48.387
41.6201
61.0741
54.158
48.2599
64.3519
58.4653
53.4116
66.9531
61.9242
57.6118
69.1464
64.8111
61.0998
70.9982
67.2172
63.9884
72.5557
69.2238
66.3856
73.8683
70.9047
68.3853
74.9765
72.3179
70.0612
75.9126
73.509
71.4708
76.7031
74.5146
72.6599
77.3701
75.3642
73.6648
77.9316
76.0818
74.5146
78.403
76.6873
75.2331
78.7971
77.197
75.8397
79.1252
77.6247
76.3507
79.3967
77.9822
76.7797
79.6203
78.2798
77.1385
79.8026
78.5255
77.4366
79.9517
78.7286
77.6839
80.0702
78.8924
77.8848
80.1698
79.0294
78.0519
80.2418
79.1313
78.1785
80.3149
79.2271
78.2916
80.3491
79.2776
78.3561
80.4182
79.3609
78.4458
-2.96478
-2.87518
-1.4171
-0.277032
-0.240492
-0.14189
-0.0812004
-0.108534
-0.0916456
-0.0296606
-0.0173967
-0.0459115
-0.0517098
-0.0212661
0.00556555
-0.00595968
-0.0375005
-0.0530287
-0.0353594
-0.00249141
0.0127821
-0.004958
-0.0461697
-0.0867765
-0.0992712
-0.0738353
-0.0332084
-0.0104803
-0.00828709
-0.00325526
2.12386
-0.768071
0.82437
0.300968
-1.05585
-0.806341
-0.157316
-0.126758
-0.106464
-0.00502955
-0.0245395
-0.113788
-0.131514
-0.0457146
0.0360107
0.0154629
-0.0498605
-0.0874248
-0.061371
-0.000708096
0.0307802
0.00487644
-0.0588859
-0.123317
-0.145029
-0.10412
-0.0355048
-0.000300214
-0.00523144
-0.0033344
13.2857
4.92321
2.10868
-0.343369
-0.653577
0.852952
1.01842
-0.35123
-0.713781
-0.347633
-0.00385427
-0.10283
-0.136838
0.0220988
0.117619
0.0396795
-0.0956909
-0.172437
-0.121139
0.00771255
0.0777114
0.0361565
-0.0631504
-0.165306
-0.205655
-0.145622
-0.0321539
0.0239682
0.00370448
-0.00348182
23.0785
13.1865
7.29955
3.5298
1.81681
1.29565
0.0629329
-0.612335
-0.207076
0.963361
0.829675
-0.258433
-0.633924
-0.407101
0.101241
0.141635
-0.0928229
-0.230193
-0.140309
0.0790857
0.161884
0.0741983
-0.0828411
-0.243741
-0.317464
-0.230813
-0.0225149
0.0727609
0.0247993
-0.00396779
32.2608
22.4823
15.156
9.86724
6.24007
3.7735
1.90262
0.913241
0.659985
0.638278
0.118603
-0.477464
-0.526707
0.468929
0.986076
0.348136
-0.240254
-0.562024
-0.499734
-0.0418954
0.251624
0.152043
-0.0757187
-0.304109
-0.411952
-0.253514
0.0174114
0.161351
0.0656212
-0.00554206
40.2494
31.3125
23.4185
16.9849
12.0615
8.42291
5.75687
3.88059
2.61194
1.69862
0.929891
0.341553
0.142904
0.448307
0.449712
0.182429
-0.281728
-0.573078
-0.294704
0.507402
0.681948
0.219861
-0.123872
-0.444426
-0.671518
-0.595284
-0.0153405
0.289327
0.129954
-0.0106302
46.7698
38.9552
31.1715
24.2769
18.6525
14.1982
10.6803
7.92941
5.83632
4.26405
3.04584
2.0943
1.47075
1.16631
0.903946
0.558847
0.0874218
-0.209097
-0.0853478
0.276103
0.41027
0.228269
-0.0963619
-0.471383
-0.72048
-0.426696
0.361157
0.55587
0.207358
-0.0236332
52.0804
45.3417
38.077
31.2428
25.3594
20.4164
16.2791
12.8597
10.0934
7.88207
6.09775
4.6611
3.57141
2.79844
2.19106
1.59561
1.00874
0.604164
0.498639
0.58159
0.597089
0.389114
0.025506
-0.342575
-0.533187
-0.313557
0.159824
0.397007
0.304408
-0.0641738
56.4124
50.5901
44.0002
37.5227
31.7035
26.5928
22.1258
18.2672
14.988
12.232
9.92403
8.00705
6.45228
5.21611
4.1972
3.29645
2.50703
1.90472
1.5408
1.34731
1.15069
0.825761
0.415782
0.0465381
-0.144924
-0.0476656
0.234829
0.391596
0.261162
-0.303034
59.9478
54.8761
48.9692
42.9812
37.4261
32.3818
27.8193
23.7343
20.1283
16.9828
14.2613
11.9258
9.94406
8.27575
6.85753
5.6293
4.57222
3.70854
3.0527
2.55586
2.10913
1.63112
1.13831
0.710133
0.436756
0.373183
0.444375
0.432534
0.172753
-0.517937
62.8516
58.3893
53.1061
47.6355
42.4383
37.598
33.1018
28.9612
25.1973
21.8158
18.8049
16.1444
13.8117
11.7784
10.006
8.45547
7.10502
5.95289
4.99494
4.19539
3.48793
2.81875
2.18659
1.63472
1.21662
0.955599
0.791593
0.575593
0.171193
-0.593018
65.2569
61.2913
56.5511
51.5706
46.7555
42.1847
37.8511
33.7721
29.9774
26.4859
23.3011
20.4175
17.8241
15.5047
13.4367
11.5953
9.96175
8.52624
7.27747
6.18896
5.21882
4.33023
3.51429
2.79049
2.18553
1.70397
1.29818
0.866634
0.307168
-0.522366
67.2635
63.7068
59.4304
54.8906
50.4443
46.1622
42.0383
38.0898
34.3484
30.8389
27.5739
24.5576
21.7882
19.2594
16.9595
14.8743
12.9904
11.297
9.78206
8.42598
7.20119
6.08213
5.05755
4.13239
3.31573
2.60208
1.95422
1.30282
0.57659
-0.331555
68.9467
65.7303
61.848
57.6952
53.5877
49.588
45.6886
41.9044
38.2657
34.799
31.5212
28.4421
25.5665
22.8949
20.4235
18.1455
16.0529
14.1371
12.3882
10.7919
9.32982
7.98377
6.74252
5.60309
4.56444
3.61643
2.73023
1.85855
0.954209
-0.0564999
70.3645
67.4336
63.8868
60.0705
56.2668
52.5305
48.8525
45.2442
41.7331
38.3451
35.0986
32.0064
29.0772
26.316
23.7242
21.3004
19.0408
16.9404
14.992
13.1858
11.5092
9.9493
8.49585
7.1423
5.88264
4.70523
3.58769
2.49764
1.40458
0.262871
71.562
68.8724
65.612
62.0875
58.5528
55.0563
51.5872
48.1535
44.7795
41.4891
38.3007
35.2284
32.2827
29.4715
26.7996
24.2693
21.8802
19.6302
17.5152
15.5288
13.6626
11.9072
10.254
8.69535
7.22324
5.8262
4.48662
3.18172
1.89121
0.59107
72.5751
70.0902
67.0751
63.8034
60.5055
57.2243
53.9477
50.6806
47.4437
44.2589
41.1435
38.1115
35.1745
32.3419
29.6204
27.0147
24.5272
22.158
19.9056
17.7663
15.7348
13.8044
11.968
10.218
8.5464
6.94231
5.39146
3.87685
2.38354
0.902519
73.4324
71.1218
68.3174
65.2648
62.1745
59.085
55.9832
52.871
49.7662
46.6881
43.6527
40.6732
37.7614
34.9271
32.1785
29.5216
26.9605
24.4974
22.1325
19.8646
17.6903
15.6051
13.6032
11.6781
9.82188
8.0247
6.27438
4.55705
2.85979
1.1828
74.1574
71.9955
69.3721
66.5095
63.6007
60.681
57.7361
54.7659
51.7851
48.8107
45.857
42.9364
40.06
37.2378
34.4784
31.7886
29.1737
26.6372
24.181
21.8052
19.5084
17.2874
15.1378
13.054
11.0288
9.053
7.1158
5.20465
3.30674
1.4269
74.7695
72.7344
70.2667
67.5686
64.8182
62.0478
59.2428
56.4011
53.5347
50.6584
47.785
44.9256
42.0904
39.2892
36.5306
33.8217
31.1686
28.5756
26.0456
23.5799
21.1784
18.8392
16.5588
14.3326
12.1538
10.0141
7.90325
5.80907
3.71793
1.63614
75.2847
73.3579
71.0239
68.4679
65.8552
63.2156
60.5343
57.8075
55.0452
52.2599
49.4629
46.6641
43.8729
41.0982
38.3484
35.6308
32.9515
30.3155
27.7264
25.1864
22.696
20.2544
17.8591
15.5059
13.1888
10.9
8.62928
6.36454
4.091
1.81468
75.7169
73.8821
71.6628
69.2292
66.7356
64.2099
61.637
59.0121
56.343
53.6408
50.915
48.1743
45.4272
42.6819
39.9462
37.2272
34.5311
31.8631
29.2271
26.6258
24.0605
21.531
19.0355
16.5702
14.1297
11.7063
9.29013
6.86868
4.42623
1.96745
76.0773
74.3205
72.1989
69.8701
67.4788
65.0514
62.5728
60.0372
57.4507
54.8229
52.162
49.4755
46.771
44.0558
41.3372
38.6219
35.916
33.2245
30.5516
27.9005
25.2726
22.6683
20.0861
17.5228
14.9733
12.43
9.88314
7.31988
4.72382
2.09785
76.3769
74.6855
72.6466
70.4068
68.1027
65.7592
63.3616
60.9032
58.3888
55.8265
53.2235
50.5863
47.9215
45.2356
42.5354
39.827
37.1162
34.408
31.7066
29.0152
26.3355
23.6682
21.012
18.3641
15.7196
13.071
10.4086
7.71915
4.98596
2.20964
76.6217
74.9847
73.0148
70.8496
68.6186
66.3459
64.0168
61.624
59.1713
56.6656
54.1131
51.5194
48.8903
46.2317
43.5496
40.8498
38.1375
35.4177
32.6945
29.9709
27.2489
24.5292
21.8108
19.0911
16.3652
13.6258
10.863
8.06358
5.2106
2.30239
76.8237
75.2308
73.3177
71.2137
69.043
66.8286
64.5562
62.2179
59.8167
57.3585
54.8488
52.2925
49.6945
47.0601
44.3948
41.7039
38.9924
36.2648
33.5251
30.7763
28.0203
25.258
22.4885
19.7091
16.915
14.0991
11.2514
8.35852
5.40334
2.38122
76.9795
75.4216
73.5532
71.4979
69.3749
67.207
64.9798
62.6853
60.3255
57.9057
55.4307
52.9049
50.3326
47.7186
45.0678
42.3852
39.6753
36.9426
34.1907
31.4226
28.6402
25.8442
23.0339
20.2066
17.3576
14.4795
11.5625
8.59312
5.55429
2.43912
77.1115
75.5792
73.745
71.7265
69.6397
67.5069
65.314
63.0526
60.7244
58.3339
55.8856
53.3833
50.831
48.2329
45.5937
42.9178
40.2098
37.4737
34.713
31.9306
29.1284
26.3071
23.4657
20.6018
17.7104
14.7845
11.8136
8.78448
5.6797
2.48863
77.1928
75.6766
73.8647
71.8713
69.8089
67.6995
65.5295
63.2904
60.9833
58.6126
56.1822
53.6958
51.157
48.5698
45.9385
43.2675
40.5609
37.8227
35.0564
32.2646
29.4493
26.6109
23.7487
20.8601
17.9401
14.9814
11.9736
8.90289
5.75197
2.50855
77.2818
75.7668
73.9671
71.9887
69.94
67.8432
65.6853
63.4579
61.1618
58.8011
56.3798
53.9012
51.3688
48.7865
46.1585
43.489
40.7821
38.0418
35.2713
32.4734
29.6499
26.8015
23.9271
21.0243
18.0881
15.111
12.0823
8.98733
5.80616
2.51495
)
;

boundaryField
{
    inlet
    {
        type            zeroGradient;
    }
    outlet
    {
        type            fixedValue;
        value           uniform 0;
    }
    flap
    {
        type            zeroGradient;
    }
    upperWall
    {
        type            zeroGradient;
    }
    lowerWall
    {
        type            zeroGradient;
    }
    frontAndBack
    {
        type            empty;
    }
}


// ************************************************************************* //
