/*--------------------------------*- C++ -*----------------------------------*\
  =========                 |
  \\      /  F ield         | OpenFOAM: The Open Source CFD Toolbox
   \\    /   O peration     | Website:  https://openfoam.org
    \\  /    A nd           | Version:  dev
     \\/     M anipulation  |
\*---------------------------------------------------------------------------*/
FoamFile
{
    version     2.0;
    format      ascii;
    class       volScalarField;
    location    "6.9";
    object      p;
}
// * * * * * * * * * * * * * * * * * * * * * * * * * * * * * * * * * * * * * //

dimensions      [0 2 -2 0 0 0 0];

internalField   nonuniform List<scalar> 
2790
(
146.801
146.709
146.976
147.547
148.327
149.284
150.417
151.723
153.2
154.841
156.64
158.591
160.685
162.91
165.25
167.686
170.19
172.729
175.261
177.735
180.094
182.271
184.202
185.822
187.082
187.956
188.392
188.447
188.498
188.711
146.598
146.616
146.908
147.476
148.253
149.207
150.335
151.635
153.105
154.737
156.527
158.468
160.551
162.765
165.094
167.52
170.016
172.549
175.079
177.557
179.926
182.121
184.075
185.724
187.008
187.883
188.279
188.334
188.466
188.751
146.4
146.487
146.799
147.356
148.12
149.061
150.174
151.456
152.904
154.512
156.274
158.184
160.231
162.407
164.695
167.078
169.53
172.02
174.512
176.96
179.309
181.502
183.475
185.164
186.515
187.491
188.084
188.439
188.755
189.053
146.175
146.293
146.617
147.166
147.915
148.84
149.933
151.191
152.61
154.185
155.908
157.774
159.772
161.893
164.121
166.439
168.824
171.247
173.674
176.065
178.372
180.543
182.525
184.265
185.719
186.871
187.739
188.41
188.963
189.482
145.914
146.046
146.379
146.92
147.652
148.556
149.624
150.851
152.233
153.764
155.438
157.248
159.183
161.234
163.386
165.621
167.919
170.255
172.596
174.909
177.154
179.29
181.272
183.062
184.633
185.975
187.106
188.068
188.879
189.626
145.613
145.751
146.086
146.618
147.33
148.208
149.244
150.433
151.77
153.25
154.865
156.607
158.468
160.436
162.497
164.635
166.83
169.06
171.297
173.512
175.675
177.752
179.714
181.535
183.198
184.7
186.046
187.252
188.272
189.189
145.271
145.41
145.741
146.26
146.949
147.797
148.796
149.941
151.227
152.647
154.194
155.86
157.635
159.508
161.465
163.49
165.566
167.672
169.785
171.881
173.936
175.928
177.835
179.646
181.351
182.952
184.446
185.825
186.99
188.036
144.886
145.023
145.347
145.85
146.513
147.327
148.284
149.38
150.607
151.96
153.431
155.01
156.689
158.455
160.295
162.194
164.135
166.099
168.067
170.019
171.936
173.804
175.611
177.353
179.032
180.651
182.206
183.678
184.928
186.079
144.46
144.593
144.907
145.39
146.024
146.8
147.711
148.752
149.915
151.194
152.58
154.065
155.637
157.285
158.996
160.754
162.544
164.347
166.147
167.925
169.669
171.367
173.015
174.615
176.177
177.712
179.221
180.691
181.963
183.201
143.993
144.121
144.422
144.882
145.485
146.22
147.08
148.061
149.155
150.353
151.648
153.03
154.486
156.007
157.576
159.18
160.802
162.424
164.03
165.604
167.132
168.606
170.024
171.393
172.725
174.044
175.365
176.703
177.903
179.208
143.488
143.61
143.895
144.33
144.898
145.589
146.396
147.312
148.331
149.444
150.641
151.912
153.246
154.629
156.046
157.482
158.92
160.341
161.727
163.062
164.33
165.52
166.627
167.655
168.62
169.549
170.479
171.478
172.441
173.759
142.946
143.06
143.328
143.737
144.268
144.911
145.661
146.51
147.45
148.472
149.566
150.721
151.924
153.161
154.416
155.673
156.911
158.112
159.254
160.316
161.278
162.12
162.829
163.395
163.821
164.132
164.375
164.684
165.066
166.24
142.369
142.476
142.725
143.105
143.597
144.191
144.881
145.659
146.517
147.444
148.431
149.464
150.53
151.615
152.7
153.766
154.793
155.757
156.632
157.391
158.004
158.439
158.661
158.636
158.334
157.737
156.863
155.872
154.926
155.432
141.76
141.858
142.088
142.438
142.889
143.431
144.059
144.764
145.536
146.366
147.242
148.149
149.075
150.001
150.91
151.779
152.584
153.298
153.889
154.321
154.551
154.528
154.19
153.458
152.236
150.407
147.846
144.548
140.604
138.572
141.12
141.21
141.42
141.738
142.147
142.637
143.201
143.83
144.515
145.245
146.007
146.787
147.568
148.333
149.061
149.728
150.305
150.761
151.058
151.148
150.975
150.464
149.519
148.005
145.726
142.395
137.555
130.543
120.092
107.886
0.773727
0.753655
0.685775
0.593066
0.498435
0.413346
0.341599
0.283367
0.237247
0.201135
0.173102
0.151455
0.13432
0.120234
0.108111
0.0971698
0.0869073
0.0770322
0.0676189
0.0584648
0.0496942
0.041415
0.0336368
0.0263096
0.0194377
0.0131895
0.00789811
0.00390166
0.00128959
-0.000365665
0.726887
0.704535
0.64091
0.555648
0.468716
0.39025
0.323831
0.269799
0.227005
0.193791
0.168216
0.1483
0.132287
0.119011
0.107448
0.0968477
0.0867595
0.0768607
0.0675293
0.0583301
0.0495165
0.0412282
0.0334607
0.0261199
0.0191818
0.012852
0.00753591
0.00359258
0.0011756
0.000188562
0.674809
0.648324
0.587364
0.509084
0.430496
0.359797
0.300049
0.251575
0.213283
0.183544
0.160589
0.142693
0.128533
0.116724
0.106246
0.0964162
0.08681
0.0773356
0.0675859
0.058201
0.0492801
0.0409558
0.0331898
0.0257917
0.018643
0.0119501
0.00634461
0.00251015
0.000623885
0.000363981
0.624225
0.593398
0.53417
0.461806
0.391003
0.327826
0.274734
0.231885
0.198144
0.171982
0.151924
0.136493
0.124183
0.113694
0.104149
0.0949189
0.0856603
0.0762522
0.0666401
0.0572473
0.0483517
0.0401665
0.0326058
0.0253287
0.0181311
0.0112755
0.00554778
0.00169198
-0.000271247
-0.000450247
0.588348
0.553234
0.495411
0.427169
0.362015
0.304235
0.255934
0.217109
0.186553
0.16286
0.144854
0.131196
0.120298
0.110858
0.102096
0.0933376
0.0843517
0.0750537
0.0655168
0.0561619
0.0473244
0.0392194
0.0318
0.0246639
0.0174473
0.0104379
0.00480382
0.00142388
-5.89854e-05
-0.000619434
0.579368
0.538885
0.481735
0.414633
0.35149
0.295529
0.248792
0.211192
0.181447
0.158327
0.140985
0.127961
0.117243
0.10802
0.0998995
0.0917098
0.0829009
0.0736384
0.0641656
0.0550247
0.0466974
0.0391598
0.0320074
0.0249069
0.0176524
0.0103669
0.00410358
0.000373337
-0.00100661
-0.000935164
0.60826
0.559889
0.500656
0.429982
0.363283
0.304224
0.254932
0.215207
0.183705
0.159208
0.14137
0.128757
0.118495
0.10884
0.0995008
0.0906623
0.0817174
0.072287
0.0625782
0.0531689
0.044732
0.0373398
0.0305233
0.0237613
0.0168449
0.0100487
0.0042732
0.000443404
-0.00145636
-0.0011103
0.680261
0.622121
0.553029
0.472511
0.396087
0.329059
0.27364
0.229389
0.19468
0.167364
0.145613
0.128989
0.116825
0.107002
0.097913
0.0891014
0.0801766
0.0709474
0.0615421
0.0523794
0.0439075
0.0362317
0.0291143
0.0222564
0.0155476
0.00920637
0.00379847
-0.00020289
-0.00240394
-0.00137083
0.794518
0.717085
0.62921
0.532303
0.441359
0.362757
0.298482
0.247055
0.205886
0.17386
0.149691
0.131541
0.117707
0.106564
0.0967066
0.0873598
0.0781331
0.0689173
0.05978
0.0508826
0.0423711
0.0342797
0.0266093
0.0194618
0.0130228
0.00743623
0.00273116
-0.00112527
-0.00332134
-0.00161276
0.931129
0.821826
0.705418
0.588293
0.482641
0.391612
0.317159
0.258642
0.213568
0.178762
0.152137
0.132119
0.117018
0.105035
0.0945692
0.0846784
0.0751101
0.0659825
0.0573426
0.0489647
0.0404945
0.0317691
0.023102
0.0152549
0.00896364
0.00433989
0.000743342
-0.00246236
-0.00422299
-0.00183208
1.05467
0.908598
0.763459
0.621827
0.500226
0.4015
0.32285
0.261373
0.214305
0.178309
0.150692
0.129815
0.114264
0.102143
0.0914338
0.0809818
0.0708796
0.0617986
0.0539106
0.0464361
0.0381964
0.0286145
0.0183905
0.00930281
0.0030214
-0.000294668
-0.00218708
-0.00413987
-0.00506925
-0.00202672
1.15308
0.954562
0.776614
0.618464
0.488568
0.386987
0.308679
0.248935
0.204068
0.169965
0.143342
0.122976
0.108277
0.0972935
0.0871248
0.0761603
0.0651798
0.056036
0.0493286
0.0434336
0.0357763
0.025014
0.0123577
0.00115956
-0.00534251
-0.00677655
-0.00604184
-0.00602499
-0.00582163
-0.00219155
1.16589
0.899425
0.697788
0.540297
0.421511
0.333973
0.267591
0.216988
0.180202
0.152514
0.129357
0.110661
0.0981943
0.0902086
0.0818475
0.0703259
0.0576653
0.0481002
0.043278
0.0401953
0.0338223
0.0214473
0.00500137
-0.00971914
-0.0168619
-0.0155011
-0.0107109
-0.00787117
-0.00643385
-0.0023224
0.926552
0.592543
0.449549
0.357027
0.282491
0.234976
0.197793
0.164665
0.142183
0.126499
0.109205
0.092179
0.0830827
0.0810544
0.0767555
0.0644104
0.0482486
0.0372339
0.0353288
0.0371952
0.033375
0.0187755
-0.00355903
-0.0240685
-0.0326179
-0.027039
-0.0159296
-0.00919477
-0.00681771
-0.0024162
0.240516
-0.156296
-0.0685143
0.0510134
0.0625719
0.0973831
0.111868
0.0945507
0.086941
0.0920861
0.0849935
0.0679133
0.0623461
0.0706248
0.0741082
0.0597818
0.0361015
0.0212546
0.0239764
0.0347355
0.0358755
0.0182732
-0.013077
-0.0429081
-0.0542401
-0.0422849
-0.0211878
-0.00906901
-0.00678322
-0.00247152
140.441
140.522
140.711
140.995
141.36
141.795
142.293
142.845
143.44
144.066
144.711
145.359
145.993
146.592
147.135
147.594
147.937
148.129
148.122
147.862
147.275
146.266
144.702
142.388
139.026
134.121
126.752
115.007
92.8635
33.1434
139.714
139.785
139.951
140.201
140.52
140.898
141.327
141.798
142.3
142.82
143.344
143.856
144.338
144.767
145.12
145.367
145.473
145.396
145.086
144.476
143.482
141.992
139.846
136.812
132.534
126.427
117.458
103.895
84.3706
55.9039
138.945
139.006
139.149
139.363
139.634
139.953
140.311
140.699
141.106
141.517
141.918
142.293
142.621
142.879
143.042
143.077
142.947
142.608
142.001
141.058
139.687
137.767
135.134
131.557
126.711
120.14
111.254
99.4119
85.1613
68.5045
138.134
138.185
138.304
138.481
138.704
138.963
139.249
139.553
139.863
140.164
140.442
140.679
140.853
140.942
140.917
140.745
140.388
139.797
138.914
137.668
135.966
133.692
130.693
126.773
121.684
115.133
106.823
96.4196
83.8585
68.6985
137.284
137.325
137.419
137.559
137.733
137.931
138.145
138.364
138.577
138.769
138.924
139.024
139.048
138.971
138.764
138.394
137.821
136.997
135.865
134.355
132.379
129.833
126.587
122.484
117.344
110.967
103.151
93.6547
82.3079
69.3176
136.398
136.428
136.498
136.6
136.724
136.861
137.002
137.137
137.254
137.337
137.372
137.338
137.216
136.979
136.6
136.044
135.273
134.24
132.89
131.159
128.969
126.229
122.835
118.666
113.593
107.48
100.205
91.6667
81.8566
71.1865
135.477
135.496
135.542
135.606
135.68
135.757
135.826
135.878
135.9
135.878
135.795
135.633
135.37
134.983
134.442
133.716
132.766
131.55
130.017
128.11
125.762
122.899
119.439
115.295
110.379
104.613
97.9408
90.3521
81.8896
72.8892
134.525
134.534
134.555
134.581
134.607
134.624
134.623
134.593
134.523
134.399
134.203
133.918
133.524
132.996
132.307
131.428
130.322
128.95
127.269
125.229
122.775
119.849
116.389
112.338
107.64
102.256
96.1721
89.4083
82.0144
74.2626
133.545
133.544
133.541
133.531
133.509
133.467
133.398
133.289
133.131
132.908
132.606
132.206
131.689
131.033
130.211
129.196
127.957
126.459
124.663
122.529
120.013
117.073
113.664
109.75
105.3
100.3
94.7568
88.7035
82.194
75.4561
132.542
132.531
132.504
132.459
132.39
132.292
132.157
131.973
131.73
131.415
131.013
130.507
129.878
129.105
128.167
127.036
125.686
124.087
122.208
120.015
117.476
114.559
111.236
107.486
103.295
98.6652
93.6132
88.1787
82.4147
76.5064
131.52
131.499
131.45
131.37
131.257
131.105
130.907
130.652
130.33
129.928
129.433
128.83
128.1
127.226
126.186
124.958
123.519
121.845
119.909
117.686
115.154
112.289
109.077
105.505
101.573
97.2899
92.68
87.7821
82.6446
77.4157
130.484
130.454
130.383
130.27
130.115
129.912
129.654
129.332
128.936
128.455
127.877
127.185
126.367
125.404
124.278
122.972
121.464
119.736
117.767
115.54
113.037
110.245
107.157
103.768
100.086
96.1238
91.9075
87.4733
82.8631
78.1961
129.44
129.401
129.31
129.166
128.97
128.719
128.406
128.022
127.559
127.005
126.351
125.582
124.686
123.648
122.452
121.083
119.525
117.763
115.782
113.568
111.112
108.407
105.449
102.242
98.7958
95.1263
91.2584
87.2246
83.0608
78.8632
128.393
128.346
128.235
128.062
127.829
127.534
127.169
126.729
126.204
125.586
124.864
124.028
123.065
121.965
120.712
119.297
117.705
115.925
113.947
111.763
109.366
106.754
103.93
100.898
97.6709
94.2656
90.705
87.0174
83.2332
79.4303
127.349
127.294
127.165
126.966
126.699
126.362
125.951
125.459
124.88
124.204
123.424
122.53
121.512
120.36
119.065
117.615
116.003
114.219
112.258
110.113
107.783
105.27
102.576
99.7099
96.6847
93.5167
90.2265
86.8386
83.3786
79.9096
126.314
126.253
126.108
125.883
125.585
125.212
124.759
124.221
123.592
122.867
122.036
121.093
120.03
118.839
117.512
116.041
114.419
112.643
110.707
108.61
106.352
103.936
101.368
98.657
95.8159
92.8599
89.8074
86.6792
83.4969
80.3122
125.296
125.228
125.068
124.822
124.495
124.088
123.598
123.02
122.349
121.581
120.708
119.725
118.626
117.405
116.055
114.572
112.952
111.191
109.288
107.243
105.058
102.737
100.289
97.7215
95.0471
92.2798
89.4359
86.5332
83.5897
80.6478
124.301
124.228
124.055
123.788
123.436
123
122.477
121.864
121.157
120.352
119.444
118.429
117.302
116.059
114.696
113.21
111.598
109.859
107.993
106.002
103.89
101.662
99.325
96.8888
94.3644
91.7647
89.1037
86.3967
83.6589
80.9253
123.337
123.258
123.073
122.789
122.415
121.953
121.402
120.759
120.021
119.186
118.25
117.21
116.063
114.806
113.436
111.953
110.354
108.642
106.816
104.88
102.839
100.697
98.4638
96.1469
93.7569
91.3053
88.8045
86.2675
83.7072
81.1526
122.411
122.327
122.132
121.832
121.439
120.955
120.38
119.711
118.948
118.088
117.13
116.071
114.91
113.644
112.274
110.799
109.219
107.535
105.75
103.869
101.894
99.8343
97.6954
95.486
93.2158
90.8948
88.534
86.1446
83.7375
81.3368
121.53
121.443
121.238
120.925
120.515
120.012
119.416
118.727
117.943
117.064
116.088
115.016
113.846
112.577
111.211
109.747
108.187
106.534
104.791
102.961
101.05
99.0647
97.0115
94.8985
92.7343
90.528
88.2892
86.0276
83.7526
81.4843
120.702
120.611
120.399
120.074
119.65
119.132
118.519
117.812
117.011
116.117
115.129
114.048
112.873
111.606
110.246
108.797
107.259
105.636
103.932
102.152
100.3
98.382
96.4059
94.3784
92.3076
90.2015
88.0685
85.9172
83.7558
81.6011
119.936
119.842
119.623
119.288
118.852
118.32
117.693
116.973
116.159
115.254
114.257
113.171
111.994
110.73
109.38
107.946
106.431
104.838
103.172
101.436
99.6374
97.7809
95.8732
93.921
91.9316
89.9124
87.8707
85.8142
83.75
81.6921
119.239
119.142
118.917
118.574
118.128
117.585
116.947
116.216
115.392
114.479
113.476
112.387
111.212
109.953
108.614
107.195
105.702
104.138
102.506
100.812
99.0607
97.2582
95.4104
93.5238
91.6048
89.6601
87.6965
85.7207
83.7391
81.7634
118.62
118.521
118.29
117.939
117.484
116.932
116.286
115.546
114.715
113.796
112.79
111.7
110.528
109.276
107.947
106.544
105.072
103.533
101.932
100.275
98.5656
96.81
95.0139
93.1833
91.3241
89.4426
87.5448
85.6367
83.7242
81.8169
118.088
117.986
117.75
117.392
116.93
116.371
115.717
114.971
114.135
113.213
112.205
111.116
109.947
108.702
107.384
105.996
104.542
103.026
101.453
99.8268
98.1534
96.4376
94.6851
92.9014
91.0922
89.2632
87.4199
85.5679
83.7125
81.8621
117.653
117.548
117.304
116.939
116.47
115.904
115.245
114.494
113.655
112.73
111.722
110.634
109.47
108.232
106.923
105.548
104.11
102.613
101.063
99.4633
97.8193
96.136
94.4188
92.673
90.9038
89.1167
87.3168
85.5092
83.6987
81.8923
117.327
117.216
116.963
116.591
116.117
115.548
114.884
114.13
113.288
112.362
111.354
110.268
109.107
107.875
106.575
105.21
103.785
102.304
100.772
99.1934
97.5726
95.9149
94.2253
92.509
90.771
89.0164
87.2501
85.477
83.7018
81.9305
117.125
116.99
116.72
116.343
115.866
115.294
114.629
113.872
113.029
112.103
111.096
110.012
108.855
107.627
106.333
104.976
103.561
102.091
100.572
99.0068
97.4018
95.7612
94.0901
92.3934
90.6759
88.9426
87.1983
85.4474
83.6944
81.9442
117.107
116.908
116.61
116.226
115.747
115.171
114.503
113.745
112.901
111.974
110.968
109.886
108.731
107.507
106.218
104.867
103.458
101.996
100.485
98.9296
97.335
95.7055
94.0462
92.3618
90.6573
88.9372
87.2063
85.469
83.7296
81.9924
-50.5647
-30.3124
-11.1676
35.5267
28.0709
16.0147
50.984
38.8856
27.6613
52.414
41.9852
33.9351
56.7564
48.4633
41.7009
61.146
54.2332
48.3382
64.4224
58.5382
53.4868
67.022
61.995
57.6842
69.2137
64.8798
61.1698
71.064
67.2841
64.0562
72.62
69.2889
66.4514
73.9312
70.9683
68.4495
75.0381
72.3801
70.1238
75.9731
73.5698
71.532
76.7625
74.5742
72.7198
77.4285
75.4227
73.7235
77.9891
76.1394
74.5723
78.4596
76.744
75.2898
78.853
77.2529
75.8956
79.1804
77.6799
76.4058
79.4513
78.0367
76.8341
79.6743
78.3337
77.1924
79.8562
78.579
77.4899
80.0049
78.7816
77.7368
80.123
78.945
77.9373
80.2223
79.0817
78.1041
80.2941
79.1834
78.2305
80.3669
79.279
78.3433
80.401
79.3294
78.4077
80.4701
79.4126
78.4974
-2.89163
-2.79159
-1.32615
-0.185652
-0.151169
-0.0547506
0.0085024
-0.0143722
0.00225379
0.0631252
0.0747005
0.0430384
0.0314355
0.054925
0.0754956
0.0584306
0.0206758
-0.0020725
0.00838188
0.0351268
0.0453268
0.0229592
-0.0227733
-0.067877
-0.084693
-0.063104
-0.0256854
-0.00568977
-0.00582743
-0.002491
2.24156
-0.673134
0.916837
0.389841
-0.951028
-0.709918
-0.0757269
-0.0347467
-0.0171141
0.0840123
0.0677818
-0.0231319
-0.0477535
0.0278513
0.101811
0.0774273
0.0073395
-0.0370943
-0.0184887
0.0361529
0.0633225
0.0334222
-0.0345215
-0.10343
-0.129745
-0.0930594
-0.0278234
0.00471534
-0.00251717
-0.00249755
13.3928
5.02551
2.22451
-0.221548
-0.545336
0.89461
1.07524
-0.24058
-0.614983
-0.259349
0.0872959
-0.0131182
-0.0583719
0.0834753
0.176436
0.0995523
-0.0383845
-0.122451
-0.0803082
0.0421483
0.109886
0.0652438
-0.037802
-0.144356
-0.18966
-0.13435
-0.0245372
0.0290502
0.00660395
-0.00258263
23.1716
13.2863
7.40864
3.63852
1.91187
1.36733
0.167044
-0.507236
-0.141415
1.02705
0.924139
-0.159184
-0.541392
-0.329873
0.152027
0.198484
-0.035388
-0.181195
-0.102711
0.112477
0.194994
0.104152
-0.0563002
-0.221526
-0.30073
-0.219465
-0.015321
0.0778406
0.027788
-0.00303171
32.3482
22.5755
15.2531
9.96376
6.33352
3.86549
2.00216
1.00623
0.73812
0.733561
0.222025
-0.369927
-0.442296
0.484641
1.01672
0.420467
-0.173268
-0.506661
-0.460632
-0.0179096
0.281481
0.182623
-0.0483223
-0.281066
-0.395308
-0.243903
0.023692
0.16651
0.0687606
-0.00459829
40.3321
31.3994
23.5087
17.0768
12.1538
8.51437
5.84785
3.97076
2.70161
1.79518
1.02721
0.435779
0.217845
0.493415
0.499195
0.246338
-0.216468
-0.522294
-0.275364
0.531802
0.719213
0.251128
-0.0952969
-0.41987
-0.653353
-0.585284
-0.0111693
0.29453
0.133329
-0.00972039
46.8481
39.0369
31.2564
24.3641
18.7407
14.286
10.7683
8.01844
5.92558
4.35385
3.1346
2.17825
1.54286
1.22436
0.957703
0.61777
0.147321
-0.161198
-0.0552105
0.30884
0.44088
0.258529
-0.0674502
-0.445988
-0.702574
-0.422793
0.363542
0.563763
0.210706
-0.0228233
52.155
45.4189
38.157
31.325
25.4429
20.5005
16.3639
12.9451
10.1785
7.96645
6.18058
4.73964
3.6418
2.85895
2.24628
1.65201
1.06404
0.650874
0.534656
0.613831
0.627101
0.419385
0.0540853
-0.318237
-0.516455
-0.306539
0.165431
0.401723
0.306716
-0.0637882
56.4839
50.6636
44.0758
37.6003
31.7825
26.6727
22.2063
18.348
15.0684
12.3115
10.0017
8.08095
6.52014
5.27697
4.25342
3.35116
2.55909
1.9503
1.57846
1.38008
1.18158
0.855682
0.44319
0.0693345
-0.128862
-0.0387325
0.24048
0.395517
0.2635
-0.302598
60.0168
54.9465
49.0413
43.0548
37.5009
32.4574
27.8954
23.8104
20.204
17.0575
14.3341
11.9954
10.0092
8.33577
6.9134
5.68225
4.62181
3.75291
3.091
2.58965
2.14035
1.66021
1.16434
0.731693
0.452567
0.383179
0.450614
0.436757
0.175252
-0.517521
62.9183
58.457
53.175
47.7056
42.5094
37.6697
33.1738
29.0331
25.2687
21.8861
18.8733
16.2102
13.874
11.8368
10.0606
8.50672
7.15272
5.99619
5.03336
4.22962
3.519
2.84701
2.21154
1.65546
1.23237
0.966402
0.798669
0.58023
0.173765
-0.592734
65.3216
61.3568
56.6175
51.6378
46.8234
42.2529
37.9195
33.8403
30.045
26.5523
23.3659
20.48
17.8838
15.5611
13.4897
11.645
10.008
8.56856
7.31561
6.22319
5.24965
4.35789
3.53853
2.81075
2.20136
1.71544
1.30602
0.871713
0.309888
-0.522139
67.3265
63.7703
59.4945
54.9553
50.5094
46.2275
42.1035
38.1547
34.4127
30.9021
27.6356
24.6173
21.8455
19.3138
17.011
14.9226
13.0354
11.3384
9.81978
8.46002
7.2318
6.10942
5.08138
4.15244
3.33176
2.61413
1.96276
1.30841
0.579578
-0.331244
69.0081
65.792
61.9102
57.7577
53.6504
49.6507
45.7512
41.9666
38.3272
34.8594
31.5802
28.4993
25.6216
22.9476
20.4735
18.1926
16.0968
14.1778
12.4255
10.8258
9.36027
8.01088
6.7662
5.62316
4.58076
3.62905
2.73942
1.86468
0.957561
-0.0559658
70.4245
67.4939
63.9473
60.1311
56.3275
52.5911
48.9128
45.304
41.7922
38.4032
35.1554
32.0616
29.1305
26.367
23.7728
21.3463
19.0839
16.9804
15.0289
13.2194
11.5395
9.97636
8.51955
7.16254
5.89933
4.71839
3.59751
2.50434
1.40836
0.263736
71.6208
68.9313
65.671
62.1465
58.6117
55.115
51.6456
48.2114
44.8366
41.5452
38.3556
35.2818
32.3343
29.5211
26.847
24.3142
21.9225
19.6697
17.5517
15.5622
13.6929
11.9343
10.2779
8.71585
7.24034
5.83991
4.49703
3.18898
1.89545
0.592324
72.6328
70.1479
67.1328
63.861
60.5629
57.2815
54.0044
50.7367
47.4991
44.3133
41.1967
38.1634
35.2248
32.3902
29.6667
27.0588
24.5687
22.1969
19.9417
17.7996
15.7651
13.8316
11.992
10.2388
8.56392
6.95653
5.40242
3.88464
2.38823
0.904162
73.4891
71.1785
68.3739
65.3212
62.2306
59.1408
56.0385
52.9257
49.8202
46.7411
43.7045
40.7238
37.8104
34.9744
32.2239
29.5649
27.0015
24.5358
22.1684
19.8977
17.7206
15.6324
13.6275
11.6992
9.83978
8.03938
6.28584
4.56531
2.86489
1.18479
74.2132
72.0512
69.4276
66.5648
63.6557
60.7356
57.7901
54.8194
51.8378
48.8625
45.9077
42.9858
40.108
37.2842
34.5229
31.8311
29.2141
26.6753
24.2166
21.8382
19.5386
17.3147
15.1623
13.0754
11.047
9.06809
7.12768
5.21333
3.31221
1.42918
74.8245
72.7893
70.3214
67.623
64.8723
62.1014
59.2958
56.4535
53.5863
50.7092
47.8347
44.974
42.1375
39.3348
36.5744
33.8637
31.2085
28.6132
26.0809
23.6127
21.2086
18.8666
16.5834
14.3542
12.1723
10.0295
7.91549
5.81809
3.72368
1.63864
75.339
73.412
71.0778
68.5215
65.9084
63.2683
60.5864
57.859
55.0959
52.3097
49.5117
46.7117
43.9192
41.143
38.3916
35.6722
32.991
30.3529
27.7615
25.219
22.7261
20.2819
17.8838
15.5277
13.2076
10.9157
8.64182
6.37384
4.09699
1.81733
75.7707
73.9356
71.716
69.2821
66.7881
64.2618
61.6883
59.0628
56.393
53.6898
50.963
48.2212
45.4728
42.7261
39.9888
37.2681
34.5702
31.9001
29.2619
26.6583
24.0906
21.5585
19.0602
16.5921
14.1487
11.7222
9.30291
6.8782
4.43239
1.97021
76.1305
74.3734
72.2515
69.9223
67.5306
65.1027
62.6235
60.0872
57.5
54.8713
52.2094
49.5218
46.816
44.0995
41.3794
38.6624
35.9547
33.2612
30.5863
27.9329
25.3026
22.6958
20.1109
17.5448
14.9924
12.4461
9.8961
7.32957
4.73012
2.10069
76.4296
74.738
72.6987
70.4585
68.1539
65.81
63.4118
60.9527
58.4375
55.8743
53.2704
50.6321
47.966
45.2788
42.5771
39.8671
37.1546
34.4445
31.7411
29.0474
26.3655
23.6956
21.0369
18.3863
15.7388
13.0873
10.4217
7.72898
4.99237
2.21252
76.674
75.0368
73.0665
70.9008
68.6694
66.3962
64.0665
61.673
59.2195
56.7129
54.1595
51.5647
48.9345
46.2746
43.591
40.8896
38.1757
35.454
32.7288
30.003
27.2788
24.5566
21.8357
19.1133
16.3845
13.6421
10.8762
8.07351
5.21708
2.30529
76.8757
75.2825
73.369
71.2646
69.0934
66.8785
64.6054
62.2665
59.8646
57.4055
54.8949
52.3375
49.7383
47.1027
44.436
41.7435
39.0303
36.3009
33.5592
30.8083
28.0502
25.2855
22.5134
19.7313
16.9345
14.1156
11.2647
8.36852
5.40988
2.38414
77.0312
75.473
73.6043
71.5485
69.4251
67.2566
65.0288
62.7336
60.373
57.9524
55.4765
52.9496
50.3761
47.7609
45.1087
42.4245
39.7131
36.9785
34.2247
31.4545
28.67
25.8717
23.0589
20.2289
17.377
14.496
11.5759
8.60318
5.56087
2.44205
77.1631
75.6305
73.7959
71.777
69.6897
67.5562
65.3627
63.1007
60.7717
58.3804
55.9312
53.4278
50.8743
48.275
45.6344
42.9571
40.2474
37.5096
34.747
31.9626
29.1582
26.3345
23.4907
20.6241
17.7299
14.801
11.8271
8.79459
5.68632
2.49157
77.2442
75.7278
73.9154
71.9216
69.8587
67.7487
65.5781
63.3383
61.0305
58.6589
56.2276
53.7402
51.2002
48.6118
45.9791
43.3066
40.5984
37.8585
35.0903
32.2965
29.479
26.6383
23.7737
20.8824
17.9596
14.998
11.987
8.91303
5.75861
2.51148
77.3331
75.8178
74.0178
72.0389
69.9897
67.8923
65.7339
63.5058
61.2089
58.8474
56.4252
53.9455
51.4119
48.8284
46.1991
43.5281
40.8197
38.0776
35.3052
32.5053
29.6797
26.8289
23.9521
21.0467
18.1077
15.1277
12.0958
8.99753
5.81285
2.51791
)
;

boundaryField
{
    inlet
    {
        type            zeroGradient;
    }
    outlet
    {
        type            fixedValue;
        value           uniform 0;
    }
    flap
    {
        type            zeroGradient;
    }
    upperWall
    {
        type            zeroGradient;
    }
    lowerWall
    {
        type            zeroGradient;
    }
    frontAndBack
    {
        type            empty;
    }
}


// ************************************************************************* //
