/*--------------------------------*- C++ -*----------------------------------*\
  =========                 |
  \\      /  F ield         | OpenFOAM: The Open Source CFD Toolbox
   \\    /   O peration     | Website:  https://openfoam.org
    \\  /    A nd           | Version:  dev
     \\/     M anipulation  |
\*---------------------------------------------------------------------------*/
FoamFile
{
    version     2.0;
    format      ascii;
    class       surfaceScalarField;
    location    "6.9";
    object      phi;
}
// * * * * * * * * * * * * * * * * * * * * * * * * * * * * * * * * * * * * * //

dimensions      [0 3 -1 0 0 0 0];

internalField   nonuniform List<scalar> 
5457
(
0.198418
0.00158236
0.19648
0.00193733
0.194192
0.00228803
0.191509
0.00268351
0.188428
0.00308111
0.184951
0.00347667
0.181073
0.00387847
0.176779
0.00429391
0.17205
0.00472811
0.166865
0.00518511
0.161197
0.0056684
0.155016
0.00618093
0.148291
0.00672487
0.14099
0.00730125
0.13308
0.00790943
0.124534
0.00854639
0.115328
0.00920584
0.105451
0.00987715
0.094907
0.0105441
0.0837235
0.0111835
0.0719589
0.0117646
0.0597105
0.0122483
0.0471218
0.0125888
0.0343815
0.0127403
0.0216864
0.0126951
0.00903617
0.0126502
-0.00291713
0.0119533
-0.00847255
0.00555542
-0.00804318
-0.000429369
-0.00804318
0.199928
0.00165419
0.199176
0.00268974
0.197965
0.00349891
0.196332
0.00431662
0.194272
0.00514109
0.191782
0.00596666
0.188855
0.00680536
0.185478
0.00767067
0.181633
0.00857292
0.177298
0.00952042
0.172446
0.0105204
0.167048
0.0115792
0.161071
0.0127015
0.154482
0.0138901
0.147247
0.0151444
0.139334
0.0164594
0.130716
0.0178237
0.121376
0.0192173
0.111311
0.0206089
0.100541
0.0219534
0.0891169
0.0231891
0.0771293
0.024236
0.0647232
0.0249948
0.0521157
0.0253478
0.0396553
0.0251555
0.0281052
0.0242003
0.0185945
0.0214639
0.00879665
0.0153533
0.00118321
0.00718406
-0.00685996
0.199781
0.00187361
0.199087
0.00338354
0.197946
0.00463979
0.196409
0.00585318
0.194483
0.00706715
0.192164
0.00828562
0.189447
0.0095227
0.186322
0.0107961
0.182774
0.0121207
0.178785
0.0135092
0.174333
0.0149725
0.169392
0.0165201
0.163933
0.0181601
0.157926
0.0198972
0.151338
0.0217326
0.144136
0.0236612
0.136291
0.0256692
0.127777
0.0277312
0.11858
0.0298058
0.108702
0.0318313
0.0981704
0.0337211
0.087048
0.0353584
0.0754512
0.0365916
0.063574
0.037225
0.0517321
0.0369974
0.0403968
0.0355356
0.0297385
0.0321222
0.0191657
0.0259261
0.0095974
0.0167523
0.00273744
0.199703
0.00217052
0.199008
0.00407882
0.197887
0.00576027
0.196376
0.00736403
0.194488
0.00895519
0.192223
0.0105515
0.189575
0.0121703
0.186539
0.013832
0.183105
0.0155551
0.179258
0.0173556
0.174983
0.0192474
0.170261
0.0212427
0.165069
0.0233517
0.159385
0.0255814
0.153183
0.0279343
0.146438
0.0304063
0.139124
0.0329836
0.131217
0.0356385
0.122697
0.038325
0.113556
0.0409723
0.103799
0.043478
0.0934567
0.0457011
0.0825954
0.0474529
0.0713325
0.0484879
0.0598405
0.0484894
0.0483164
0.0470597
0.0368105
0.0436281
0.0251875
0.0375491
0.0133354
0.0286045
0.0160728
0.199667
0.00250309
0.198964
0.00478205
0.197863
0.00686154
0.196381
0.00884565
0.194533
0.0108039
0.192318
0.0127661
0.189734
0.014754
0.186776
0.0167904
0.183434
0.0188967
0.179699
0.0210912
0.175556
0.0233902
0.170991
0.0258077
0.165987
0.0283554
0.160527
0.0310416
0.154591
0.0338698
0.148161
0.0368368
0.141215
0.0399294
0.133733
0.04312
0.125697
0.0463619
0.117087
0.0495817
0.107893
0.0526716
0.0981144
0.0554802
0.0877643
0.057803
0.0768781
0.0593741
0.0655081
0.0598595
0.0537073
0.0588604
0.0414533
0.0558821
0.0285872
0.0504152
0.0148521
0.0423396
0.0309249
0.199653
0.00285028
0.198949
0.00548607
0.197871
0.00793944
0.196427
0.0102898
0.194627
0.0126038
0.192473
0.0149195
0.189964
0.0172636
0.187093
0.0196612
0.183854
0.0221359
0.180237
0.0247084
0.17623
0.0273967
0.171822
0.0302163
0.166997
0.0331801
0.161741
0.0362974
0.156038
0.0395727
0.149872
0.0430034
0.143223
0.0465776
0.136074
0.0502695
0.128402
0.0540343
0.120182
0.0578015
0.111387
0.0614661
0.101988
0.0648792
0.0919541
0.0678374
0.0812531
0.070075
0.0698532
0.0712594
0.0577158
0.0709978
0.0447597
0.0688382
0.0308484
0.0643266
0.0158727
0.0573153
0.0467976
0.19965
0.0032002
0.198954
0.00618203
0.197905
0.00898902
0.196505
0.0116894
0.194763
0.014346
0.192681
0.0170015
0.190257
0.0196871
0.187488
0.0224307
0.184366
0.0252579
0.180883
0.0281912
0.177029
0.0312505
0.172793
0.0344528
0.168161
0.0378121
0.163119
0.041339
0.157653
0.0450389
0.151745
0.048911
0.145378
0.0529452
0.138528
0.057119
0.13117
0.0613927
0.123269
0.0657025
0.114782
0.0699531
0.105654
0.0740072
0.0958157
0.0776755
0.0851849
0.0807058
0.0736668
0.0827775
0.06116
0.0835046
0.0475539
0.0824444
0.0327576
0.0791229
0.0167823
0.0732906
0.0635799
0.199655
0.00354554
0.198975
0.00686211
0.197959
0.0100047
0.19661
0.0130381
0.194934
0.0160219
0.192934
0.0190019
0.190608
0.0220131
0.187953
0.0250859
0.184963
0.0282477
0.181631
0.0315232
0.177947
0.0349338
0.173902
0.0384981
0.169483
0.0422316
0.164675
0.0461463
0.159465
0.0502497
0.153832
0.0545433
0.147757
0.0590205
0.141212
0.0636638
0.134164
0.0684411
0.126567
0.0732995
0.118361
0.0781585
0.109468
0.0829003
0.0997851
0.0873585
0.0891856
0.0913053
0.0775232
0.0944399
0.0646454
0.0963824
0.0504156
0.0966742
0.0347667
0.0947718
0.017789
0.0902683
0.0813689
0.199664
0.00388135
0.199006
0.00751988
0.19803
0.0109809
0.196739
0.0143295
0.195137
0.0176239
0.193227
0.0209117
0.191009
0.0242308
0.188481
0.0276144
0.185637
0.0310916
0.182471
0.0346888
0.178976
0.0384291
0.175141
0.0423329
0.170956
0.0464174
0.166405
0.0506967
0.161474
0.0551808
0.156143
0.0598747
0.150386
0.0647768
0.144173
0.0698769
0.137462
0.0751528
0.130195
0.0805662
0.122297
0.0860565
0.113665
0.0915319
0.104167
0.0968574
0.0936318
0.10184
0.0818622
0.10621
0.0686468
0.109598
0.0537995
0.111521
0.0372345
0.111337
0.0190823
0.108421
0.100451
0.199677
0.00420411
0.199047
0.00815009
0.198116
0.0119122
0.196888
0.0155577
0.195367
0.0191447
0.193556
0.0227222
0.191456
0.0263306
0.189066
0.030005
0.186381
0.0337767
0.183396
0.0376735
0.180105
0.0417202
0.176499
0.0459389
0.172567
0.0503489
0.168297
0.0549667
0.163672
0.0598055
0.158672
0.0648749
0.15327
0.0701794
0.147429
0.0757178
0.141101
0.0814806
0.13422
0.0874472
0.126695
0.0935812
0.118404
0.0998233
0.109182
0.10608
0.0988168
0.112205
0.0870494
0.117977
0.0735864
0.123061
0.0581451
0.126963
0.0405491
0.128933
0.0208997
0.12807
0.121351
0.199693
0.00451116
0.199095
0.00874844
0.198213
0.0127937
0.197053
0.0167173
0.19562
0.020578
0.193916
0.0244259
0.191943
0.0283035
0.189701
0.0322478
0.187186
0.0362916
0.184395
0.0404643
0.181323
0.0447923
0.177963
0.0492993
0.174305
0.0540068
0.170338
0.0589339
0.166046
0.0640975
0.161408
0.0695122
0.156398
0.0751898
0.150977
0.081139
0.145093
0.0873648
0.138673
0.0938667
0.131618
0.100636
0.123788
0.107653
0.114993
0.114874
0.104979
0.122219
0.093415
0.129541
0.0798934
0.136582
0.0639632
0.142893
0.0452307
0.147665
0.0236091
0.149691
0.14496
0.199711
0.00480046
0.199148
0.00931142
0.19832
0.0136213
0.197234
0.0178035
0.195894
0.0219181
0.194304
0.0260162
0.192465
0.0301419
0.190379
0.0343338
0.188045
0.0386262
0.185459
0.0430497
0.182619
0.0476321
0.17952
0.0523989
0.176153
0.0573733
0.17251
0.0625773
0.168576
0.0680314
0.164333
0.0737554
0.159754
0.0797683
0.154804
0.0860895
0.14943
0.0927388
0.143559
0.0997369
0.13709
0.107106
0.129877
0.114867
0.121713
0.123038
0.112311
0.131621
0.101268
0.140584
0.0880393
0.149811
0.0719164
0.159016
0.0520801
0.167502
0.0278815
0.17389
0.172841
0.19973
0.00507037
0.199205
0.00983616
0.198435
0.0143913
0.197427
0.0188121
0.196185
0.0231601
0.194714
0.0274873
0.193016
0.0318392
0.191095
0.0362556
0.188949
0.0407719
0.186579
0.04542
0.183982
0.0502286
0.181157
0.0552246
0.178097
0.0604331
0.174796
0.0658784
0.171243
0.0715843
0.167423
0.0775754
0.163314
0.0838775
0.158883
0.0905198
0.154086
0.0975357
0.148857
0.104966
0.1431
0.112863
0.136678
0.121289
0.12939
0.130326
0.120938
0.140073
0.110877
0.150645
0.0985353
0.162153
0.0828919
0.174659
0.062426
0.187967
0.0351176
0.201198
0.207959
0.199751
0.00531964
0.199267
0.0103204
0.198557
0.0151006
0.19763
0.0197395
0.19649
0.0242998
0.195143
0.0288345
0.193592
0.0333899
0.191841
0.0380069
0.189891
0.0427218
0.187744
0.047567
0.1854
0.0525724
0.182859
0.0577658
0.180118
0.0631735
0.177175
0.0688217
0.174022
0.0747369
0.17065
0.0809474
0.167043
0.0874846
0.163178
0.0943854
0.159019
0.101695
0.154516
0.109469
0.149593
0.117785
0.144141
0.126742
0.137989
0.136477
0.130881
0.147182
0.122399
0.159126
0.11185
0.172702
0.0980041
0.188506
0.0785213
0.20745
0.0486499
0.23107
0.256609
0.199772
0.00554732
0.19933
0.0107622
0.198684
0.015747
0.197841
0.020583
0.196806
0.0253341
0.195587
0.0300541
0.194187
0.0347899
0.192611
0.0395831
0.190862
0.0444704
0.188944
0.0494849
0.18686
0.0546568
0.184611
0.0600144
0.1822
0.0655849
0.179626
0.0713955
0.176888
0.0774745
0.173983
0.0838524
0.170904
0.0905641
0.167638
0.0976514
0.164166
0.105166
0.16046
0.113176
0.156474
0.12177
0.152144
0.131072
0.147369
0.141252
0.14199
0.152561
0.135743
0.165373
0.128158
0.180287
0.118293
0.19837
0.103897
0.221846
0.0776598
0.257307
0.334269
0.00379533
-0.00379533
0.00738519
-0.00358986
0.0103076
-0.00292243
0.0125409
-0.00223324
0.0141671
-0.00162625
0.015285
-0.00111787
0.0159893
-0.000704365
0.0163674
-0.000378062
0.0164986
-0.000131235
0.0164511
4.75778e-05
0.016277
0.000174076
0.0160326
0.000244367
0.0157533
0.000279357
0.0154681
0.000285121
0.0151979
0.000270223
0.0149553
0.000242608
0.0147469
0.000208422
0.0145737
0.000173157
0.0144335
0.000140217
0.0143188
0.000114719
0.0142223
9.64789e-05
0.0141376
8.46971e-05
0.0140591
7.85126e-05
0.0139804
7.87346e-05
0.0138923
8.80687e-05
0.0137837
0.000108578
0.0136458
0.000137929
0.0134774
0.000168427
0.0132933
0.000184041
0.000147557
0.00350836
-0.00730369
0.00686502
-0.00694651
0.00966874
-0.00572616
0.0119039
-0.00446837
0.0136474
-0.00336973
0.0149864
-0.00245694
0.0160025
-0.00172039
0.0167669
-0.0011425
0.0173372
-0.000701574
0.0177582
-0.000373413
0.0180709
-0.000138631
0.0183056
9.73517e-06
0.0184853
9.96112e-05
0.0186402
0.000130187
0.0187892
0.000121252
0.0189431
8.87112e-05
0.0191063
4.51813e-05
0.0192782
1.25819e-06
0.0194604
-4.19049e-05
0.0196481
-7.29763e-05
0.0198377
-9.31141e-05
0.020026
-0.00010369
0.0202112
-0.000106663
0.0203902
-0.000100252
0.0205567
-7.84113e-05
0.0207006
-3.53659e-05
0.0208126
2.5992e-05
0.0208901
9.08636e-05
0.0209463
0.000127837
0.000118992
0.00296833
-0.010272
0.00572409
-0.00970226
0.00799457
-0.00799664
0.00979996
-0.00627376
0.0112145
-0.00478425
0.0123109
-0.00355334
0.0131566
-0.00256612
0.0138106
-0.00179652
0.0143209
-0.00121188
0.0147262
-0.000778655
0.0150583
-0.000470763
0.0153388
-0.000270726
0.0155916
-0.0001532
0.0158213
-9.95615e-05
0.0160343
-9.17272e-05
0.0162374
-0.0001144
0.0164363
-0.000153716
0.0166352
-0.000197596
0.0168305
-0.000237204
0.0170214
-0.000263903
0.0172065
-0.000278227
0.017387
-0.00028416
0.0175664
-0.0002861
0.0177481
-0.000281928
0.0179322
-0.000262488
0.018114
-0.000217213
0.0182892
-0.000149235
0.0184562
-7.60677e-05
0.0186067
-2.26643e-05
2.13327e-05
0.00237339
-0.0126454
0.00441566
-0.0117445
0.00603086
-0.00961185
0.00729973
-0.00754263
0.00829032
-0.00577484
0.0090565
-0.00431952
0.00964868
-0.00315829
0.0101105
-0.00225833
0.0104756
-0.00157697
0.010767
-0.0010701
0.0110036
-0.000707372
0.0112026
-0.000469664
0.0113777
-0.000328365
0.011534
-0.000255794
0.0116745
-0.000232253
0.0118015
-0.000241375
0.0119144
-0.000266592
0.0120129
-0.000296125
0.0120947
-0.000319022
0.012159
-0.000328183
0.0122059
-0.000325191
0.0122386
-0.000316776
0.0122645
-0.000312041
0.0122909
-0.000308301
0.0123209
-0.000292516
0.0123503
-0.000246605
0.0123719
-0.000170875
0.0123877
-9.17881e-05
0.0123883
-2.33182e-05
3.30622e-05
0.00167947
-0.0143249
0.00292119
-0.0129862
0.0038067
-0.0104974
0.00447731
-0.00821325
0.00498751
-0.00628503
0.00537269
-0.00470469
0.00566484
-0.00345044
0.00589112
-0.00248462
0.00606928
-0.00175512
0.00620358
-0.00120441
0.00629724
-0.000801028
0.00636254
-0.000534964
0.0064048
-0.000370632
0.00642163
-0.000272619
0.00641148
-0.000222104
0.00637583
-0.000205721
0.00631155
-0.000202316
0.00622029
-0.000204864
0.00610194
-0.000200671
0.00595625
-0.0001825
0.00578587
-0.00015481
0.00559281
-0.000123718
0.00538544
-0.000104668
0.0051763
-9.91565e-05
0.00497677
-9.29872e-05
0.00477853
-4.83697e-05
0.0045359
7.17552e-05
0.00423061
0.000213509
0.00392647
0.000280813
0.000253264
0.000879567
-0.0152045
0.00122911
-0.0133358
0.00132859
-0.0105968
0.00135291
-0.00823757
0.00132341
-0.00625554
0.00126563
-0.00464691
0.0011978
-0.00338261
0.00112957
-0.00241639
0.00106019
-0.00168574
0.000976436
-0.00112066
0.000865668
-0.000690259
0.000734422
-0.000403719
0.000567581
-0.000203791
0.00035962
-6.46575e-05
0.000103382
3.41333e-05
-0.000195478
9.3139e-05
-0.000520615
0.000122821
-0.000870517
0.000145038
-0.00125716
0.000185976
-0.00169625
0.000256585
-0.0021928
0.000341744
-0.0027248
0.000408277
-0.00325799
0.000428523
-0.00376361
0.000406461
-0.00422331
0.000366719
-0.00461293
0.000341252
-0.00489999
0.000358808
-0.00511111
0.000424634
-0.00528927
0.000458975
0.00040775
-9.95513e-05
-0.0151049
-0.000667034
-0.0127683
-0.00138768
-0.00987619
-0.0020898
-0.00753545
-0.00274712
-0.00559823
-0.00334076
-0.00405327
-0.00386827
-0.0028551
-0.00433746
-0.00194719
-0.00475898
-0.00126422
-0.0051655
-0.000714136
-0.00562554
-0.000230223
-0.00619086
0.000161603
-0.00680178
0.000407132
-0.00739547
0.000529033
-0.00795508
0.000593736
-0.00848881
0.000626872
-0.00900398
0.00063799
-0.00949623
0.000637287
-0.00995369
0.000643442
-0.0103709
0.000673823
-0.0107559
0.000726744
-0.0111232
0.000775565
-0.0114822
0.000787485
-0.0118263
0.000750611
-0.0121406
0.00068097
-0.0124126
0.000613265
-0.0126374
0.000583617
-0.0128097
0.000596944
-0.0129472
0.000596411
0.000554846
-0.00111623
-0.0139887
-0.00273652
-0.011148
-0.00436342
-0.00824929
-0.00590141
-0.00599746
-0.00729206
-0.00420758
-0.00853334
-0.00281198
-0.00965012
-0.00173832
-0.0106855
-0.000911853
-0.0116648
-0.000284846
-0.0125506
0.000171639
-0.013265
0.000484154
-0.0138031
0.000699709
-0.0142547
0.000858704
-0.014691
0.000965343
-0.0151246
0.00102733
-0.0155544
0.00105671
-0.0159767
0.00106026
-0.0163873
0.00104794
-0.0167817
0.00103782
-0.0171556
0.00104768
-0.0175077
0.0010789
-0.0178412
0.00110902
-0.0181587
0.001105
-0.0184562
0.0010481
-0.0187243
0.000949115
-0.0189551
0.000844096
-0.0191438
0.000772276
-0.0192884
0.000741573
-0.0194091
0.000717125
0.000686962
-0.00229179
-0.0116969
-0.00501995
-0.00841984
-0.00767593
-0.00559332
-0.0101031
-0.00357033
-0.0122391
-0.00207154
-0.0140698
-0.000981316
-0.0156131
-0.000194943
-0.0168578
0.000332792
-0.0178192
0.000676612
-0.018561
0.000913443
-0.0191696
0.00109267
-0.0196993
0.00122948
-0.0201691
0.00132845
-0.0205998
0.00139606
-0.0210105
0.00143802
-0.0214102
0.00145641
-0.0218002
0.00145029
-0.0221779
0.00142561
-0.0225401
0.00140005
-0.0228857
0.00139328
-0.0232157
0.00140888
-0.0235317
0.00142497
-0.0238318
0.00140517
-0.0241081
0.00132439
-0.0243494
0.00119036
-0.0245487
0.00104339
-0.0247058
0.000929415
-0.0248274
0.000863131
-0.0249343
0.000824091
0.000805296
-0.0036762
-0.00802068
-0.00760734
-0.0044887
-0.0113049
-0.00189571
-0.0145229
-0.000352423
-0.0171313
0.000536948
-0.019145
0.0010323
-0.020657
0.00131715
-0.0218138
0.00148959
-0.0227427
0.00160543
-0.0235156
0.00168639
-0.0241684
0.00174544
-0.024725
0.00178605
-0.0252071
0.00181056
-0.0256377
0.00182673
-0.0260391
0.00183938
-0.0264247
0.00184204
-0.026797
0.00182261
-0.0271519
0.00178043
-0.0274863
0.00173453
-0.0278037
0.00171061
-0.0281109
0.00171613
-0.0284125
0.00172652
-0.0287037
0.00169639
-0.0289699
0.0015906
-0.0291939
0.00141438
-0.0293677
0.00121713
-0.0294968
0.00105856
-0.0295968
0.000963104
-0.0296891
0.000916377
0.000907047
-0.00566948
-0.00235119
-0.0111821
0.00102393
-0.0155636
0.0024858
-0.0189001
0.00298403
-0.0214162
0.0030531
-0.0233593
0.00297534
-0.0248888
0.00284666
-0.0261045
0.00270535
-0.0270764
0.00257726
-0.0278686
0.00247861
-0.0285301
0.00240694
-0.0290896
0.00234553
-0.0295665
0.00228754
-0.0299843
0.00224449
-0.0303697
0.00222476
-0.0307406
0.002213
-0.0310984
0.00218033
-0.0314334
0.00211551
-0.0317407
0.00204177
-0.0320281
0.00199797
-0.0323113
0.00199942
-0.0326006
0.00201577
-0.0328892
0.00198498
-0.0331536
0.00185506
-0.0333669
0.0016276
-0.0335175
0.00136774
-0.0336185
0.00115956
-0.0336959
0.00104054
-0.0337721
0.000992544
0.000991257
-0.00786369
0.00551249
-0.0142713
0.00743155
-0.0189857
0.00720021
-0.0225342
0.00653252
-0.0252195
0.00573843
-0.0272439
0.00499972
-0.028794
0.00439674
-0.0300019
0.0039132
-0.0309503
0.00352568
-0.0317122
0.00324049
-0.0323476
0.00304236
-0.0328861
0.00288401
-0.0333385
0.00274001
-0.0337258
0.00263174
-0.0340827
0.00258171
-0.0344348
0.00256508
-0.0347798
0.00252532
-0.0350973
0.00243305
-0.0353757
0.00232008
-0.0356284
0.00225069
-0.0358845
0.00225558
-0.0361634
0.00229461
-0.0364564
0.00227805
-0.0367282
0.00212678
-0.0369362
0.00183567
-0.037063
0.00149446
-0.0371311
0.00122775
-0.0371824
0.00109178
-0.0372413
0.00105148
0.00105807
-0.00972551
0.015238
-0.0174366
0.0151426
-0.0227821
0.0125457
-0.0264782
0.0102286
-0.0291257
0.00838593
-0.0310325
0.00690657
-0.0324587
0.00582295
-0.0335655
0.00501995
-0.0344184
0.00437862
-0.0350915
0.0039136
-0.0356636
0.00361444
-0.0361622
0.00338266
-0.0365745
0.00315231
-0.0369114
0.00296859
-0.0372234
0.00289374
-0.0375518
0.00289348
-0.0378888
0.0028623
-0.0381931
0.00273737
-0.0384388
0.0025658
-0.0386473
0.00245912
-0.0388691
0.00247741
-0.0391386
0.00256415
-0.0394452
0.00258459
-0.0397358
0.00241737
-0.0399451
0.00204504
-0.0400442
0.00159349
-0.0400694
0.00125298
-0.0400877
0.00111006
-0.0401298
0.00109355
0.00110958
-0.0129268
0.0281648
-0.0223621
0.024578
-0.0277052
0.0178887
-0.0309365
0.0134599
-0.0332455
0.010695
-0.034784
0.00844508
-0.0358942
0.00693309
-0.036804
0.00592981
-0.0374985
0.00507312
-0.0380203
0.00443538
-0.0384914
0.00408551
-0.0389432
0.00383444
-0.039307
0.00351615
-0.0395677
0.00322929
-0.039809
0.00313503
-0.0401077
0.00319222
-0.0404478
0.00320235
-0.0407488
0.00303842
-0.0409566
0.00277357
-0.0411034
0.00260592
-0.0412774
0.00265139
-0.0415379
0.00282469
-0.0418702
0.00291685
-0.0421958
0.00274296
-0.0424152
0.00226443
-0.0424792
0.00165748
-0.0424433
0.00121712
-0.0424172
0.00108394
-0.0424459
0.00112224
0.00115298
-0.018419
0.0465839
-0.029849
0.036008
-0.0344695
0.0225092
-0.0359844
0.0149748
-0.0376345
0.0123451
-0.0384486
0.0092592
-0.0389713
0.00745582
-0.0396642
0.00662273
-0.0402132
0.00562206
-0.0405042
0.00472643
-0.0408126
0.00439386
-0.0412215
0.0042434
-0.0415418
0.00383637
-0.0416938
0.0033813
-0.0418227
0.00326397
-0.0420874
0.00345687
-0.042456
0.003571
-0.0427756
0.00335804
-0.0429371
0.00293502
-0.0429899
0.00265873
-0.0430904
0.00275188
-0.0433403
0.00307462
-0.0437148
0.00329138
-0.0440979
0.00312603
-0.0443399
0.00250645
-0.044357
0.00167459
-0.0442293
0.00108941
-0.0441391
0.00099369
-0.0441637
0.00114689
0.00120734
0.207447
0.00576007
0.207034
0.0111748
0.206432
0.0163495
0.205647
0.0213674
0.204688
0.0262933
0.203561
0.0311814
0.202272
0.0360793
0.200826
0.0410287
0.19923
0.0460666
0.197489
0.0512261
0.195608
0.0565374
0.193593
0.062029
0.19145
0.0677282
0.189183
0.0736622
0.186798
0.0798599
0.184298
0.0863523
0.181687
0.0931755
0.178965
0.100373
0.176135
0.107997
0.173192
0.116118
0.170135
0.124828
0.166956
0.13425
0.163653
0.144556
0.160225
0.155989
0.156694
0.168903
0.153155
0.183826
0.149971
0.201555
0.148814
0.223003
0.160462
0.24566
0.258862
0.235868
0.21249
0.00595247
0.212118
0.0115476
0.211574
0.016893
0.210868
0.0220733
0.210008
0.0271537
0.209001
0.0321888
0.207854
0.0372262
0.206575
0.0423077
0.205171
0.04747
0.203651
0.052746
0.202023
0.0581653
0.200297
0.0637557
0.198481
0.069544
0.196586
0.0755567
0.194625
0.0818213
0.192609
0.0883679
0.190554
0.0952307
0.188477
0.10245
0.186399
0.110075
0.184348
0.118169
0.182365
0.126811
0.180511
0.136104
0.178884
0.146183
0.177656
0.157217
0.177147
0.169411
0.178012
0.182961
0.181663
0.197903
0.190701
0.213966
0.206131
0.23023
0.245777
0.219216
0.217658
0.00612239
0.217329
0.0118766
0.21685
0.0173716
0.21623
0.0226929
0.215478
0.027906
0.214602
0.0330653
0.21361
0.0382183
0.212511
0.0434062
0.211316
0.0486652
0.210035
0.0540273
0.208679
0.0595213
0.207261
0.0651736
0.205795
0.0710094
0.204298
0.0770534
0.202789
0.0833309
0.201288
0.0898685
0.199823
0.0966959
0.198426
0.103847
0.197138
0.111363
0.196016
0.119291
0.195138
0.127689
0.194616
0.136626
0.194622
0.146177
0.195418
0.156422
0.197414
0.167415
0.20122
0.179155
0.207607
0.191516
0.217236
0.204336
0.229833
0.217633
0.228831
0.24678
0.222951
0.00626782
0.22267
0.0121578
0.222262
0.0177798
0.221736
0.0232191
0.2211
0.0285414
0.220365
0.0338008
0.219539
0.0390438
0.218634
0.0443111
0.217662
0.0496377
0.216635
0.0550544
0.215568
0.0605885
0.214477
0.0662644
0.213381
0.0721052
0.212302
0.0781325
0.211265
0.0843679
0.2103
0.0908332
0.209444
0.0975517
0.208743
0.104548
0.208255
0.111851
0.208057
0.119489
0.208252
0.127495
0.208978
0.135899
0.210431
0.144725
0.212872
0.15398
0.21665
0.163638
0.222183
0.173622
0.229921
0.183778
0.240438
0.19382
0.254651
0.20342
0.210326
0.273156
0.228374
0.00638692
0.228144
0.0123878
0.227812
0.0181123
0.227386
0.0236453
0.226875
0.0290521
0.22629
0.0343858
0.225641
0.0396922
0.224942
0.0450106
0.224205
0.0503748
0.223445
0.0558138
0.222681
0.0613527
0.221932
0.0670138
0.22122
0.0728169
0.220573
0.0787799
0.220021
0.0849199
0.219601
0.0912525
0.21936
0.0977933
0.219351
0.104557
0.219646
0.111557
0.220331
0.118804
0.22152
0.126306
0.223357
0.134061
0.226028
0.142054
0.229764
0.150244
0.234844
0.158558
0.241597
0.166868
0.250404
0.174972
0.26171
0.182514
0.275989
0.18914
0.193765
0.292551
0.233929
0.006478
0.233754
0.0125632
0.233502
0.0183644
0.233182
0.0239656
0.232803
0.0294308
0.232376
0.0348123
0.231914
0.0401544
0.23143
0.0454951
0.230938
0.0508662
0.230458
0.0562947
0.230007
0.0618033
0.229609
0.0674114
0.229291
0.0731352
0.229082
0.0789886
0.229019
0.084983
0.229144
0.0911279
0.229507
0.0974301
0.23017
0.103894
0.231207
0.110519
0.23271
0.117301
0.23479
0.124226
0.237583
0.131268
0.241254
0.138383
0.245995
0.145504
0.252026
0.152527
0.259589
0.159304
0.268929
0.165632
0.280223
0.17122
0.293568
0.175795
0.178843
0.30849
0.23962
0.00653956
0.239502
0.0126813
0.239334
0.0185321
0.239125
0.0241746
0.238884
0.0296714
0.238623
0.0350732
0.238355
0.0404229
0.238094
0.0457564
0.237856
0.0511037
0.237661
0.0564893
0.237532
0.0619332
0.237491
0.0674515
0.23757
0.0730569
0.2378
0.0787584
0.238221
0.0845622
0.238878
0.0904712
0.239823
0.0964842
0.241121
0.102596
0.242846
0.108795
0.245085
0.115063
0.247941
0.12137
0.251534
0.127675
0.256
0.133918
0.261487
0.140016
0.268153
0.145861
0.276149
0.151309
0.285593
0.156188
0.296533
0.16028
0.308957
0.163371
0.165192
0.322608
0.245448
0.00657034
0.24539
0.0127395
0.24531
0.018612
0.245217
0.0242681
0.245119
0.0297689
0.245029
0.0351632
0.24496
0.0404919
0.244928
0.0457891
0.244949
0.0510821
0.245045
0.0563932
0.245239
0.0617394
0.245557
0.0671334
0.24603
0.072584
0.246692
0.078096
0.247584
0.0836703
0.248752
0.0893036
0.250248
0.0949878
0.252134
0.10071
0.254481
0.106449
0.257366
0.112177
0.260881
0.117855
0.265123
0.123433
0.270197
0.128844
0.276209
0.134003
0.283261
0.138809
0.291432
0.143138
0.300771
0.146849
0.311266
0.149785
0.32285
0.151786
0.152721
0.335321
0.251418
0.00656933
0.251422
0.012736
0.251432
0.0186012
0.251458
0.0242428
0.251507
0.0297195
0.251592
0.0350783
0.251726
0.0403578
0.251926
0.0455897
0.252209
0.0507991
0.252596
0.0560055
0.253113
0.0612229
0.253785
0.066461
0.254645
0.0717246
0.255726
0.0770146
0.257069
0.0823271
0.258719
0.0876538
0.260726
0.092981
0.263146
0.0982892
0.266043
0.103552
0.269484
0.108736
0.273543
0.113796
0.278296
0.11868
0.283819
0.123321
0.29018
0.127642
0.297438
0.131552
0.305625
0.134951
0.314744
0.13773
0.324748
0.13978
0.33554
0.140994
0.141314
0.346947
0.257532
0.00653578
0.257599
0.0126693
0.257702
0.0184979
0.257849
0.0240964
0.258047
0.0295209
0.258309
0.0348162
0.258649
0.0400186
0.259081
0.0451573
0.259625
0.050255
0.260302
0.0553284
0.261136
0.0603887
0.262155
0.0654425
0.263388
0.0704914
0.26487
0.0755326
0.266638
0.0805584
0.268736
0.0855565
0.271208
0.0905091
0.274104
0.0953928
0.277479
0.100178
0.281387
0.104828
0.285885
0.109298
0.29103
0.113536
0.296869
0.117481
0.303444
0.121067
0.310779
0.124217
0.318876
0.126854
0.327707
0.128899
0.337209
0.130278
0.347277
0.130927
0.130823
0.357768
0.263794
0.00646922
0.263925
0.0125386
0.264122
0.0183009
0.264391
0.0238276
0.264739
0.0291721
0.265179
0.0343766
0.265723
0.0394748
0.266387
0.0444936
0.267189
0.0494531
0.268149
0.0543675
0.269293
0.0592454
0.270645
0.0640905
0.272234
0.0689017
0.274094
0.0736732
0.276258
0.0783944
0.278764
0.0830502
0.281653
0.0876203
0.284967
0.0920793
0.288748
0.0963964
0.29304
0.100535
0.297885
0.104453
0.303318
0.108102
0.309369
0.111431
0.316054
0.114381
0.323376
0.116896
0.331314
0.118915
0.339827
0.120386
0.348844
0.121261
0.358267
0.121504
0.121113
0.367976
0.270207
0.00636947
0.270402
0.0123435
0.270693
0.01801
0.271084
0.0234365
0.271583
0.0286735
0.272199
0.0337604
0.272945
0.0387286
0.273836
0.0436023
0.27489
0.0483994
0.276126
0.0531314
0.277567
0.0578048
0.279237
0.0624208
0.281162
0.0669761
0.283373
0.0714627
0.285899
0.0758682
0.288773
0.0801756
0.29203
0.0843637
0.295702
0.0884068
0.299824
0.0922747
0.304426
0.095933
0.309536
0.0993436
0.315173
0.102465
0.321351
0.105253
0.32807
0.107663
0.335315
0.10965
0.343057
0.111174
0.351245
0.112198
0.359809
0.112697
0.368662
0.112651
0.112074
0.377701
0.276774
0.00623663
0.277033
0.0120843
0.277417
0.0176256
0.27793
0.022924
0.278576
0.0280267
0.279366
0.0329705
0.280311
0.0377842
0.281424
0.0424895
0.282721
0.047102
0.284221
0.0516311
0.285945
0.0560813
0.287914
0.060452
0.290152
0.064738
0.292684
0.0689301
0.295538
0.0730146
0.298739
0.0769742
0.302315
0.0807876
0.306292
0.0844302
0.310693
0.0878739
0.315538
0.0910878
0.320843
0.0940387
0.326616
0.096692
0.332856
0.0990124
0.339553
0.100966
0.346683
0.10252
0.354208
0.103648
0.362077
0.104329
0.370226
0.104548
0.378575
0.104302
0.103608
0.38704
0.283498
0.00607109
0.283821
0.0117618
0.284297
0.0171491
0.284929
0.0222921
0.285721
0.0272348
0.28668
0.0320112
0.287817
0.0366474
0.289143
0.041163
0.290674
0.0455713
0.292425
0.04988
0.294415
0.0540918
0.296662
0.0582048
0.299187
0.0622126
0.302012
0.0661052
0.305158
0.0698689
0.308646
0.0734865
0.312495
0.076938
0.316725
0.0802005
0.32135
0.083249
0.326381
0.0860567
0.331824
0.0885959
0.337677
0.0908389
0.343931
0.0927585
0.350567
0.0943299
0.357556
0.0955315
0.364858
0.0963463
0.372423
0.0967633
0.380193
0.096779
0.388098
0.0963965
0.0956365
0.39607
0.290384
0.00587349
0.290768
0.0113773
0.291335
0.0165825
0.292083
0.0215439
0.293016
0.026302
0.294139
0.0308881
0.295461
0.0353257
0.296992
0.0396324
0.298743
0.0438194
0.30073
0.047893
0.302968
0.0518545
0.305471
0.055701
0.308258
0.0594257
0.311345
0.0630184
0.314748
0.0664657
0.318483
0.0697516
0.322564
0.0728577
0.327
0.0757636
0.331801
0.0784479
0.33697
0.0808883
0.342503
0.0830623
0.348394
0.0849486
0.354625
0.0865273
0.361173
0.0877813
0.368008
0.088697
0.375089
0.0892655
0.382369
0.0894832
0.389795
0.0893525
0.39731
0.0888817
0.0880921
0.404854
0.297435
0.00564469
0.297879
0.0109325
0.298533
0.0159285
0.299394
0.0206831
0.300463
0.0252334
0.301743
0.0296078
0.303241
0.0338277
0.304965
0.0379084
0.306925
0.0418596
0.309132
0.0456862
0.311598
0.0493886
0.314335
0.0529633
0.317358
0.0564035
0.320677
0.0596993
0.324304
0.0628382
0.32825
0.0658057
0.332522
0.0685855
0.337126
0.0711604
0.342061
0.0735122
0.347327
0.075623
0.352913
0.0774757
0.358808
0.0790542
0.36499
0.0803448
0.371435
0.0813367
0.378109
0.0820226
0.384976
0.0823992
0.391991
0.082468
0.399108
0.0822353
0.406277
0.0817122
0.0809192
0.41345
0.304654
0.00538575
0.305157
0.0104295
0.305895
0.0151904
0.306864
0.0197142
0.308062
0.024035
0.309492
0.0281782
0.311157
0.0321629
0.313063
0.0360027
0.315216
0.0397059
0.317626
0.0432762
0.320301
0.0467135
0.323251
0.050014
0.326483
0.0531712
0.330006
0.056176
0.333827
0.0590171
0.337951
0.0616818
0.342381
0.0641562
0.347115
0.0664258
0.352151
0.0684763
0.35748
0.0702938
0.363091
0.0718653
0.368965
0.0731798
0.375081
0.0742286
0.381412
0.0750055
0.387927
0.075508
0.394589
0.0757368
0.401361
0.0756968
0.408199
0.0753965
0.415064
0.074848
0.074071
0.421912
0.312046
0.00509789
0.312605
0.00987071
0.313424
0.0143717
0.314495
0.0186424
0.315817
0.0227132
0.317388
0.0266073
0.319209
0.0303415
0.321285
0.0339276
0.323618
0.0373727
0.326214
0.0406799
0.329079
0.0438484
0.332218
0.0468748
0.335637
0.049753
0.339338
0.0524748
0.343324
0.0550304
0.347597
0.0574091
0.352154
0.0595994
0.35699
0.0615897
0.362098
0.0633687
0.367465
0.0649263
0.373077
0.0662533
0.378914
0.0673427
0.384953
0.0681894
0.391168
0.0687913
0.397527
0.0691488
0.403998
0.0692656
0.410546
0.0691485
0.417136
0.0688071
0.42373
0.068254
0.0675071
0.430293
0.319615
0.00478244
0.320227
0.00925874
0.321122
0.0134765
0.322292
0.0174728
0.32373
0.0212751
0.325433
0.0249038
0.327401
0.0283738
0.329633
0.0316954
0.332131
0.0348745
0.334898
0.0379136
0.337934
0.0408119
0.341243
0.0435662
0.344825
0.046171
0.34868
0.0486194
0.352808
0.050903
0.357204
0.0530131
0.361863
0.0549405
0.366776
0.0566761
0.371933
0.0582118
0.377319
0.0595401
0.382917
0.0606554
0.388706
0.0615535
0.394663
0.0622326
0.400762
0.0626929
0.406973
0.0629373
0.413268
0.0629712
0.419614
0.0628022
0.42598
0.0624406
0.432336
0.0618984
0.0611921
0.438651
0.327365
0.00444075
0.328027
0.00859626
0.328995
0.0125087
0.330257
0.0162111
0.331804
0.0197277
0.333632
0.0230764
0.335735
0.0262703
0.338112
0.0293181
0.340762
0.032225
0.343683
0.034993
0.346873
0.0376212
0.350333
0.0401068
0.354058
0.0424452
0.358047
0.0446306
0.362294
0.0466562
0.366792
0.0485149
0.371533
0.0501998
0.376505
0.0517042
0.381694
0.0530223
0.387085