/*--------------------------------*- C++ -*----------------------------------*\
  =========                 |
  \\      /  F ield         | OpenFOAM: The Open Source CFD Toolbox
   \\    /   O peration     | Website:  https://openfoam.org
    \\  /    A nd           | Version:  dev
     \\/     M anipulation  |
\*---------------------------------------------------------------------------*/
FoamFile
{
    version     2.0;
    format      ascii;
    class       volVectorField;
    location    "6.9";
    object      U;
}
// * * * * * * * * * * * * * * * * * * * * * * * * * * * * * * * * * * * * * //

dimensions      [0 1 -1 0 0 0 0];

internalField   nonuniform List<vector> 
2790
(
(9.94399 0 0.0205231)
(9.87572 0 0.0295875)
(9.77521 0 0.0359893)
(9.64944 0 0.0425559)
(9.50409 0 0.0493852)
(9.34007 0 0.0564281)
(9.15655 0 0.0638158)
(8.95263 0 0.0717116)
(8.72747 0 0.0802555)
(8.48009 0 0.0895741)
(8.20928 0 0.0997945)
(7.91365 0 0.111047)
(7.59169 0 0.123462)
(7.24178 0 0.137168)
(6.86232 0 0.152276)
(6.45178 0 0.168875)
(6.00886 0 0.187003)
(5.53266 0 0.206626)
(5.02294 0 0.227598)
(4.48041 0 0.249619)
(3.90711 0 0.272184)
(3.30678 0 0.294532)
(2.68523 0 0.315626)
(2.05057 0 0.334294)
(1.41175 0 0.35061)
(0.797993 0 0.372888)
(0.110647 0 0.325037)
(-0.469566 0 -0.114872)
(-0.453785 0 -0.297144)
(-0.231164 0 -0.423855)
(9.9985 0 0.0407028)
(9.98145 0 0.0623824)
(9.93575 0 0.0791395)
(9.86417 0 0.096624)
(9.77098 0 0.115123)
(9.65716 0 0.134487)
(9.52206 0 0.154974)
(9.36486 0 0.176943)
(9.18473 0 0.200708)
(8.98068 0 0.226551)
(8.75154 0 0.254746)
(8.49589 0 0.285564)
(8.21221 0 0.319254)
(7.89883 0 0.356029)
(7.55404 0 0.396028)
(7.17619 0 0.439273)
(6.76377 0 0.485605)
(6.31564 0 0.5346)
(5.83123 0 0.585476)
(5.31085 0 0.636968)
(4.75612 0 0.687217)
(4.17037 0 0.733659)
(3.55926 0 0.772963)
(2.93151 0 0.8011)
(2.29991 0 0.813753)
(1.69292 0 0.807255)
(1.10712 0 0.747245)
(0.658874 0 0.547919)
(0.186412 0 0.224594)
(-0.00819882 0 -0.45374)
(9.99559 0 0.0432066)
(9.97556 0 0.0752709)
(9.9318 0 0.103345)
(9.8649 0 0.13237)
(9.77778 0 0.163058)
(9.67155 0 0.195397)
(9.54588 0 0.229741)
(9.40014 0 0.266602)
(9.23366 0 0.30647)
(9.04565 0 0.349808)
(8.8351 0 0.397074)
(8.60082 0 0.448726)
(8.34146 0 0.505198)
(8.05551 0 0.566872)
(7.74138 0 0.634021)
(7.39744 0 0.706744)
(7.0221 0 0.784852)
(6.61394 0 0.86774)
(6.17192 0 0.954211)
(5.69561 0 1.04227)
(5.1856 0 1.1289)
(4.64393 0 1.2098)
(4.07476 0 1.27917)
(3.48534 0 1.32934)
(2.88681 0 1.35009)
(2.29943 0 1.32643)
(1.73182 0 1.22077)
(1.21623 0 0.972993)
(0.701129 0 0.570131)
(0.358031 0 -0.156584)
(9.99403 0 0.0494987)
(9.97181 0 0.0932052)
(9.92788 0 0.133571)
(9.86225 0 0.174207)
(9.77694 0 0.216431)
(9.67299 0 0.260659)
(9.55032 0 0.307428)
(9.4085 0 0.357414)
(9.24703 0 0.41129)
(9.06534 0 0.469706)
(8.86269 0 0.533305)
(8.6382 0 0.602728)
(8.39085 0 0.678599)
(8.11952 0 0.761484)
(7.823 0 0.851832)
(7.50001 0 0.949889)
(7.14924 0 1.05556)
(6.76943 0 1.16826)
(6.35948 0 1.28662)
(5.91858 0 1.40828)
(5.4465 0 1.52949)
(4.94397 0 1.6447)
(4.41313 0 1.74615)
(3.85823 0 1.82323)
(3.28578 0 1.86137)
(2.70637 0 1.84032)
(2.12562 0 1.72599)
(1.55424 0 1.47785)
(0.957934 0 1.08367)
(0.50942 0 0.502299)
(9.99331 0 0.0572129)
(9.96994 0 0.110958)
(9.92593 0 0.162102)
(9.86146 0 0.213345)
(9.77799 0 0.266354)
(9.67635 0 0.321912)
(9.55655 0 0.3807)
(9.41822 0 0.443487)
(9.26098 0 0.511056)
(9.08434 0 0.584171)
(8.88771 0 0.66359)
(8.67039 0 0.750068)
(8.4316 0 0.844342)
(8.17046 0 0.947094)
(7.88608 0 1.05889)
(7.57748 0 1.18009)
(7.24366 0 1.3107)
(6.88359 0 1.4502)
(6.49627 0 1.59724)
(6.08071 0 1.74935)
(5.63613 0 1.90243)
(5.16208 0 2.05033)
(4.65873 0 2.18419)
(4.12717 0 2.29175)
(3.56936 0 2.35656)
(2.98885 0 2.35731)
(2.3868 0 2.26494)
(1.76636 0 2.04762)
(1.08997 0 1.69137)
(0.536644 0 1.15411)
(9.99302 0 0.0655378)
(9.96923 0 0.1287)
(9.92556 0 0.190111)
(9.86253 0 0.25184)
(9.78129 0 0.315575)
(9.68245 0 0.382316)
(9.56602 0 0.452872)
(9.43172 0 0.528099)
(9.27921 0 0.608879)
(9.10807 0 0.696085)
(8.91778 0 0.790581)
(8.70775 0 0.893229)
(8.47729 0 1.00486)
(8.22568 0 1.12627)
(7.95215 0 1.2581)
(7.65589 0 1.40083)
(7.33602 0 1.55456)
(6.99163 0 1.71889)
(6.62167 0 1.89258)
(6.22498 0 2.07325)
(5.80025 0 2.25687)
(5.346 0 2.43722)
(4.86066 0 2.60521)
(4.34265 0 2.74823)
(3.79034 0 2.84954)
(3.20252 0 2.88818)
(2.57652 0 2.8382)
(1.91343 0 2.67158)
(1.17272 0 2.37395)
(0.549956 0 1.89435)
(9.99297 0 0.0740738)
(9.96927 0 0.146312)
(9.92637 0 0.21748)
(9.86509 0 0.289288)
(9.78643 0 0.363351)
(9.69085 0 0.440823)
(9.57835 0 0.522657)
(9.44872 0 0.609808)
(9.30166 0 0.703253)
(9.13679 0 0.803965)
(8.95366 0 0.912902)
(8.75171 0 1.03102)
(8.53035 0 1.15923)
(8.28888 0 1.29841)
(8.02659 0 1.44931)
(7.74269 0 1.6125)
(7.43629 0 1.78821)
(7.10639 0 1.97619)
(6.75179 0 2.17543)
(6.37098 0 2.38385)
(5.96207 0 2.59777)
(5.5226 0 2.81141)
(5.04948 0 3.01617)
(4.53895 0 3.19998)
(3.9866 0 3.34668)
(3.38785 0 3.43595)
(2.73719 0 3.44328)
(2.03619 0 3.34145)
(1.24171 0 3.11351)
(0.563498 0 2.69308)
(9.99306 0 0.0825868)
(9.96981 0 0.163604)
(9.92807 0 0.244046)
(9.86885 0 0.325475)
(9.79313 0 0.409441)
(9.70126 0 0.497201)
(9.59324 0 0.589834)
(9.46889 0 0.688392)
(9.32797 0 0.793937)
(9.17016 0 0.907529)
(8.99504 0 1.03022)
(8.80212 0 1.16304)
(8.59083 0 1.30702)
(8.36052 0 1.4631)
(8.11046 0 1.63217)
(7.83981 0 1.81489)
(7.54761 0 2.01169)
(7.23266 0 2.22254)
(6.89349 0 2.44677)
(6.52814 0 2.68273)
(6.13405 0 2.92739)
(5.70781 0 3.1758)
(5.24491 0 3.42039)
(4.73971 0 3.65021)
(4.1854 0 3.85024)
(3.57468 0 4.00087)
(2.89944 0 4.07786)
(2.16204 0 4.05232)
(1.31607 0 3.90161)
(0.583196 0 3.54005)
(9.99326 0 0.0909268)
(9.97072 0 0.180406)
(9.93046 0 0.269663)
(9.87362 0 0.360236)
(9.80118 0 0.453641)
(9.71344 0 0.551203)
(9.61039 0 0.654106)
(9.49189 0 0.763491)
(9.35777 0 0.880501)
(9.20775 0 1.00628)
(9.04147 0 1.14196)
(8.85849 0 1.28867)
(8.65829 0 1.44753)
(8.44023 0 1.6196)
(8.20359 0 1.80588)
(7.94747 0 2.00723)
(7.67079 0 2.22428)
(7.37216 0 2.45731)
(7.04978 0 2.70609)
(6.70125 0 2.96961)
(6.32331 0 3.24571)
(5.9116 0 3.53058)
(5.4603 0 3.8181)
(4.96193 0 4.09901)
(4.40731 0 4.35987)
(3.78629 0 4.58208)
(3.08745 0 4.74103)
(2.3126 0 4.80437)
(1.41057 0 4.74097)
(0.614273 0 4.44178)
(9.99352 0 0.0989904)
(9.97191 0 0.196575)
(9.93341 0 0.29419)
(9.87925 0 0.39341)
(9.81041 0 0.495748)
(9.72718 0 0.602581)
(9.62954 0 0.715175)
(9.51743 0 0.834755)
(9.3907 0 0.962539)
(9.24915 0 1.09974)
(9.09247 0 1.24759)
(8.9203 0 1.4073)
(8.73215 0 1.58007)
(8.52744 0 1.76712)
(8.30545 0 1.96958)
(8.06527 0 2.18851)
(7.80573 0 2.42483)
(7.5253 0 2.67921)
(7.2219 0 2.95197)
(6.89274 0 3.24287)
(6.53399 0 3.55085)
(6.14042 0 3.87355)
(5.70497 0 4.20676)
(5.21838 0 4.54343)
(4.66886 0 4.87245)
(4.04272 0 5.17695)
(3.32353 0 5.43225)
(2.50961 0 5.60186)
(1.54175 0 5.64333)
(0.664001 0 5.41784)
(9.99384 0 0.106702)
(9.9733 0 0.211996)
(9.9368 0 0.317496)
(9.88558 0 0.424848)
(9.82064 0 0.53558)
(9.74226 0 0.651111)
(9.65046 0 0.772778)
(9.54519 0 0.901876)
(9.4264 0 1.03969)
(9.29392 0 1.18751)
(9.14755 0 1.34663)
(8.98697 0 1.51835)
(8.81177 0 1.704)
(8.62146 0 1.90488)
(8.41534 0 2.12233)
(8.19254 0 2.35763)
(7.95189 0 2.612)
(7.69179 0 2.88659)
(7.41004 0 3.18234)
(7.10362 0 3.49993)
(6.76831 0 3.83955)
(6.39827 0 4.20062)
(5.98546 0 4.58126)
(5.51895 0 4.97739)
(4.98421 0 5.38136)
(4.36306 0 5.77956)
(3.63167 0 6.14908)
(2.77989 0 6.45053)
(1.73327 0 6.62829)
(0.744743 0 6.5028)
(9.9942 0 0.114004)
(9.97487 0 0.22657)
(9.94056 0 0.339466)
(9.89252 0 0.454415)
(9.83174 0 0.572973)
(9.75852 0 0.696598)
(9.6729 0 0.826682)
(9.5749 0 0.964582)
(9.4645 0 1.11164)
(9.34164 0 1.26921)
(9.20618 0 1.43864)
(9.05789 0 1.62134)
(8.89647 0 1.81869)
(8.7215 0 2.03217)
(8.5324 0 2.26325)
(8.32839 0 2.51347)
(8.10837 0 2.78439)
(7.87082 0 3.07762)
(7.61361 0 3.39479)
(7.33371 0 3.73757)
(7.02688 0 4.10755)
(6.68707 0 4.50613)
(6.30577 0 4.93422)
(5.87092 0 5.39155)
(5.36555 0 5.87543)
(4.76661 0 6.37827)
(4.04038 0 6.88318)
(3.16111 0 7.35334)
(2.02445 0 7.72289)
(0.880579 0 7.75665)
(9.99459 0 0.120851)
(9.97657 0 0.240219)
(9.94462 0 0.36)
(9.89996 0 0.481991)
(9.84357 0 0.607784)
(9.77577 0 0.738869)
(9.69664 0 0.876684)
(9.60625 0 1.02263)
(9.50466 0 1.17811)
(9.39187 0 1.3445)
(9.26784 0 1.52324)
(9.13245 0 1.71578)
(8.98551 0 1.92361)
(8.82672 0 2.1483)
(8.65566 0 2.3915)
(8.47171 0 2.65496)
(8.27395 0 2.94057)
(8.0611 0 3.25041)
(7.83127 0 3.58676)
(7.58177 0 3.95227)
(7.30874 0 4.34995)
(7.00656 0 4.78329)
(6.66707 0 5.25625)
(6.27827 0 5.7731)
(5.82216 0 6.33783)
(5.27209 0 6.9525)
(4.58405 0 7.61363)
(3.70942 0 8.30075)
(2.48768 0 8.95781)
(1.12419 0 9.29251)
(9.99501 0 0.127208)
(9.97838 0 0.252878)
(9.94891 0 0.379012)
(9.9078 0 0.507475)
(9.85599 0 0.639894)
(9.79383 0 0.777787)
(9.72144 0 0.922622)
(9.63895 0 1.07584)
(9.54649 0 1.23888)
(9.44416 0 1.41316)
(9.33199 0 1.60015)
(9.20998 0 1.80135)
(9.0781 0 2.01834)
(8.93619 0 2.25276)
(8.78402 0 2.50641)
(8.62121 0 2.78121)
(8.44712 0 3.07934)
(8.26084 0 3.40326)
(8.06096 0 3.75586)
(7.84544 0 4.14062)
(7.61126 0 4.56183)
(7.35398 0 5.02488)
(7.06698 0 5.53674)
(6.74016 0 6.10637)
(6.35756 0 6.74548)
(5.89356 0 7.46912)
(5.3001 0 8.29642)
(4.50803 0 9.24786)
(3.26795 0 10.3413)
(1.60444 0 11.3579)
(9.99545 0 0.133047)
(9.98027 0 0.264497)
(9.95339 0 0.396432)
(9.91596 0 0.530776)
(9.86889 0 0.669184)
(9.81254 0 0.813195)
(9.74709 0 0.964303)
(9.67273 0 1.12397)
(9.58966 0 1.29366)
(9.49805 0 1.47482)
(9.39806 0 1.66894)
(9.28982 0 1.87756)
(9.17342 0 2.10229)
(9.04891 0 2.34485)
(8.91629 0 2.60711)
(8.77544 0 2.89115)
(8.62612 0 3.19932)
(8.46787 0 3.53439)
(8.29997 0 3.89965)
(8.12129 0 4.2992)
(7.93011 0 4.73827)
(7.72387 0 5.22368)
(7.49872 0 5.76468)
(7.24878 0 6.37407)
(6.96453 0 7.07028)
(6.63042 0 7.88112)
(6.21365 0 8.852)
(5.66475 0 10.0658)
(4.68873 0 11.7305)
(2.68627 0 14.5898)
(0.119479 0 -0.118474)
(0.279862 0 -0.106595)
(0.441813 0 -0.0824686)
(0.574779 0 -0.059301)
(0.673513 0 -0.0398877)
(0.742361 0 -0.0243664)
(0.787235 0 -0.0123071)
(0.813361 0 -0.0032141)
(0.82512 0 0.00336701)
(0.826219 0 0.0077018)
(0.819937 0 0.0100487)
(0.808846 0 0.0110104)
(0.795186 0 0.0111069)
(0.780654 0 0.0105911)
(0.766483 0 0.0096942)
(0.753484 0 0.00861507)
(0.742115 0 0.00750251)
(0.73255 0 0.00646451)
(0.724751 0 0.00555542)
(0.718463 0 0.00485621)
(0.713292 0 0.00435401)
(0.708872 0 0.00401104)
(0.704884 0 0.00379271)
(0.701028 0 0.00369533)
(0.696935 0 0.00374197)
(0.692115 0 0.00392725)
(0.686051 0 0.00416634)
(0.678438 0 0.00435111)
(0.669517 0 0.00426318)
(0.658842 0 0.00327767)
(0.103094 0 -0.279086)
(0.260664 0 -0.259459)
(0.413457 0 -0.20809)
(0.542333 0 -0.157258)
(0.643432 0 -0.114156)
(0.72068 0 -0.0793772)
(0.779057 0 -0.0520935)
(0.822865 0 -0.0312537)
(0.855542 0 -0.0158067)
(0.879779 0 -0.00484121)
(0.897529 0 0.00247282)
(0.910754 0 0.00697571)
(0.920605 0 0.00918)
(0.928594 0 0.00973151)
(0.935922 0 0.00914737)
(0.943339 0 0.00786291)
(0.951212 0 0.0062624)
(0.959562 0 0.0046495)
(0.968389 0 0.00328935)
(0.977677 0 0.0022057)
(0.987181 0 0.00143541)
(0.996695 0 0.000948352)
(1.00608 0 0.000700691)
(1.01521 0 0.000727653)
(1.02388 0 0.00115277)
(1.03175 0 0.0020844)
(1.03828 0 0.00339147)
(1.043 0 0.00461723)
(1.04612 0 0.00521993)
(1.049 0 0.0044645)
(0.0825588 0 -0.442303)
(0.219632 0 -0.411085)
(0.343122 0 -0.332639)
(0.447293 0 -0.255443)
(0.528932 0 -0.190203)
(0.591886 0 -0.137637)
(0.640153 0 -0.0965272)
(0.677146 0 -0.0652675)
(0.705689 0 -0.0421419)
(0.728054 0 -0.0254803)
(0.746042 0 -0.0139023)
(0.760901 0 -0.00643196)
(0.774034 0 -0.00227948)
(0.785894 0 -0.000533909)
(0.79679 0 -0.000454039)
(0.807042 0 -0.00142159)
(0.816959 0 -0.00288435)
(0.82683 0 -0.00439242)
(0.836686 0 -0.0055793)
(0.846358 0 -0.00638594)
(0.855793 0 -0.00679186)
(0.864963 0 -0.00689052)
(0.873949 0 -0.00679472)
(0.882913 0 -0.00646004)
(0.891981 0 -0.0056822)
(0.9011 0 -0.00426171)
(0.910102 0 -0.00232423)
(0.918892 0 -0.00039742)
(0.927005 0 0.00107364)
(0.934939 0 0.00169997)
(0.0626161 0 -0.573154)
(0.173155 0 -0.525534)
(0.260307 0 -0.422976)
(0.334906 0 -0.324982)
(0.392085 0 -0.243148)
(0.436288 0 -0.177499)
(0.470254 0 -0.126363)
(0.496339 0 -0.0876295)
(0.516602 0 -0.059005)
(0.532634 0 -0.0383345)
(0.545552 0 -0.0240103)
(0.55617 0 -0.0148973)
(0.565253 0 -0.00965026)
(0.573328 0 -0.00714204)
(0.580619 0 -0.00647426)
(0.587218 0 -0.00694341)
(0.593147 0 -0.00796156)
(0.598358 0 -0.00910446)
(0.602806 0 -0.0100394)
(0.606452 0 -0.0105122)
(0.609273 0 -0.0105571)
(0.611318 0 -0.010304)
(0.612768 0 -0.00993637)
(0.613947 0 -0.00946922)
(0.615152 0 -0.00863505)
(0.616542 0 -0.00711107)
(0.618032 0 -0.00522836)
(0.619199 0 -0.00363722)
(0.619753 0 -0.00253309)
(0.619668 0 -0.000976201)
(0.0418683 0 -0.673093)
(0.120269 0 -0.60457)
(0.165288 0 -0.481637)
(0.207851 0 -0.369468)
(0.237428 0 -0.277009)
(0.26041 0 -0.203194)
(0.277768 0 -0.146003)
(0.290758 0 -0.102939)
(0.300607 0 -0.0712116)
(0.308192 0 -0.0481553)
(0.313854 0 -0.0320034)
(0.317686 0 -0.0215661)
(0.320106 0 -0.0151177)
(0.32136 0 -0.0114747)
(0.321422 0 -0.00991181)
(0.320177 0 -0.00973425)
(0.317586 0 -0.00990317)
(0.313523 0 -0.0101231)
(0.308097 0 -0.0101345)
(0.301439 0 -0.00983967)
(0.293605 0 -0.00944502)
(0.284676 0 -0.00921249)
(0.274787 0 -0.00906489)
(0.264274 0 -0.00886808)
(0.253557 0 -0.00838779)
(0.24304 0 -0.00698929)
(0.233423 0 -0.00403315)
(0.220202 0 -0.000475562)
(0.204525 0 0.00180167)
(0.187383 0 0.00287071)
(0.0196202 0 -0.73648)
(0.0601879 0 -0.643492)
(0.0587601 0 -0.504238)
(0.0670724 0 -0.3845)
(0.0659615 0 -0.286556)
(0.0649137 0 -0.208846)
(0.0626112 0 -0.149128)
(0.0594677 0 -0.104589)
(0.0558568 0 -0.0720873)
(0.0519852 0 -0.0481779)
(0.0475057 0 -0.0309751)
(0.0413725 0 -0.0202642)
(0.0334959 0 -0.0142969)
(0.0239631 0 -0.010173)
(0.0124179 0 -0.0071889)
(-0.00187902 0 -0.00519948)
(-0.0176056 0 -0.00430532)
(-0.0347409 0 -0.00385868)
(-0.0532779 0 -0.0030788)
(-0.0738023 0 -0.00138903)
(-0.096994 0 0.000995546)
(-0.122705 0 0.00304422)
(-0.149552 0 0.0040886)
(-0.175798 0 0.00421885)
(-0.20038 0 0.00408842)
(-0.222797 0 0.00485229)
(-0.240401 0 0.00746487)
(-0.25022 0 0.010356)
(-0.259781 0 0.0111201)
(-0.268527 0 0.00903739)
(-0.00578284 0 -0.755897)
(-0.00899476 0 -0.635964)
(-0.058313 0 -0.486076)
(-0.0886695 0 -0.365816)
(-0.123346 0 -0.268618)
(-0.153186 0 -0.193021)
(-0.180125 0 -0.136216)
(-0.204513 0 -0.0948962)
(-0.226944 0 -0.0652418)
(-0.247681 0 -0.0424094)
(-0.267664 0 -0.022977)
(-0.29248 0 -0.00755377)
(-0.324719 0 0.00200831)
(-0.355314 0 0.00705559)
(-0.384245 0 0.0101911)
(-0.411306 0 0.0121726)
(-0.437587 0 0.0130268)
(-0.463079 0 0.0136135)
(-0.487153 0 0.0146244)
(-0.509027 0 0.0163246)
(-0.52867 0 0.018255)
(-0.547011 0 0.0194771)
(-0.565105 0 0.0192595)
(-0.582981 0 0.0176877)
(-0.599837 0 0.0154289)
(-0.614802 0 0.0133728)
(-0.627201 0 0.012439)
(-0.636737 0 0.0127915)
(-0.644444 0 0.012846)
(-0.649503 0 0.0115052)
(-0.0375585 0 -0.723051)
(-0.0892465 0 -0.579294)
(-0.185678 0 -0.428724)
(-0.261014 0 -0.313091)
(-0.333418 0 -0.222442)
(-0.397632 0 -0.153044)
(-0.455331 0 -0.10074)
(-0.508358 0 -0.0612972)
(-0.558516 0 -0.0314997)
(-0.606734 0 -0.00922279)
(-0.648201 0 0.00727429)
(-0.678237 0 0.018733)
(-0.701134 0 0.025404)
(-0.723526 0 0.0285779)
(-0.745425 0 0.0298058)
(-0.767097 0 0.02989)
(-0.788481 0 0.0291752)
(-0.80943 0 0.0279956)
(-0.829697 0 0.0269841)
(-0.848947 0 0.026718)
(-0.866977 0 0.0272263)
(-0.883949 0 0.0277765)
(-0.900197 0 0.0273728)
(-0.915719 0 0.0255816)
(-0.930069 0 0.0228245)
(-0.94268 0 0.0200834)
(-0.95316 0 0.0182788)
(-0.961517 0 0.0174693)
(-0.967995 0 0.016585)
(-0.971517 0 0.0152658)
(-0.0761538 0 -0.635278)
(-0.178041 0 -0.472409)
(-0.327032 0 -0.326402)
(-0.451189 0 -0.220415)
(-0.564017 0 -0.141838)
(-0.661573 0 -0.0831473)
(-0.744809 0 -0.0400783)
(-0.815314 0 -0.00969581)
(-0.870103 0 0.010021)
(-0.911284 0 0.0224195)
(-0.94403 0 0.0303847)
(-0.972382 0 0.0359676)
(-0.997079 0 0.0399157)
(-1.01943 0 0.0422481)
(-1.04042 0 0.0431769)
(-1.0607 0 0.0430702)
(-1.08049 0 0.0421249)
(-1.09975 0 0.0406394)
(-1.1183 0 0.0391771)
(-1.136 0 0.0382911)
(-1.15284 0 0.038034)
(-1.16896 0 0.0377552)
(-1.18442 0 0.0364965)
(-1.19896 0 0.0337123)
(-1.212 0 0.0297376)
(-1.22302 0 0.0256565)
(-1.23192 0 0.0225753)
(-1.23904 0 0.0207242)
(-1.24452 0 0.0193982)
(-1.24725 0 0.0183382)
(-0.125587 0 -0.488768)
(-0.282404 0 -0.315655)
(-0.485103 0 -0.184671)
(-0.65455 0 -0.0948757)
(-0.800564 0 -0.0335419)
(-0.914261 0 0.00341584)
(-1.00029 0 0.0254894)
(-1.06451 0 0.0384107)
(-1.11573 0 0.0463338)
(-1.15792 0 0.051562)
(-1.19325 0 0.0550566)
(-1.2232 0 0.0571001)
(-1.24888 0 0.0579911)
(-1.27148 0 0.0580846)
(-1.29218 0 0.0576225)
(-1.31186 0 0.0565999)
(-1.33086 0 0.0548578)
(-1.34905 0 0.0525123)
(-1.36624 0 0.0501482)
(-1.38247 0 0.048451)
(-1.39806 0 0.0475638)
(-1.41334 0 0.0467887)
(-1.42832 0 0.0449744)
(-1.44241 0 0.0413425)
(-1.4547 0 0.0361573)
(-1.46456 0 0.0306856)
(-1.47208 0 0.0263255)
(-1.47799 0 0.0235581)
(-1.48253 0 0.0219068)
(-1.48468 0 0.0210239)
(-0.197434 0 -0.287139)
(-0.432466 0 -0.0996361)
(-0.690561 0 0.0189624)
(-0.875931 0 0.0667763)
(-1.01608 0 0.083352)
(-1.12491 0 0.0884479)
(-1.21036 0 0.0889727)
(-1.27788 0 0.0874601)
(-1.33172 0 0.0850872)
(-1.37529 0 0.0826057)
(-1.41129 0 0.0803411)
(-1.44151 0 0.0780541)
(-1.46709 0 0.075607)
(-1.48917 0 0.0733032)
(-1.50913 0 0.0713819)
(-1.52808 0 0.0695126)
(-1.54638 0 0.0670452)
(-1.56368 0 0.0637913)
(-1.5796 0 0.0604052)
(-1.59431 0 0.0578645)
(-1.60854 0 0.0564946)
(-1.623 0 0.0554729)
(-1.63773 0 0.0532818)
(-1.65177 0 0.0487799)
(-1.66371 0 0.0421663)
(-1.6726 0 0.0350542)
(-1.67879 0 0.0293513)
(-1.68341 0 0.0258383)
(-1.68699 0 0.0240327)
(-1.68867 0 0.0233084)
(-0.296597 0 0.0820598)
(-0.576702 0 0.2139)
(-0.85206 0 0.229356)
(-1.05134 0 0.21824)
(-1.20302 0 0.197289)
(-1.31794 0 0.174922)
(-1.40551 0 0.154953)
(-1.4732 0 0.138141)
(-1.52613 0 0.124295)
(-1.56827 0 0.113557)
(-1.60288 0 0.105507)
(-1.63195 0 0.0988758)
(-1.65633 0 0.0928735)
(-1.67695 0 0.0879048)
(-1.69542 0 0.084458)
(-1.71328 0 0.0818784)
(-1.73088 0 0.0787701)
(-1.74741 0 0.0744597)
(-1.76204 0 0.0697815)
(-1.77502 0 0.0662937)
(-1.78767 0 0.0646661)
(-1.8013 0 0.0638304)
(-1.81606 0 0.0616231)
(-1.83051 0 0.0563096)
(-1.84245 0 0.0479838)
(-1.85047 0 0.0388253)
(-1.85514 0 0.031597)
(-1.85825 0 0.0274889)
(-1.86081 0 0.0257257)
(-1.86205 0 0.025159)
(-0.367454 0 0.516325)
(-0.707161 0 0.544707)
(-1.03132 0 0.466679)
(-1.24667 0 0.386182)
(-1.40007 0 0.318199)
(-1.51053 0 0.261634)
(-1.5919 0 0.218487)
(-1.65392 0 0.186207)
(-1.70177 0 0.160995)
(-1.73923 0 0.142155)
(-1.77019 0 0.128921)
(-1.79684 0 0.118489)
(-1.81914 0 0.108871)
(-1.83731 0 0.100941)
(-1.85337 0 0.0960756)
(-1.86969 0 0.0933164)
(-1.88669 0 0.0899879)
(-1.9027 0 0.0845441)
(-1.916 0 0.0781628)
(-1.92684 0 0.0735002)
(-1.93746 0 0.0718969)
(-1.95014 0 0.071874)
(-1.96527 0 0.0701989)
(-1.98071 0 0.0641966)
(-1.9931 0 0.0537666)
(-2.00023 0 0.0419442)
(-2.00295 0 0.0328752)
(-2.00416 0 0.028374)
(-2.00557 0 0.0269708)
(-2.00644 0 0.026594)
(-0.490594 0 1.0358)
(-0.922446 0 0.950333)
(-1.28246 0 0.728761)
(-1.48217 0 0.54986)
(-1.6148 0 0.429995)
(-1.70667 0 0.336181)
(-1.77091 0 0.271922)
(-1.8205 0 0.228833)
(-1.85933 0 0.194042)
(-1.88888 0 0.166866)
(-1.91389 0 0.149148)
(-1.93722 0 0.136069)
(-1.95702 0 0.123055)
(-1.97169 0 0.11189)
(-1.98399 0 0.106004)
(-1.99812 0 0.104236)
(-2.01485 0 0.10154)
(-2.0309 0 0.0947816)
(-2.04284 0 0.0858013)
(-2.05083 0 0.0793344)
(-2.0586 0 0.0780209)
(-2.07009 0 0.0796837)
(-2.08603 0 0.0793259)
(-2.10329 0 0.0728246)
(-2.11672 0 0.0597216)
(-2.12284 0 0.0442771)
(-2.12288 0 0.0328304)
(-2.1215 0 0.028258)
(-2.12165 0 0.0277929)
(-2.12225 0 0.0277089)
(-0.726344 0 2.05625)
(-1.26276 0 1.62474)
(-1.64677 0 1.02332)
(-1.77583 0 0.635104)
(-1.84966 0 0.501044)
(-1.90561 0 0.391047)
(-1.93756 0 0.316165)
(-1.96885 0 0.267269)
(-1.99842 0 0.219129)
(-2.01775 0 0.179558)
(-2.0335 0 0.160988)
(-2.05261 0 0.151025)
(-2.07008 0 0.13661)
(-2.08014 0 0.12104)
(-2.08667 0 0.113251)
(-2.09775 0 0.113588)
(-2.11507 0 0.112509)
(-2.1324 0 0.104017)
(-2.14309 0 0.0910468)
(-2.14693 0 0.0819544)
(-2.15036 0 0.0816818)
(-2.16008 0 0.0867716)
(-2.17743 0 0.0891807)
(-2.19767 0 0.0826357)
(-2.213 0 0.0661207)
(-2.21787 0 0.0455947)
(-2.21396 0 0.0308522)
(-2.20886 0 0.0267385)
(-2.20762 0 0.0282901)
(-2.20819 0 0.0287796)
(9.9959 0 0.138442)
(9.98225 0 0.275231)
(9.95811 0 0.412513)
(9.92454 0 0.552258)
(9.88243 0 0.696143)
(9.83217 0 0.84572)
(9.774 0 1.00249)
(9.70817 0 1.16795)
(9.63495 0 1.34353)
(9.55461 0 1.53072)
(9.46743 0 1.73101)
(9.37368 0 1.94594)
(9.27361 0 2.17714)
(9.16748 0 2.42635)
(9.05554 0 2.6955)
(8.93802 0 2.98671)
(8.8151 0 3.30243)
(8.68692 0 3.64557)
(8.55355 0 4.01963)
(8.41498 0 4.42899)
(8.27115 0 4.8793)
(8.12192 0 5.37801)
(7.96725 0 5.93531)
(7.80739 0 6.56553)
(7.64353 0 7.28977)
(7.48062 0 8.14059)
(7.33185 0 9.17196)
(7.28716 0 10.4774)
(7.74391 0 12.2016)
(7.92285 0 14.9196)
(9.99638 0 0.143401)
(9.98434 0 0.285085)
(9.96306 0 0.42724)
(9.93352 0 0.571867)
(9.89657 0 0.720656)
(9.85263 0 0.875165)
(9.80198 0 1.0369)
(9.74494 0 1.20735)
(9.68186 0 1.38795)
(9.61312 0 1.58017)
(9.53911 0 1.78549)
(9.46023 0 2.00544)
(9.37693 0 2.24162)
(9.28969 0 2.49577)
(9.19903 0 2.76977)
(9.10552 0 3.06574)
(9.00982 0 3.3861)
(8.91268 0 3.73371)
(8.81501 0 4.11202)
(8.71799 0 4.52528)
(8.62322 0 4.97893)
(8.53306 0 5.47998)
(8.45123 0 6.03777)
(8.38396 0 6.6649)
(8.34244 0 7.37858)
(8.34868 0 8.20224)
(8.4415 0 9.16606)
(8.67672 0 10.3033)
(9.32301 0 11.559)
(9.81199 0 12.6494)
(9.99688 0 0.147838)
(9.98651 0 0.293895)
(9.96819 0 0.440389)
(9.94283 0 0.589335)
(9.91122 0 0.742427)
(9.87378 0 0.901217)
(9.83087 0 1.0672)
(9.78285 0 1.24184)
(9.73016 0 1.42656)
(9.67326 0 1.6228)
(9.61266 0 1.832)
(9.54893 0 2.05564)
(9.48267 0 2.29527)
(9.41458 0 2.55256)
(9.34547 0 2.82931)
(9.27625 0 3.12751)
(9.20802 0 3.44945)
(9.14211 0 3.79775)
(9.08023 0 4.17554)
(9.02457 0 4.58658)
(8.97816 0 5.03548)
(8.94527 0 5.52791)
(8.93219 0 6.07085)
(8.94843 0 6.67273)
(9.00847 0 7.34298)
(9.13446 0 8.09028)
(9.35739 0 8.91654)
(9.68678 0 9.81076)
(10.2526 0 10.7217)
(10.9404 0 11.4396)
(9.9974 0 0.151699)
(9.98874 0 0.301556)
(9.97347 0 0.451795)
(9.95239 0 0.604432)
(9.92624 0 0.761155)
(9.89545 0 0.923499)
(9.86043 0 1.09293)
(9.82159 0 1.27089)
(9.77944 0 1.45876)
(9.73454 0 1.65793)
(9.68751 0 1.86976)
(9.63902 0 2.09568)
(9.58988 0 2.33714)
(9.54097 0 2.59569)
(9.49335 0 2.87298)
(9.44825 0 3.17081)
(9.40715 0 3.49119)
(9.37189 0 3.83637)
(9.34475 0 4.20895)
(9.32872 0 4.6119)
(9.32771 0 5.04863)
(9.34704 0 5.52297)
(9.39394 0 6.03906)
(9.47833 0 6.60088)
(9.61341 0 7.21121)
(9.81602 0 7.86975)
(10.109 0 8.56943)
(10.5009 0 9.29562)
(11.0588 0 10.0382)
(11.8525 0 10.684)
(9.99792 0 0.154938)
(9.99101 0 0.307974)
(9.97884 0 0.461321)
(9.96212 0 0.616981)
(9.94151 0 0.776622)
(9.91746 0 0.941751)
(9.89041 0 1.1138)
(9.86083 0 1.29415)
(9.82929 0 1.48415)
(9.79643 0 1.6851)
(9.76295 0 1.89829)
(9.72967 0 2.12503)
(9.69751 0 2.36666)
(9.66754 0 2.62456)
(9.64101 0 2.90018)
(9.61942 0 3.19504)
(9.60455 0 3.51081)
(9.59856 0 3.84927)
(9.60416 0 4.21233)
(9.62473 0 4.60204)
(9.66458 0 5.02051)
(9.72926 0 5.46976)
(9.82584 0 5.9514)
(9.96327 0 6.46614)
(10.1526 0 7.0129)
(10.407 0 7.58783)
(10.7437 0 8.18281)
(11.1744 0 8.78316)
(11.7222 0 9.37729)
(12.476 0 9.89028)
(9.99845 0 0.157511)
(9.9933 0 0.313064)
(9.98427 0 0.468841)
(9.97194 0 0.626817)
(9.9569 0 0.788625)
(9.93962 0 0.955732)
(9.92055 0 1.12952)
(9.90023 0 1.31132)
(9.87926 0 1.50239)
(9.85834 0 1.70395)
(9.83827 0 1.9172)
(9.81995 0 2.14331)
(9.80442 0 2.38347)
(9.79287 0 2.63884)
(9.78673 0 2.91065)
(9.78763 0 3.2001)
(9.79756 0 3.50845)
(9.81886 0 3.83695)
(9.85442 0 4.18681)
(9.90772 0 4.55916)
(9.98305 0 4.9549)
(10.0856 0 5.37452)
(10.2218 0 5.81774)
(10.3991 0 6.28313)
(10.6264 0 6.76742)
(10.9134 0 7.26484)
(11.2713 0 7.76618)
(11.708 0 8.25586)
(12.2246 0 8.7172)
(12.9012 0 9.10863)
(9.99898 0 0.15938)
(9.9956 0 0.316749)
(9.98971 0 0.474242)
(9.98176 0 0.633791)
(9.97229 0 0.796983)
(9.96174 0 0.965234)
(9.9506 0 1.13987)
(9.93943 0 1.32213)
(9.92888 0 1.51321)
(9.9197 0 1.71422)
(9.91273 0 1.92623)
(9.90895 0 2.15027)
(9.90947 0 2.38734)
(9.91559 0 2.63841)
(9.92879 0 2.90442)
(9.95081 0 3.18623)
(9.98369 0 3.48469)
(10.0298 0 3.8005)
(10.0921 0 4.13424)
(10.1738 0 4.48619)
(10.2789 0 4.85627)
(10.412 0 5.24377)
(10.5785 0 5.64711)
(10.7842 0 6.06349)
(11.0356 0 6.48843)
(11.339 0 6.91523)
(11.7008 0 7.33453)
(12.1249 0 7.73291)
(12.6053 0 8.09578)
(13.2113 0 8.40258)
(9.99951 0 0.160511)
(9.99789 0 0.318962)
(9.9951 0 0.477427)
(9.99151 0 0.637777)
(9.98753 0 0.801546)
(9.98362 0 0.970084)
(9.98027 0 1.14464)
(9.97807 0 1.32639)
(9.97769 0 1.51641)
(9.9799 0 1.7157)
(9.98558 0 1.9252)
(9.99575 0 2.14579)
(10.0116 0 2.37827)
(10.0343 0 2.62338)
(10.0656 0 2.88178)
(10.1071 0 3.15401)
(10.1608 0 3.44051)
(10.229 0 3.74149)
(10.3144 0 4.05694)
(10.4201 0 4.3865)
(10.5494 0 4.72929)
(10.7062 0 5.0838)
(10.8946 0 5.44763)
(11.1189 0 5.81727)
(11.3835 0 6.18782)
(11.6922 0 6.55269)
(12.0477 0 6.90363)
(12.4516 0 7.23028)
(12.8963 0 7.52149)
(13.4399 0 7.76592)
(10 0 0.160875)
(10.0001 0 0.319649)
(10.0004 0 0.478315)
(10.0011 0 0.638676)
(10.0025 0 0.802195)
(10.0051 0 0.970152)
(10.0093 0 1.14372)
(10.0158 0 1.32396)
(10.0252 0 1.51187)
(10.0384 0 1.70831)
(10.0561 0 1.9141)
(10.0795 0 2.12993)
(10.1096 0 2.35642)
(10.1479 0 2.59409)
(10.1957 0 2.84331)
(10.2547 0 3.10434)
(10.3269 0 3.37722)
(10.4143 0 3.66179)
(10.5194 0 3.95755)
(10.6446 0 4.26361)
(10.7929 0 4.5786)
(10.9671 0 4.9005)
(11.1705 0 5.22651)
(11.4058 0 5.55292)
(11.6757 0 5.87498)
(11.982 0 6.18682)
(12.3257 0 6.48157)
(12.7064 0 6.75138)
(13.1164 0 6.9879)
(13.6047 0 7.18425)
(10.0005 0 0.160452)
(10.0023 0 0.318767)
(10.0056 0 0.476848)
(10.0104 0 0.636413)
(10.0171 0 0.798848)
(10.0259 0 0.965353)
(10.0374 0 1.13701)
(10.0523 0 1.31479)
(10.0711 0 1.49956)
(10.0946 0 1.69209)
(10.1237 0 1.89301)
(10.1594 0 2.10289)
(10.2028 0 2.32214)
(10.2552 0 2.55106)
(10.3179 0 2.7898)
(10.3925 0 3.03833)
(10.4807 0 3.2964)
(10.5844 0 3.56349)
(10.7055 0 3.83878)
(10.8462 0 4.12104)
(11.0088 0 4.40857)
(11.1953 0 4.69913)
(11.4078 0 4.98981)
(11.6482 0 5.27705)
(11.9177 0 5.55655)
(12.217 0 5.82332)
(12.5456 0 6.07182)
(12.9022 0 6.29615)
(13.2797 0 6.49026)
(13.72 0 6.64996)
(10.001 0 0.159226)
(10.0044 0 0.316289)
(10.0106 0 0.472986)
(10.0194 0 0.630942)
(10.0311 0 0.791459)
(10.0459 0 0.955649)
(10.0645 0 1.1245)
(10.0872 0 1.29888)
(10.1148 0 1.47955)
(10.148 0 1.66714)
(10.1877 0 1.86216)
(10.2347 0 2.065)
(10.2902 0 2.27591)
(10.3552 0 2.495)
(10.4311 0 2.72221)
(10.5193 0 2.95728)
(10.6211 0 3.19972)
(10.7382 0 3.44878)
(10.8722 0 3.70339)
(11.0247 0 3.96212)
(11.1974 0 4.22314)
(11.3917 0 4.48417)
(11.6089 0 4.74243)
(11.85 0 4.99467)
(12.1153 0 5.23715)
(12.4045 0 5.46578)
(12.7165 0 5.67622)
(13.0496 0 5.86411)
(13.3973 0 6.02521)
(13.7964 0 6.15699)
(10.0015 0 0.15719)
(10.0065 0 0.312198)
(10.0154 0 0.46671)
(10.028 0 0.622247)
(10.0445 0 0.780019)
(10.065 0 0.941049)
(10.0901 0 1.10623)
(10.1203 0 1.27632)
(10.1561 0 1.45197)
(10.1983 0 1.63368)
(10.2476 0 1.82185)
(10.3049 0 2.01671)
(10.3712 0 2.21837)
(10.4474 0 2.42676)
(10.5348 0 2.64165)
(10.6344 0 2.8626)
(10.7475 0 3.08896)
(10.8753 0 3.31981)
(11.0192 0 3.55396)
(11.1803 0 3.78989)
(11.3596 0 4.02578)
(11.5582 0 4.25942)
(11.7766 0 4.48828)
(12.0151 0 4.70951)
(12.2736 0 4.91999)
(12.5511 0 5.11644)
(12.8462 0 5.29553)
(13.157 0 5.4541)
(13.478 0 5.58922)
(13.8417 0 5.69939)
(10.0019 0 0.154342)
(10.0084 0 0.306495)
(10.0199 0 0.458023)
(10.0361 0 0.610339)
(10.0571 0 0.764559)
(10.083 0 0.921608)
(10.1142 0 1.08228)
(10.1512 0 1.24724)
(10.1946 0 1.41702)
(10.245 0 1.59203)
(10.3031 0 1.77251)
(10.3696 0 1.95858)
(10.4453 0 2.15023)
(10.5313 0 2.34725)
(10.6283 0 2.54928)
(10.7375 0 2.75574)
(10.8596 0 2.96588)
(10.9958 0 3.17869)
(11.1469 0 3.39293)
(11.3137 0 3.6071)
(11.4969 0 3.81944)
(11.6969 0 4.02795)
(11.9138 0 4.23039)
(12.1476 0 4.42432)
(12.3975 0 4.60722)
(12.6626 0 4.7765)
(12.9412 0 4.92966)
(13.2313 0 5.06444)
(13.5284 0 5.17885)
(13.8615 0 5.27202)
(10.0024 0 0.150688)
(10.0102 0 0.299193)
(10.0241 0 0.446951)
(10.0438 0 0.595261)
(10.0689 0 0.745142)
(10.0997 0 0.897425)
(10.1366 0 1.05281)
(10.1799 0 1.21186)
(10.2302 0 1.375)
(10.288 0 1.54253)
(10.3538 0 1.71461)
(10.4283 0 1.89125)
(10.5123 0 2.0723)
(10.6065 0 2.25748)
(10.7116 0 2.44631)
(10.8284 0 2.63815)
(10.9576 0 2.83218)
(11.0999 0 3.02737)
(11.256 0 3.22249)
(11.4261 0 3.41612)
(11.6108 0 3.60664)
(11.81 0 3.79226)
(12.0236 0 3.97108)
(12.2511 0 4.14107)
(12.4917 0 4.3002)
(12.7441 0 4.44648)
(13.0068 0 4.57807)
(13.278 0 4.69335)
(13.5538 0 4.791)
(13.8605 0 4.87059)
(10.0027 0 0.146242)
(10.0119 0 0.290317)
(10.0281 0 0.433535)
(10.0508 0 0.577078)
(10.0798 0 0.721865)
(10.1152 0 0.868636)
(10.1572 0 1.01799)
(10.2062 0 1.17041)
(10.2627 0 1.32623)
(10.3269 0 1.48565)
(10.3995 0 1.64872)
(10.481 0 1.81539)
(10.572 0 1.98542)
(10.673 0 2.15845)
(10.7846 0 2.33395)
(10.9074 0 2.51123)
(11.0419 0 2.68947)
(11.1884 0 2.86764)
(11.3474 0 3.04458)
(11.5191 0 3.21899)
(11.7034 0 3.38942)
(11.9002 0 3.55433)
(12.1091 0 3.7121)
(12.3294 0 3.86109)
(12.5601 0 3.99972)
(12.8001 0 4.12645)
(13.0479 0 4.23995)
(13.3018 0 4.33909)
(13.5585 0 4.42301)
(13.8423 0 4.49155)
(10.0031 0 0.141021)
(10.0134 0 0.279907)
(10.0317 0 0.417837)
(10.0573 0 0.55588)
(10.0898 0 0.694856)
(10.1293 0 0.835415)
(10.1759 0 0.978071)
(10.23 0 1.12321)
(10.2919 0 1.27109)
(10.3618 0 1.42183)
(10.4403 0 1.57542)
(10.5277 0 1.73172)
(10.6244 0 1.89044)
(10.731 0 2.05117)
(10.8477 0 2.21336)
(10.9749 0 2.37631)
(11.113 0 2.53921)
(11.2622 0 2.70109)
(11.4226 0 2.86089)
(11.5941 0 3.01743)
(11.7767 0 3.16946)
(11.9698 0 3.31566)
(12.1731 0 3.4547)
(12.3857 0 3.58528)
(12.6066 0 3.70615)
(12.8346 0 3.81618)
(13.0684 0 3.91439)
(13.3066 0 4.00003)
(13.5464 0 4.07254)
(13.81 0 4.13193)
(10.0034 0 0.135049)