/*--------------------------------*- C++ -*----------------------------------*\
  =========                 |
  \\      /  F ield         | OpenFOAM: The Open Source CFD Toolbox
   \\    /   O peration     | Website:  https://openfoam.org
    \\  /    A nd           | Version:  dev
     \\/     M anipulation  |
\*---------------------------------------------------------------------------*/
FoamFile
{
    version     2.0;
    format      ascii;
    class       volScalarField;
    location    "2.8";
    object      p;
}
// * * * * * * * * * * * * * * * * * * * * * * * * * * * * * * * * * * * * * //

dimensions      [0 2 -2 0 0 0 0];

internalField   nonuniform List<scalar> 
2790
(
147.671
147.578
147.845
148.416
149.197
150.154
151.286
152.593
154.07
155.711
157.51
159.461
161.555
163.78
166.12
168.555
171.06
173.598
176.13
178.604
180.962
183.139
185.069
186.69
187.949
188.823
189.259
189.314
189.365
189.578
147.468
147.486
147.778
148.346
149.122
150.077
151.205
152.505
153.975
155.607
157.397
159.338
161.421
163.635
165.964
168.389
170.885
173.418
175.948
178.426
180.794
182.989
184.943
186.591
187.875
188.75
189.146
189.201
189.333
189.618
147.269
147.357
147.668
148.226
148.989
149.931
151.044
152.326
153.774
155.382
157.144
159.054
161.102
163.277
165.565
167.947
170.399
172.889
175.381
177.828
180.178
182.37
184.342
186.032
187.382
188.358
188.951
189.306
189.622
189.92
147.044
147.163
147.487
148.036
148.784
149.71
150.803
152.061
153.48
155.055
156.778
158.644
160.643
162.763
164.991
167.309
169.693
172.116
174.543
176.933
179.24
181.411
183.393
185.132
186.587
187.738
188.606
189.277
189.83
190.349
146.783
146.916
147.248
147.79
148.522
149.426
150.494
151.721
153.103
154.634
156.308
158.118
160.053
162.104
164.256
166.491
168.789
171.124
173.465
175.778
178.023
180.158
182.14
183.93
185.5
186.842
187.972
188.935
189.746
190.493
146.483
146.621
146.955
147.487
148.199
149.077
150.113
151.303
152.64
154.12
155.735
157.478
159.338
161.306
163.367
165.505
167.7
169.929
172.166
174.381
176.543
178.62
180.582
182.402
184.065
185.566
186.913
188.118
189.138
190.056
146.14
146.279
146.611
147.129
147.819
148.667
149.666
150.811
152.097
153.517
155.064
156.73
158.505
160.378
162.335
164.36
166.436
168.542
170.655
172.75
174.805
176.796
178.703
180.513
182.219
183.819
185.313
186.692
187.856
188.903
145.755
145.892
146.217
146.719
147.383
148.197
149.154
150.25
151.478
152.831
154.301
155.881
157.559
159.325
161.165
163.064
165.005
166.969
168.937
170.888
172.805
174.673
176.479
178.221
179.899
181.518
183.072
184.544
185.794
186.945
145.329
145.462
145.776
146.259
146.894
147.67
148.581
149.622
150.785
152.064
153.451
154.935
156.507
158.156
159.866
161.625
163.414
165.217
167.017
168.795
170.538
172.236
173.883
175.483
177.045
178.579
180.087
181.557
182.828
184.067
144.862
144.99
145.291
145.752
146.354
147.089
147.95
148.931
150.025
151.224
152.519
153.9
155.357
156.877
158.447
160.051
161.672
163.294
164.9
166.474
168.002
169.475
170.893
172.261
173.593
174.911
176.231
177.568
178.768
180.073
144.357
144.479
144.764
145.2
145.768
146.458
147.265
148.182
149.202
150.315
151.512
152.783
154.117
155.499
156.917
158.353
159.791
161.212
162.598
163.932
165.2
166.39
167.496
168.524
169.487
170.415
171.345
172.343
173.305
174.623
143.815
143.929
144.198
144.606
145.137
145.781
146.531
147.38
148.32
149.343
150.437
151.592
152.795
154.032
155.287
156.544
157.783
158.983
160.125
161.187
162.149
162.991
163.699
164.264
164.689
164.998
165.24
165.547
165.928
167.101
143.238
143.345
143.594
143.974
144.466
145.06
145.75
146.529
147.387
148.315
149.301
150.335
151.401
152.486
153.571
154.638
155.665
156.629
157.504
158.263
158.876
159.31
159.532
159.507
159.203
158.604
157.728
156.734
155.784
156.287
142.628
142.727
142.957
143.307
143.758
144.301
144.929
145.634
146.407
147.237
148.112
149.02
149.946
150.873
151.782
152.651
153.457
154.171
154.762
155.194
155.424
155.401
155.063
154.33
153.107
151.276
148.712
145.407
141.454
139.414
141.989
142.079
142.289
142.607
143.016
143.506
144.07
144.7
145.385
146.115
146.878
147.658
148.44
149.205
149.933
150.6
151.178
151.635
151.931
152.022
151.849
151.339
150.394
148.88
146.601
143.268
138.422
131.402
120.93
108.689
2.4365
2.4044
2.2972
2.1465
1.98283
1.82045
1.66421
1.51566
1.37523
1.24283
1.11816
1.00102
0.891302
0.788905
0.694093
0.608544
0.536047
0.480758
0.44322
0.420014
0.406529
0.400652
0.40031
0.399083
0.388532
0.362699
0.318416
0.254654
0.171454
0.0724552
2.35509
2.31807
2.21793
2.07933
1.92774
1.77562
1.62782
1.48613
1.35115
1.22296
1.10149
0.986844
0.879078
0.777997
0.683545
0.597388
0.524201
0.469631
0.435369
0.415559
0.404628
0.400018
0.401762
0.402923
0.394528
0.369259
0.324376
0.259236
0.173426
0.0688218
2.27239
2.22868
2.13283
2.00472
1.86511
1.72375
1.58505
1.45093
1.32207
1.19864
1.08084
0.969103
0.863797
0.764618
0.670953
0.584352
0.510912
0.458005
0.42589
0.404906
0.392927
0.394309
0.402349
0.408171
0.401753
0.377512
0.333573
0.268251
0.18083
0.0694555
2.20099
2.15069
2.05726
1.93698
1.80732
1.67522
1.54463
1.41741
1.29421
1.17525
1.06088
0.951884
0.849122
0.752407
0.660133
0.571977
0.494606
0.442988
0.420897
0.409586
0.398347
0.395642
0.404364
0.412084
0.406512
0.379849
0.332704
0.267239
0.178835
0.0671677
2.16452
2.10767
2.01653
1.90096
1.7774
1.65084
1.52512
1.40202
1.28224
1.16598
1.05364
0.946077
0.844511
0.749494
0.660963
0.578698
0.507294
0.451112
0.417265
0.404363
0.399536
0.400699
0.40962
0.416453
0.410013
0.383287
0.33547
0.265632
0.175096
0.0631129
2.18108
2.11535
2.02494
1.90882
1.78507
1.65816
1.53216
1.40898
1.28938
1.17365
1.06203
0.95515
0.853802
0.758562
0.670122
0.590141
0.521605
0.469418
0.435447
0.416442
0.407959
0.407655
0.413151
0.41599
0.40626
0.377143
0.326812
0.256804
0.166038
0.0572267
2.25722
2.18172
2.08306
1.95938
1.82738
1.69336
1.5614
1.43345
1.31026
1.19209
1.07917
0.971838
0.870585
0.775839
0.687983
0.60796
0.539191
0.486505
0.450808
0.428839
0.41723
0.413496
0.414079
0.411715
0.397958
0.366473
0.314746
0.243441
0.153466
0.0514034
2.38764
2.2941
2.17615
2.03536
1.88768
1.74048
1.59804
1.46228
1.33357
1.21178
1.09678
0.988416
0.886662
0.791932
0.704616
0.625972
0.558537
0.505087
0.466563
0.440988
0.425551
0.41742
0.412576
0.404685
0.386549
0.352335
0.299072
0.226861
0.138672
0.0456522
2.54062
2.41881
2.27162
2.1074
1.94173
1.78099
1.62796
1.48423
1.35019
1.22518
1.1084
0.999499
0.89835
0.804723
0.718842
0.641699
0.575151
0.521062
0.480112
0.451111
0.431764
0.419096
0.408999
0.395896
0.373618
0.336758
0.281913
0.208817
0.123154
0.0399978
2.66807
2.51307
2.34306
2.15644
1.97231
1.79908
1.63907
1.49165
1.3557
1.22999
1.11333
1.00503
0.904927
0.812879
0.728875
0.65339
0.587606
0.532902
0.489955
0.45807
0.435276
0.418546
0.403828
0.386181
0.360285
0.321053
0.264624
0.190656
0.107867
0.0345552
2.75755
2.57136
2.37297
2.16885
1.97319
1.79237
1.62819
1.47959
1.34462
1.22108
1.10699
1.00124
0.903713
0.81446
0.733235
0.659899
0.59504
0.539868
0.495354
0.46128
0.435866
0.415973
0.397579
0.376258
0.347426
0.306229
0.248273
0.173344
0.0933278
0.0294259
2.77176
2.55312
2.32966
2.11288
1.91612
1.74039
1.58321
1.44166
1.31367
1.19686
1.08852
0.987351
0.893861
0.808725
0.731435
0.66096
0.597267
0.541723
0.495997
0.460501
0.433546
0.411683
0.390742
0.366696
0.335658
0.293014
0.233647
0.157638
0.0799101
0.0247005
2.62372
2.36744
2.15374
1.96067
1.7893
1.63799
1.50189
1.37677
1.26241
1.1576
1.05862
0.963836
0.875417
0.795661
0.723737
0.657041
0.594667
0.538572
0.491766
0.455634
0.42845
0.40606
0.383825
0.357991
0.325408
0.281823
0.221531
0.144249
0.0679666
0.0204674
2.20826
1.92741
1.80026
1.69831
1.58928
1.48676
1.38875
1.28895
1.19349
1.10594
1.02002
0.932516
0.849068
0.775687
0.711044
0.649354
0.588173
0.530782
0.48262
0.446623
0.420804
0.399603
0.377395
0.350622
0.317036
0.272987
0.212275
0.133808
0.0579658
0.0168187
1.36088
1.06961
1.20818
1.33899
1.33
1.29972
1.25856
1.18779
1.11052
1.0455
0.977482
0.896633
0.815721
0.749098
0.694681
0.639832
0.579132
0.518685
0.468216
0.433126
0.410724
0.392815
0.371992
0.344942
0.310707
0.266621
0.206178
0.127043
0.0507561
0.0139564
141.31
141.391
141.579
141.864
142.229
142.664
143.162
143.714
144.31
144.937
145.582
146.23
146.864
147.464
148.007
148.467
148.811
149.003
148.997
148.737
148.152
147.144
145.58
143.267
139.905
134.999
127.628
115.871
93.6906
33.7974
140.583
140.654
140.82
141.07
141.389
141.767
142.196
142.668
143.17
143.69
144.215
144.727
145.209
145.64
145.993
146.24
146.347
146.271
145.961
145.353
144.36
142.871
140.727
137.696
133.421
127.317
118.351
104.791
85.2756
56.8614
139.813
139.874
140.017
140.231
140.503
140.822
141.181
141.569
141.976
142.387
142.789
143.164
143.493
143.752
143.915
143.951
143.822
143.483
142.878
141.937
140.568
138.65
136.02
132.447
127.606
121.044
112.172
100.355
86.1555
69.612
139.002
139.053
139.172
139.349
139.572
139.832
140.118
140.423
140.733
141.035
141.313
141.55
141.725
141.815
141.79
141.62
141.263
140.673
139.792
138.548
136.849
134.578
131.583
127.669
122.588
116.05
107.76
97.3887
84.8787
69.7959
138.152
138.193
138.288
138.427
138.601
138.8
139.014
139.233
139.446
139.639
139.794
139.895
139.92
139.843
139.637
139.269
138.697
137.875
136.744
135.236
133.264
130.721
127.48
123.384
118.254
111.891
104.096
94.6291
83.3232
70.387
137.265
137.296
137.366
137.468
137.592
137.729
137.871
138.006
138.123
138.207
138.242
138.209
138.088
137.852
137.473
136.919
136.149
135.117
133.77
132.041
129.854
127.119
123.731
119.57
114.507
108.408
101.151
92.639
82.8628
72.2361
136.344
136.364
136.409
136.473
136.548
136.625
136.695
136.747
136.769
136.747
136.665
136.504
136.242
135.855
135.316
134.59
133.642
132.428
130.897
128.993
126.649
123.79
120.336
116.2
111.294
105.54
98.8853
91.3183
82.8835
73.9161
135.392
135.401
135.422
135.449
135.475
135.492
135.491
135.462
135.392
135.268
135.073
134.789
134.395
133.868
133.181
132.302
131.198
129.829
128.15
126.112
123.662
120.74
117.286
113.242
108.553
103.181
97.1113
90.3652
82.9925
75.2646
134.412
134.411
134.408
134.398
134.376
134.335
134.266
134.158
133.999
133.777
133.475
133.077
132.56
131.905
131.084
130.071
128.833
127.336
125.543
123.412
120.9
117.963
114.56
110.652
106.21
101.22
95.6885
89.6489
83.1553
76.4343
133.409
133.398
133.371
133.326
133.257
133.16
133.024
132.841
132.599
132.284
131.882
131.376
130.748
129.977
129.039
127.91
126.562
124.964
123.087
120.896
118.361
115.448
112.13
108.385
104.201
99.5789
94.536
89.1118
83.3592
77.4626
132.386
132.366
132.316
132.237
132.124
131.972
131.774
131.519
131.197
130.796
130.302
129.699
128.97
128.097
127.058
125.831
124.394
122.721
120.787
118.567
116.037
113.176
109.967
106.4
102.473
98.1964
93.5933
88.7029
83.5731
78.3518
131.35
131.32
131.249
131.137
130.981
130.779
130.521
130.199
129.804
129.323
128.745
128.054
127.236
126.274
125.149
123.844
122.338
120.611
118.644
116.418
113.918
111.129
108.043
104.659
100.98
97.0226
92.8111
88.3818
83.7765
79.1141
130.305
130.267
130.175
130.031
129.836
129.585
129.272
128.889
128.425
127.873
127.218
126.45
125.555
124.517
123.322
121.954
120.397
118.636
116.656
114.444
111.99
109.287
106.332
103.127
99.6837
96.0171
92.1523
88.1214
83.9603
79.7648
129.258
129.211
129.1
128.927
128.695
128.399
128.035
127.595
127.07
126.452
125.731
124.895
123.933
122.833
121.581
120.166
118.575
116.796
114.819
112.636
110.241
107.631
104.808
101.778
98.5521
95.1485
91.5895
87.9032
84.12
80.3173
128.213
128.159
128.03
127.83
127.564
127.227
126.816
126.325
125.745
125.07
124.29
123.396
122.378
121.227
119.932
118.483
116.871
115.088
113.127
110.984
108.655
106.142
103.449
100.584
97.5593
94.3919
91.1021
87.7142
84.2536
80.7836
127.178
127.117
126.972
126.748
126.449
126.076
125.623
125.086
124.457
123.731
122.901
121.959
120.896
119.705
118.377
116.907
115.286
113.51
111.574
109.477
107.219
104.804
102.236
99.5253
96.684
93.7277
90.6745
87.5453
84.3614
81.1745
126.16
126.092
125.932
125.686
125.359
124.952
124.462
123.884
123.213
122.445
121.572
120.589
119.49
118.269
116.919
115.437
113.816
112.055
110.152
108.107
105.922
103.601
101.152
98.5843
95.909
93.1407
90.2953
87.3906
84.4447
81.4998
125.165
125.091
124.918
124.651
124.299
123.863
123.34
122.727
122.02
121.215
120.307
119.292
118.165
116.922
115.559
114.072
112.46
110.721
108.855
106.863
104.75
102.521
100.184
97.7463
95.2205
92.619
89.9558
87.2462
84.5053
81.7681
124.2
124.121
123.936
123.652
123.278
122.816
122.265
121.621
120.883
120.048
119.112
118.071
116.924
115.667
114.297
112.813
111.214
109.501
107.675
105.738
103.695
101.553
99.318
96.9994
94.6075
92.1535
89.65
87.1099
84.546
81.9873
123.273
123.19
122.994
122.694
122.301
121.817
121.241
120.573
119.809
118.949
117.991
116.931
115.77
114.504
113.133
111.657
110.076
108.392
106.606
104.723
102.748
100.686
98.5454
96.3339
94.0612
91.7375
89.3735
86.9805
84.5694
82.1643
122.392
122.304
122.1
121.787
121.376
120.873
120.277
119.588
118.803
117.924
116.948
115.875
114.704
113.436
112.068
110.604
109.043
107.389
105.644
103.813
101.9
99.9129
97.8576
95.7421
93.5751
91.3657
89.1233
86.8578
84.5785
82.3055
121.563
121.473
121.26
120.935
120.511
119.992
119.379
118.672
117.871
116.976
115.988
114.906
113.731
112.462
111.102
109.651
108.113
106.489
104.783
103.001
101.147
99.2269
97.2483
95.2181
93.1441
91.0346
88.8978
86.7424
84.5764
82.4168
120.796
120.702
120.483
120.149
119.712
119.18
118.553
117.832
117.018
116.112
115.115
114.028
112.851
111.586
110.234
108.799
107.282
105.688
104.02
102.283
100.482
98.6227
96.7123
94.7571
92.7644
90.7414
88.6958
86.6349
84.566
82.503
120.099
120.002
119.777
119.434
118.987
118.444
117.806
117.074
116.25
115.336
114.333
113.243
112.067
110.807
109.466
108.047
106.552
104.986
103.352
101.656
99.9024
98.0973
96.2466
94.3567
92.4342
90.4857
88.5179
86.5376
84.5511
82.5702
119.479
119.38
119.149
118.799
118.343
117.791
117.144
116.404
115.573
114.653
113.646
112.555
111.382
110.129
108.798
107.394
105.92
104.379
102.777
101.117
99.4051
97.6467
95.8475
94.0135
92.1507
90.2651
88.363
86.4504
84.5328
82.6204
118.947
118.845
118.609
118.251
117.788
117.229
116.575
115.828
114.992
114.068
113.06
111.97
110.8
109.554
108.234
106.845
105.389
103.871
102.295
100.667
98.991
97.2723
95.5166
93.7294
91.9164
90.0832
88.2356
86.3789
84.5184
82.6627
118.512
118.407
118.163
117.797
117.328
116.762
116.103
115.351
114.511
113.585
112.576
111.488
110.322
109.082
107.772
106.395
104.956
103.457
101.904
100.302
98.6554
96.9691
95.2485
93.4991
91.7261
89.9347
88.1304
86.318
84.5024
82.6907
118.186
118.075
117.822
117.449
116.975
116.405
115.742
114.987
114.144
113.217
112.208
111.121
109.959
108.725
107.423
106.057
104.63
103.147
101.613
100.031
98.4075
96.7467
95.0537
93.3337
91.5918
89.8329
88.0621
86.2842
84.5039
82.7273
117.984
117.849
117.579
117.201
116.724
116.152
115.485
114.729
113.885
112.957
111.95
110.865
109.706
108.477
107.181
105.822
104.405
102.933
101.411
99.8439
98.2359
96.5922
94.9176
93.2172
91.4957
89.7582
88.0093
86.2535
84.4954
82.7399
117.965
117.767
117.468
117.084
116.604
116.028
115.359
114.601
113.756
112.829
111.822
110.739
109.582
108.357
107.066
105.713
104.302
102.838
101.324
99.7664
98.1688
96.5362
94.8734
93.1853
91.4767
89.7524
88.017
86.2748
84.5304
82.7878
-50.3901
-30.2376
-10.7397
36.6114
29.395
17.8199
52.2544
40.2959
29.2538
53.5984
43.234
35.2582
57.8907
49.648
42.9369
62.2473
55.3729
49.5126
65.4862
59.6286
54.5994
68.0496
63.041
58.745
70.2097
65.8885
62.1881
72.0322
68.2608
65.039
73.5639
70.2381
67.4042
74.8537
71.8938
69.3767
75.9419
73.2852
71.0292
76.8604
74.4572
72.4187
77.6354
75.4462
73.5904
78.2887
76.2813
74.5802
78.8381
76.9863
75.4169
79.2989
77.5807
76.124
79.6837
78.0806
76.7206
80.0036
78.4999
77.223
80.2679
78.85
77.6444
80.4852
79.1412
77.9968
80.6622
79.3814
78.2893
80.8067
79.5799
78.5319
80.9214
79.7397
78.7289
81.0178
79.8735
78.8927
81.0873
79.9729
79.0168
81.1586
80.0669
79.1281
81.1916
80.1162
79.1914
81.2604
80.1991
79.2808
-1.53786
-1.36048
0.0296874
1.01895
1.08715
1.09481
1.12221
1.07946
1.01251
0.981535
0.941051
0.862012
0.77496
0.713919
0.675628
0.631324
0.569403
0.502358
0.447529
0.414214
0.398223
0.38646
0.368433
0.341436
0.306592
0.262796
0.203573
0.124776
0.0472714
0.012141
4.18719
1.0044
1.89481
1.60932
0.640315
0.589804
0.984932
1.05082
0.935279
0.924977
0.916501
0.826016
0.716273
0.663041
0.657182
0.631277
0.562807
0.481333
0.417845
0.387482
0.382958
0.3817
0.367873
0.340604
0.304718
0.261395
0.204702
0.128119
0.0487592
0.0117808
15.0794
6.61027
3.6701
1.62456
1.04454
1.51302
1.73067
1.07506
0.559641
0.66253
0.908955
0.847476
0.676856
0.617407
0.651056
0.646603
0.557702
0.449511
0.373047
0.349806
0.366029
0.381688
0.372618
0.343257
0.305258
0.262511
0.209969
0.138767
0.0577428
0.0134243
24.5875
14.7589
8.94257
5.23338
3.26434
2.34383
1.54269
0.946975
0.795512
1.28504
1.44477
0.888176
0.447902
0.360622
0.537399
0.688413
0.580712
0.425806
0.325813
0.308576
0.351672
0.389776
0.383772
0.34855
0.307506
0.266173
0.219599
0.158041
0.0778167
0.0176355
33.6515
23.9331
16.6323
11.3172
7.61605
5.09533
3.33218
2.22912
1.64481
1.47087
1.16205
0.804233
0.514105
0.526324
0.950004
1.01164
0.582536
0.31029
0.180428
0.18727
0.299023
0.407604
0.411717
0.362747
0.316467
0.277021
0.236087
0.186518
0.114986
0.0247998
41.5486
32.6482
24.7707
18.3363
13.3945
9.71387
7.00714
5.05334
3.67002
2.71815
1.98768
1.42914
1.004
0.826223
0.890789
0.798617
0.578539
0.354725
0.231072
0.264335
0.443628
0.537604
0.441786
0.349389
0.301656
0.27365
0.241637
0.206335
0.171043
0.032491
47.9866
40.1974
32.433
25.5461
19.9072
15.413
11.8546
9.06093
6.9033
5.26884
4.01582
3.02818
2.26299
1.74866
1.44349
1.1741
0.880218
0.586095
0.393798
0.349648
0.417
0.46027
0.443012
0.401313
0.374478
0.350184
0.314083
0.272761
0.307893
0.071706
53.2317
46.5098
39.2596
32.4302
26.5359
21.5676
17.4015
13.9456
11.1249
8.85368
7.02342
5.53827
4.35124
3.44511
2.7714
2.22218
1.71966
1.27645
0.954557
0.778002
0.70973
0.667952
0.606951
0.529729
0.467411
0.418636
0.369902
0.31778
0.297543
-0.0239814
57.5117
51.6989
45.1173
38.6417
32.8143
27.6856
23.1932
19.3008
15.9772
13.1726
10.8187
8.84979
7.21918
5.89183
4.81964
3.92813
3.15878
2.50684
1.99585
1.63188
1.38432
1.1958
1.02279
0.860308
0.72332
0.609211
0.503082
0.391314
0.249251
-0.276113
61.0047
55.9374
50.034
44.0452
38.4821
33.422
28.8366
24.7216
21.0789
17.8919
15.1259
12.7405
10.6984
8.96551
7.5016
6.25601
5.18586
4.27411
3.52122
2.92205
2.45122
2.06711
1.73423
1.4396
1.18282
0.955952
0.740823
0.509637
0.199642
-0.494887
63.8733
59.412
54.1288
48.655
43.4492
38.5941
34.0771
29.91
26.1142
22.6957
19.6439
16.9385
14.5562
12.4721
10.657
9.07652
7.69881
6.5037
5.48128
4.62049
3.89956
3.28709
2.75357
2.28081
1.85859
1.47364
1.10357
0.7113
0.228193
-0.578671
66.2492
62.2823
57.5396
52.554
47.7296
43.1445
38.7919
34.689
30.8658
27.3412
24.1198
21.1963
18.5603
16.1975
14.0894
12.2137
10.548
9.07424
7.77964
6.651
5.66945
4.8103
4.04857
3.36443
2.74242
2.16531
1.6082
1.03306
0.382514
-0.511572
68.2309
64.6714
60.3907
55.8444
51.3882
47.0925
42.9508
38.9805
35.2133
31.6743
28.3765
25.3244
22.5173
19.9499
17.6127
15.4927
13.5754
11.8473
10.2962
8.90963
7.67151
6.56212
5.56046
4.64728
3.80509
3.01483
2.25184
1.48247
0.664712
-0.317681
69.8929
66.6725
62.7849
58.6245
54.5069
50.4939
46.5778
42.7735
39.1114
35.618
32.3106
29.1994
26.2898
23.5832
21.077
18.7652
16.6397
14.6914
12.9109
11.2876
9.80843
8.45774
7.2181
6.07201
5.00211
3.9896
3.01203
2.04208
1.05117
-0.0361235
71.2925
68.357
64.8039
60.9795
57.1655
53.4162
49.7225
46.0955
42.5629
39.1506
35.8772
32.7559
29.7957
27.0023
24.378
21.9219
19.6305
17.499
15.5207
13.6878
11.9902
10.4155
8.94949
7.57706
6.28223
5.04777
3.8543
2.68049
1.50746
0.291022
72.4744
69.7796
66.5125
62.9794
59.4342
55.9252
52.4411
48.99
45.596
42.2833
39.0703
35.9712
32.997
30.1561
27.4537
24.8925
22.4727
20.1925
18.0481
16.0342
14.1434
12.3662
10.6912
9.10571
7.59573
6.14612
4.74053
3.36226
1.9982
0.626986
73.474
70.9836
67.9614
64.6809
61.3725
58.0791
54.7882
51.5046
48.2491
45.0435
41.9053
38.8486
35.8852
33.0247
30.2745
27.6394
25.122
22.7231
20.4414
18.2736
16.2147
14.2576
12.3934
10.6116
8.90022
7.24622
5.63571
4.05497
2.4935
0.945283
74.3196
72.0034
69.1915
66.13
63.0293
59.9279
56.8123
53.6845
50.5622
47.4646
44.4079
41.4053
38.4687
35.6083
32.8323
30.1472
27.5571
25.0647
22.6704
20.3729
18.1692
16.0541
14.0207
12.0604
10.1632
8.31771
6.51175
4.73322
2.97191
1.23097
75.0345
72.8668
70.2358
67.3643
64.4452
61.5137
58.5556
55.5705
52.5731
49.5803
46.6065
43.6641
40.7643
37.9172
35.1316
32.4146
29.7715
27.2061
24.7203
22.3143
19.9865
17.7335
15.55
13.4291
11.362
9.33884
7.34851
5.37943
3.42038
1.47889
75.6378
73.5969
71.1216
68.4145
65.6539
62.8721
60.0542
57.1981
54.3158
51.4221
48.5295
45.6493
42.7918
39.9669
37.1831
34.4478
31.7671
29.1455
26.5858
24.0895
21.6561
19.2835
16.9677
14.703
12.4819
10.2954
8.13293
5.98291
3.83254
1.69051
76.1454
74.2127
71.8712
69.3062
66.6834
64.0326
61.3388
58.5981
55.8205
53.0184
50.2031
47.3844
44.5718
41.7742
39.0001
36.2568
33.5505
30.8862
28.2674
25.6964
23.1736
20.6978
18.266
15.8736
13.5138
11.1784
8.85708
6.53776
4.20617
1.8703
76.5711
74.7305
72.5035
70.061
67.5574
65.0207
62.4356
59.7973
57.1134
54.3949
51.6515
48.8916
46.1239
43.3564
40.5971
37.8529
35.1303
32.4342
29.7687
27.1363
24.5382
21.974
19.4413
16.9363
14.4529
11.9831
9.51683
7.04153
4.54166
2.02355
76.9259
75.1632
73.0341
70.6963
68.2953
65.857
63.3665
60.8178
58.2169
55.5733
52.8953
50.1902
47.4656
44.7289
41.9872
39.2474
36.5152
33.796
31.0937
28.4114
25.7505
23.1111
20.4915
17.8882
15.2956
12.706
10.1093
7.49253
4.83936
2.15397
77.2207
75.5235
73.4771
71.2284
68.9146
66.5605
64.1513
61.68
59.1516
56.5739
53.9542
51.2989
48.6145
45.9076
43.1847
40.4521
37.7155
34.9798
32.2492
29.5266
26.8139
24.1113
21.4175
18.7294
16.0416
13.3467
10.6345
7.89174
5.10153
2.26553
77.4616
75.8188
73.8415
71.6674
69.4268
67.1437
64.8031
62.3977
59.9312
57.4104
54.8416
52.2302
49.5819
46.9027
44.1983
41.4746
38.7369
35.9898
33.2375
30.4828
27.7277
24.9727
22.2166
19.4565
16.6873
13.9015
11.0889
8.2362
5.32616
2.35792
77.6603
76.0618
74.1412
72.0285
69.8482
67.6234
65.3397
62.9891
60.5743
58.1014
55.5756
53.0019
50.385
47.7303
45.0431
42.3287
39.5919
36.8372
34.0685
31.2888
28.4998
25.7021
22.8948
20.0749
17.2375
14.3751
11.4775
8.53129
5.51894
2.43641
77.8136
76.25
74.3742
72.3102
70.1778
67.9996
65.7613
63.4545
61.0813
58.647
56.1562
53.6132
51.0223
48.3882
45.7158
43.0098
40.2749
37.5153
34.7345
31.9356
29.1201
26.2889
23.4407
20.5728
17.6804
14.7558
11.7889
8.76604
5.66989
2.49392
77.9439
76.4059
74.5643
72.5372
70.441
68.298
66.094
63.8206
61.4791
59.0742
56.6103
54.091
51.5203
48.9023
46.2416
43.5426
40.8097
38.0468
35.2574
32.4443
29.6091
26.7524
23.8732
20.9687
18.0339
15.0613
12.0405
8.95782
5.79555
2.54324
78.0239
76.5021
74.6828
72.6808
70.6091
68.4896
66.3086
64.0575
61.7372
59.3522
56.9063
54.403
51.8459
49.2389
46.5863
43.8923
41.1609
38.3961
35.6011
32.7786
29.9303
27.0566
24.1566
21.2273
18.2638
15.2585
12.2007
9.07634
5.86779
2.56278
78.1126
76.592
74.785
72.798
70.74
68.6332
66.4644
64.225
61.9158
59.541
57.1042
54.6088
52.0582
49.4562
46.8069
44.1145
41.3829
38.616
35.8169
32.9884
30.132
27.2482
24.336
21.3926
18.4129
15.3892
12.3104
9.16173
5.92281
2.56954
)
;

boundaryField
{
    inlet
    {
        type            zeroGradient;
    }
    outlet
    {
        type            fixedValue;
        value           uniform 0;
    }
    flap
    {
        type            zeroGradient;
    }
    upperWall
    {
        type            zeroGradient;
    }
    lowerWall
    {
        type            zeroGradient;
    }
    frontAndBack
    {
        type            empty;
    }
}


// ************************************************************************* //
