/*--------------------------------*- C++ -*----------------------------------*\
  =========                 |
  \\      /  F ield         | OpenFOAM: The Open Source CFD Toolbox
   \\    /   O peration     | Website:  https://openfoam.org
    \\  /    A nd           | Version:  dev
     \\/     M anipulation  |
\*---------------------------------------------------------------------------*/
FoamFile
{
    version     2.0;
    format      ascii;
    class       surfaceScalarField;
    location    "2.8";
    object      phi;
}
// * * * * * * * * * * * * * * * * * * * * * * * * * * * * * * * * * * * * * //

dimensions      [0 3 -1 0 0 0 0];

internalField   nonuniform List<scalar> 
5457
(
0.198418
0.00158242
0.19648
0.00193744
0.194192
0.00228819
0.191508
0.00268372
0.188427
0.00308137
0.18495
0.00347696
0.181071
0.00387878
0.176777
0.00429423
0.172048
0.00472844
0.166863
0.00518543
0.161194
0.00566869
0.155013
0.00618118
0.148288
0.00672508
0.140987
0.00730139
0.133077
0.00790949
0.124531
0.00854637
0.115325
0.00920574
0.105448
0.00987697
0.0949043
0.0105438
0.0837211
0.0111832
0.0719568
0.0117643
0.0597089
0.0122479
0.0471205
0.0125883
0.0343807
0.0127399
0.0216859
0.0126948
0.009036
0.0126499
-0.00291669
0.0119527
-0.00847185
0.00555516
-0.00804262
-0.000429235
-0.00804262
0.199928
0.0016543
0.199176
0.00268996
0.197965
0.00349924
0.196331
0.00431705
0.194271
0.0051416
0.191781
0.00596723
0.188854
0.00680599
0.185476
0.00767133
0.181631
0.00857359
0.177296
0.00952106
0.172443
0.010521
0.167045
0.0115797
0.161068
0.012702
0.154479
0.0138904
0.147244
0.0151446
0.139331
0.0164594
0.130713
0.0178235
0.121373
0.0192169
0.111308
0.0206084
0.100539
0.0219527
0.0891148
0.0231884
0.0771275
0.0242352
0.0647219
0.024994
0.0521147
0.025347
0.0396547
0.0251548
0.0281049
0.0241997
0.0185942
0.0214634
0.00879622
0.0153532
0.00118302
0.00718397
-0.0068596
0.199781
0.00187377
0.199087
0.00338388
0.197946
0.00464029
0.196409
0.00585381
0.194482
0.00706791
0.192163
0.00828649
0.189446
0.00952364
0.18632
0.010797
0.182772
0.0121217
0.178783
0.0135102
0.17433
0.0149733
0.169389
0.0165209
0.16393
0.0181607
0.157923
0.0198977
0.151335
0.0217328
0.144133
0.0236611
0.136288
0.0256689
0.127774
0.0277306
0.118577
0.029805
0.1087
0.0318303
0.0981684
0.0337199
0.0870464
0.0353572
0.07545
0.0365903
0.0635732
0.0372239
0.0517316
0.0369964
0.0403966
0.0355348
0.0297383
0.0321216
0.0191656
0.0259259
0.00959723
0.0167524
0.00273763
0.199703
0.00217075
0.199008
0.00407927
0.197887
0.00576093
0.196376
0.00736488
0.194488
0.00895621
0.192221
0.0105527
0.189573
0.0121716
0.186537
0.0138333
0.183103
0.0155564
0.179256
0.0173569
0.174981
0.0192486
0.170258
0.0212437
0.165066
0.0233525
0.159382
0.0255819
0.15318
0.0279346
0.146435
0.0304063
0.139121
0.0329831
0.131214
0.0356377
0.122695
0.0383239
0.113554
0.0409709
0.103797
0.0434765
0.0934553
0.0456994
0.0825944
0.0474512
0.0713319
0.0484863
0.0598403
0.0484881
0.0483164
0.0470586
0.0368106
0.0436274
0.0251876
0.0375488
0.0133355
0.0286046
0.0160731
0.199667
0.00250338
0.198964
0.00478262
0.197863
0.00686238
0.196381
0.00884672
0.194532
0.0108052
0.192317
0.0127676
0.189733
0.0147556
0.186774
0.0167921
0.183432
0.0188984
0.179696
0.0210929
0.175553
0.0233917
0.170988
0.025809
0.165984
0.0283564
0.160523
0.0310423
0.154588
0.0338701
0.148157
0.0368367
0.141212
0.0399288
0.13373
0.043119
0.125694
0.0463605
0.117085
0.0495799
0.107892
0.0526696
0.098113
0.055478
0.0877635
0.0578008
0.0768778
0.059372
0.0655082
0.0598577
0.0537077
0.0588591
0.0414538
0.0558813
0.0285876
0.050415
0.0148523
0.0423399
0.0309254
0.199653
0.00285063
0.198949
0.00548677
0.197871
0.00794045
0.196426
0.0102911
0.194626
0.0126054
0.192472
0.0149213
0.189962
0.0172655
0.187091
0.0196632
0.183852
0.0221379
0.180234
0.0247104
0.176227
0.0273985
0.171818
0.0302179
0.166993
0.0331814
0.161737
0.0362983
0.156034
0.0395731
0.149868
0.0430033
0.14322
0.0465769
0.136071
0.0502682
0.128399
0.0540325
0.120179
0.0577992
0.111385
0.0614635
0.101987
0.0648763
0.0919534
0.0678345
0.0812531
0.0700723
0.0698536
0.0712571
0.0577166
0.0709961
0.0447606
0.0688373
0.0308492
0.0643264
0.0158732
0.0573159
0.0467986
0.19965
0.00320062
0.198954
0.00618285
0.197904
0.00899022
0.196504
0.011691
0.194762
0.0143478
0.19268
0.0170036
0.190256
0.0196894
0.187486
0.0224331
0.184363
0.0252603
0.18088
0.0281936
0.177026
0.0312527
0.172789
0.0344548
0.168157
0.0378137
0.163115
0.0413401
0.157649
0.0450394
0.151741
0.0489109
0.145374
0.0529444
0.138524
0.0571175
0.131166
0.0613904
0.123266
0.0656996
0.11478
0.0699497
0.105652
0.0740036
0.0958152
0.0776717
0.0851852
0.0807023
0.0736678
0.0827746
0.0611614
0.0835025
0.0475554
0.0824433
0.0327589
0.079123
0.0167831
0.0732917
0.0635817
0.199655
0.00354602
0.198974
0.00686306
0.197958
0.0100061
0.19661
0.0130399
0.194933
0.0160241
0.192932
0.0190044
0.190606
0.0220158
0.18795
0.0250887
0.18496
0.0282506
0.181628
0.0315261
0.177944
0.0349365
0.173898
0.0385004
0.169478
0.0422335
0.164671
0.0461477
0.15946
0.0502504
0.153827
0.0545432
0.147752
0.0590196
0.141208
0.0636621
0.13416
0.0684384
0.126563
0.073296
0.118359
0.0781543
0.109467
0.0828957
0.0997847
0.0873537
0.0891863
0.0913007
0.0775248
0.094436
0.0646476
0.0963796
0.050418
0.0966729
0.0347688
0.0947722
0.0177902
0.0902703
0.0813719
0.199664
0.0038819
0.199006
0.00752098
0.19803
0.0109825
0.196738
0.0143315
0.195136
0.0176264
0.193226
0.0209145
0.191008
0.024234
0.188479
0.0276177
0.185634
0.031095
0.182468
0.0346921
0.178972
0.0384323
0.175137
0.0423357
0.170951
0.0464197
0.1664
0.0506984
0.161469
0.0551817
0.156137
0.0598747
0.150381
0.0647758
0.144168
0.0698748
0.137457
0.0751496
0.130191
0.080562
0.122294
0.0860514
0.113664
0.0915261
0.104166
0.0968513
0.0936328
0.101834
0.0818646
0.106204
0.0686501
0.109594
0.0538032
0.11152
0.0372378
0.111338
0.0190842
0.108424
0.100456
0.199677
0.00420474
0.199047
0.00815134
0.198115
0.011914
0.196887
0.01556
0.195366
0.0191476
0.193555
0.0227255
0.191454
0.0263342
0.189063
0.0300089
0.186378
0.0337806
0.183392
0.0376774
0.180101
0.0417239
0.176494
0.0459423
0.172562
0.0503518
0.168292
0.0549688
0.163667
0.0598068
0.158666
0.0648751
0.153264
0.0701785
0.147423
0.0757156
0.141095
0.081477
0.134215
0.0874422
0.126692
0.093575
0.118402
0.099816
0.109181
0.106072
0.0988183
0.112197
0.0870527
0.11797
0.0735912
0.123056
0.0581507
0.12696
0.0405542
0.128934
0.0209029
0.128075
0.121359
0.199693
0.00451187
0.199094
0.00874984
0.198213
0.0127958
0.197053
0.01672
0.195619
0.0205813
0.193915
0.0244296
0.191941
0.0283076
0.189698
0.0322522
0.187183
0.0362961
0.184391
0.0404688
0.181318
0.0447966
0.177957
0.0493033
0.174299
0.0540102
0.170331
0.0589365
0.166039
0.0640992
0.161401
0.0695127
0.156391
0.0751889
0.15097
0.0811366
0.145086
0.0873607
0.138667
0.0938609
0.131613
0.100629
0.123785
0.107644
0.114993
0.114864
0.104981
0.122208
0.0934195
0.129532
0.0799004
0.136575
0.0639717
0.142889
0.0452389
0.147667
0.0236145
0.1497
0.144973
0.199711
0.00480125
0.199147
0.00931298
0.19832
0.0136236
0.197233
0.0178065
0.195893
0.0219217
0.194302
0.0260204
0.192463
0.0301465
0.190376
0.0343388
0.188041
0.0386314
0.185455
0.0430549
0.182614
0.0476372
0.179514
0.0524036
0.176147
0.0573774
0.172503
0.0625806
0.168568
0.0680337
0.164325
0.0737563
0.159746
0.0797677
0.154796
0.0860871
0.149422
0.0927344
0.143552
0.0997303
0.137085
0.107097
0.129873
0.114856
0.121712
0.123025
0.112313
0.131607
0.101274
0.14057
0.0880491
0.1498
0.0719292
0.159009
0.0520934
0.167503
0.0278909
0.173902
0.172864
0.19973
0.00507125
0.199205
0.0098379
0.198435
0.0143938
0.197426
0.0188154
0.196184
0.0231641
0.194712
0.027492
0.193014
0.0318444
0.191092
0.0362612
0.188945
0.0407778
0.186574
0.0454259
0.183977
0.0502344
0.181151
0.0552301
0.17809
0.060438
0.174788
0.0658825
0.171234
0.0715873
0.167414
0.0775769
0.163304
0.0838773
0.158874
0.0905175
0.154077
0.0975311
0.148848
0.104959
0.143093
0.112853
0.136673
0.121276
0.129387
0.13031
0.12094
0.140055
0.110884
0.150626
0.0985487
0.162135
0.0829111
0.174647
0.0624482
0.187965
0.0351353
0.201215
0.208
0.199751
0.00532062
0.199266
0.0103223
0.198557
0.0151035
0.197629
0.0197432
0.196489
0.0243043
0.195141
0.0288397
0.193589
0.0333957
0.191837
0.0380132
0.189887
0.0427284
0.187739
0.0475738
0.185394
0.0525792
0.182852
0.0577722
0.180111
0.0631794
0.177166
0.0688267
0.174013
0.0747408
0.17064
0.0809498
0.167032
0.0874851
0.163166
0.0943835
0.159008
0.10169
0.154505
0.109462
0.149584
0.117774
0.144133
0.126727
0.137985
0.136458
0.130882
0.147159
0.122407
0.1591
0.111868
0.172675
0.0980324
0.188482
0.0785591
0.207439
0.0486862
0.231088
0.256686
0.199772
0.00554839
0.19933
0.0107643
0.198683
0.0157501
0.19784
0.0205871
0.196805
0.0253391
0.195585
0.0300598
0.194184
0.0347964
0.192607
0.0395901
0.190858
0.0444779
0.188939
0.0494926
0.186854
0.0546645
0.184604
0.0600218
0.182192
0.0655918
0.179617
0.0714016
0.176878
0.0774794
0.173972
0.0838557
0.170892
0.0905654
0.167625
0.0976502
0.164153
0.105162
0.160446
0.113168
0.156462
0.121758
0.152134
0.131055
0.147362
0.14123
0.141988
0.152533
0.13575
0.165338
0.128178
0.180247
0.118333
0.198328
0.103961
0.22181
0.0777433
0.257306
0.334429
0.0049925
-0.0049925
0.00964677
-0.00465427
0.0136099
-0.00396315
0.0169373
-0.00332742
0.019743
-0.00280562
0.0221284
-0.00238544
0.0241781
-0.00204975
0.0259611
-0.00178291
0.0275298
-0.0015687
0.0289216
-0.00139185
0.0301625
-0.00124088
0.0312716
-0.0011091
0.0322626
-0.00099104
0.0331359
-0.000873268
0.0338647
-0.000728836
0.0343981
-0.000533364
0.0346991
-0.000301029
0.0347897
-9.06052e-05
0.0347217
6.80694e-05
0.0345401
0.000181589
0.0342612
0.000278851
0.0339248
0.000336435
0.0336372
0.000287607
0.0335112
0.000125968
0.0336265
-0.000115248
0.0340044
-0.000377891
0.034626
-0.000621625
0.0354568
-0.000830801
0.0364215
-0.0009647
-0.000910549
0.00428841
-0.00928091
0.00844205
-0.00880791
0.0120518
-0.00757289
0.0151376
-0.00641327
0.0177972
-0.00546516
0.0201174
-0.00470569
0.0221686
-0.00410091
0.0240062
-0.00362052
0.0256719
-0.00323435
0.0271944
-0.00291434
0.0285929
-0.0026394
0.0298829
-0.00239913
0.0310818
-0.00218989
0.0322042
-0.00199566
0.0332436
-0.00176825
0.0341596
-0.00144945
0.0349046
-0.00104603
0.0354725
-0.000658447
0.0359339
-0.000393382
0.0363126
-0.00019707
0.0365939
-2.46208e-06
0.036765
0.000165302
0.0369316
0.000121087
0.0371272
-6.97116e-05
0.0373696
-0.000357611
0.0376525
-0.000660789
0.0379771
-0.000946208
0.0383477
-0.0012014
0.0387866
-0.00140357
-0.0014005
0.00338811
-0.012669
0.00659713
-0.0120169
0.00935157
-0.0103273
0.0116989
-0.00876063
0.013718
-0.00748423
0.0154734
-0.00646113
0.0170188
-0.0056463
0.0183959
-0.00499758
0.0196351
-0.00447359
0.0207563
-0.00403548
0.0217696
-0.00365276
0.0226823
-0.00331182
0.0235101
-0.00301773
0.0242801
-0.00276558
0.0250027
-0.00249091
0.0256408
-0.00208756
0.0261315
-0.00153668
0.0264635
-0.00099052
0.0267348
-0.000664589
0.0268697
-0.000332042
0.0267332
0.000134104
0.0262642
0.000634219
0.0255089
0.00087645
0.0246123
0.000826888
0.0237054
0.000549244
0.0228613
0.000183291
0.0221086
-0.000193464
0.021487
-0.000579779
0.0211439
-0.00106045
-0.00162047
0.00243357
-0.0151026
0.00454402
-0.0141274
0.00626416
-0.0120475
0.00770014
-0.0101966
0.00890495
-0.00868903
0.00991776
-0.00747394
0.0107738
-0.00650236
0.0115007
-0.0057245
0.0121194
-0.0050923
0.0126431
-0.00455917
0.0130745
-0.00408414
0.0134062
-0.0036435
0.0136364
-0.00324796
0.0137982
-0.00292734
0.0139406
-0.00263334
0.0140641
-0.00221105
0.0140581
-0.00153065
0.0135587
-0.000491163
0.0124295
0.000464609
0.0110726
0.0010249
0.00986272
0.00134398
0.0088109
0.00168604
0.0077912
0.00189615
0.00682086
0.00179722
0.00600462
0.00136549
0.0055074
0.000680504
0.00532579
-1.18498e-05
0.00553147
-0.000785457
0.00604993
-0.00157891
-0.00226986
0.00135525
-0.0164578
0.00224573
-0.0150179
0.00282924
-0.012631
0.003236
-0.0106034
0.00348871
-0.00894174
0.00360796
-0.0075932
0.00361213
-0.00650653
0.00351713
-0.00562949
0.00333731
-0.00491248
0.00308518
-0.00430704
0.00276725
-0.00376622
0.00237324
-0.00324949
0.00185441
-0.00272912
0.00112778
-0.0022007
0.00014658
-0.00165214
-0.00100292
-0.00106155
-0.00218923
-0.000344347
-0.00308009
0.0003997
-0.0036421
0.00102661
-0.00413925
0.00152205
-0.00467228
0.00187701
-0.00512294
0.0021367
-0.00545406
0.00222727
-0.00567745
0.00202061
-0.00580731
0.00149535
-0.00586141
0.000734606
-0.00574575
-0.000127511
-0.0055659
-0.000965301
-0.0053467
-0.00179811
-0.00247367
7.34104e-05
-0.0165313
-0.000284277
-0.0146602
-0.000893117
-0.0120221
-0.00159803
-0.00989846
-0.00240516
-0.00813461
-0.00329214
-0.00670622
-0.00424792
-0.00555075
-0.00526394
-0.00461347
-0.00633311
-0.00384331
-0.00744382
-0.00319632
-0.00857561
-0.00263443
-0.00970066
-0.00212445
-0.0107866
-0.00164318
-0.0118085
-0.00117883
-0.0127467
-0.000713869
-0.0135864
-0.000221853
-0.0142205
0.000289679
-0.0146484
0.000827607
-0.0149687
0.00134691
-0.015212
0.00176539
-0.015394
0.00205896
-0.0154837
0.0022264
-0.0154713
0.0022149
-0.015398
0.00194728
-0.015313
0.00141037
-0.0152462
0.000667862
-0.0151964
-0.000177365
-0.0151402
-0.0010215
-0.0150906
-0.00184766
-0.00253504
-0.00121118
-0.0153201
-0.0029375
-0.0129338
-0.00476049
-0.0101991
-0.00663014
-0.00802882
-0.00848317
-0.00628157
-0.0102948
-0.00489457
-0.0120404
-0.00380516
-0.0136984
-0.0029555
-0.0152517
-0.00228997
-0.0166884
-0.00175964
-0.0179996
-0.00132319
-0.0191786
-0.000945458
-0.0202208
-0.000600994
-0.021129
-0.000270649
-0.021898
5.51419e-05
-0.0225072
0.000387318
-0.0229684
0.000750896
-0.0232969
0.0011561
-0.0235006
0.00155057
-0.0236045
0.00186932
-0.0236262
0.00208064
-0.0235659
0.00216611
-0.023436
0.00208504
-0.0232776
0.0017889
-0.0231371
0.00126985
-0.0230448
0.000575553
-0.0230086
-0.000213581
-0.0230141
-0.00101599
-0.0230499
-0.00181188
-0.0024666
-0.00260874
-0.0127113
-0.00561344
-0.00992914
-0.00862257
-0.00719002
-0.0114975
-0.00515393
-0.0141587
-0.00362033
-0.0165819
-0.00247135
-0.0187593
-0.00162777
-0.0206957
-0.00101909
-0.0224034
-0.000582284
-0.0238982
-0.000264804
-0.0251966
-2.4859e-05
-0.0263069
0.000164915
-0.0272395
0.000331587
-0.0280097
0.000499564
-0.0286399
0.000685356
-0.0291564
0.000903777
-0.0295659
0.00116042
-0.0298521
0.00144229
-0.0300132
0.00171162
-0.0300672
0.00192339
-0.030034
0.00204744
-0.0299281
0.0020602
-0.0297717
0.00192862
-0.0296023
0.00161947
-0.0294607
0.00112828
-0.0293776
0.000492406
-0.0293661
-0.000225009
-0.0294171
-0.000965016
-0.0295257
-0.00170326
-0.00228152
-0.00408083
-0.00863051
-0.0083222
-0.00568777
-0.0123929
-0.00311937
-0.0160816
-0.00146515
-0.0193248
-0.000377193
-0.0220964
0.000300281
-0.0244187
0.000694575
-0.0263541
0.000916288
-0.027974
0.00103762
-0.0293394
0.00110054
-0.0304976
0.00113342
-0.0314888
0.00115611
-0.0323401
0.0011828
-0.0330646
0.00122415
-0.0336731
0.00129376
-0.0341709
0.00140166
-0.0345575
0.00154694
-0.0348272
0.00171203
-0.034981
0.00186542
-0.0350315
0.00197391
-0.0349969
0.00201282
-0.0348973
0.0019606
-0.0347592
0.00179054
-0.0346173
0.00147761
-0.0345077
0.00101861
-0.0344591
0.000443819
-0.0344869
-0.000197232
-0.0345888
-0.000863059
-0.0347642
-0.00152792
-0.00203136
-0.00579365
-0.00283686
-0.011526
4.46261e-05
-0.0162839
0.00163848
-0.0202204
0.00247135
-0.0234324
0.00283476
-0.0260668
0.00293472
-0.0282708
0.00289853
-0.0301384
0.0027839
-0.0317268
0.00262607
-0.0330824
0.00245616
-0.0342439
0.00229488
-0.0352394
0.00215157
-0.0360871
0.00203051
-0.0368017
0.00193879
-0.0373962
0.00188825
-0.0378805
0.00188601
-0.038259
0.00192544
-0.0385314
0.00198435
-0.038699
0.00203306
-0.0387708
0.00204572
-0.038763
0.00200501
-0.0386979
0.00189545
-0.0386035
0.0016962
-0.0385122
0.00138627
-0.038455
0.000961429
-0.0384576
0.000446428
-0.0385361
-0.000118739
-0.0386943
-0.000704831
-0.0389312
-0.00129102
-0.00172946
-0.00730107
0.00446421
-0.0135672
0.00631073
-0.018567
0.00663828
-0.022648
0.00655242
-0.0259964
0.00618311
-0.0287502
0.00568855
-0.0310231
0.00517145
-0.0329126
0.00467338
-0.034495
0.00420847
-0.0358299
0.00379107
-0.036966
0.00343092
-0.0379375
0.00312306
-0.0387639
0.00285691
-0.0394583
0.00263323
-0.0400351
0.00246502
-0.0405091
0.00236001
-0.0408896
0.00230599
-0.0411785
0.00227322
-0.041375
0.00222958
-0.0414838
0.0021545
-0.041519
0.00204024
-0.0415042
0.00188061
-0.0414685
0.00166052
-0.041442
0.0013598
-0.0414509
0.000970307
-0.0415151
0.00051059
-0.0416504
1.66286e-05
-0.0418662
-0.000489105
-0.0421628
-0.00099442
-0.00137413
-0.00805902
0.0125232
-0.0149693
0.013221
-0.0205173
0.0121863
-0.0248511
0.0108862
-0.0282636
0.00959563
-0.0309823
0.0084072
-0.0331811
0.00737023
-0.0349893
0.00648158
-0.0364908
0.00571002
-0.0377486
0.00504884
-0.0388194
0.00450171
-0.0397428
0.00404652
-0.0405347
0.00364882
-0.0412014
0.00329991
-0.0417569
0.00302055
-0.0422226
0.00282569
-0.0426136
0.00269692
-0.0429312
0.00259084
-0.0431692
0.00246759
-0.0433258
0.00231113
-0.0434129
0.00212727
-0.0434556
0.0019233
-0.0434851
0.00169008
-0.0435302
0.00140488
-0.0436124
0.00105251
-0.0437466
0.000644751
-0.0439452
0.000215263
-0.0442216
-0.000212686
-0.0445803
-0.000635717
-0.000959379
-0.00937495
0.0218982
-0.0172307
0.0210768
-0.0230018
0.0179574
-0.0272195
0.0151039
-0.0304201
0.0127962
-0.0328943
0.0108815
-0.0348587
0.00933459
-0.0364766
0.00809948
-0.037824
0.00705744
-0.0389491
0.00617397
-0.0399163
0.00546892
-0.0407735
0.00490364
-0.0415253
0.00440064
-0.0421608
0.00393543
-0.0426913
0.00355099
-0.0431492
0.00328366
-0.0435588
0.00310646
-0.0439184
0.00295047
-0.0442109
0.00276006
-0.0444243
0.00252458
-0.0445678
0.00227072
-0.0446706
0.00202615
-0.0447686
0.00178809
-0.0448901
0.00152642
-0.0450516
0.00121399
-0.0452613
0.000854389
-0.0455281
0.000482105
-0.0458679
0.000127147
-0.0462919
-0.000211731
-0.000476794
-0.0117939
0.0336921
-0.0209032
0.030186
-0.0264284
0.0234826
-0.0299272
0.0186027
-0.0325617
0.0154307
-0.0345542
0.012874
-0.0361008
0.0108812
-0.0374239
0.00942262
-0.038563
0.00819649
-0.0395063
0.00711731
-0.040332
0.00629459
-0.0411129
0.0056845
-0.0418316
0.00511941
-0.0424388
0.00454261
-0.042938
0.00405022
-0.0433857
0.00373131
-0.0438232
0.00354393
-0.0442419
0.00336922
-0.044605
0.0031231
-0.0448841
0.00280371
-0.0450854
0.002472
-0.0452471
0.00218785
-0.0454141
0.00195517
-0.0456157
0.00172802
-0.0458617
0.00145995
-0.0461517
0.0011444
-0.0464896
0.000820034
-0.0468945
0.00053203
-0.0473887
0.000282458
8.73607e-05
-0.0161792
0.0498713
-0.0269091
0.040916
-0.031392
0.0279655
-0.0329788
0.0201894
-0.0346604
0.0171123
-0.0359523
0.0141659
-0.0368629
0.0117918
-0.0378094
0.0103691
-0.0387468
0.00913387
-0.0394697
0.00784023
-0.0401036
0.00692851
-0.0408079
0.00638878
-0.0415238
0.00583525
-0.042117
0.00513586
-0.0425724
0.00450562
-0.0429999
0.00415883
-0.0434777
0.00402172
-0.0439808
0.00387235
-0.0444368
0.00357902
-0.0447912
0.00315815
-0.0450475
0.00272832
-0.0452616
0.00240191
-0.0454954
0.00218899
-0.0457798
0.00201242
-0.0461149
0.00179508
-0.0464887
0.00151811
-0.0468971
0.00122845
-0.0473644
0.000999382
-0.0479307
0.000848687
0.000745204
0.207447
0.00576124
0.207034
0.0111771
0.206431
0.0163529
0.205646
0.0213719
0.204687
0.0262988
0.203559
0.0311878
0.202269
0.0360865
0.200822
0.0410365
0.199225
0.046075
0.197483
0.0512348
0.195601
0.0565463
0.193585
0.0620377
0.191441
0.0677364
0.189173
0.0736697
0.186786
0.0798662
0.184285
0.0863571
0.181672
0.0931782
0.17895
0.100373
0.176118
0.107994
0.173175
0.116111
0.170118
0.124816
0.166941
0.134232
0.16364
0.144531
0.160218
0.155955
0.156697
0.168858
0.153175
0.183769
0.150021
0.201482
0.148921
0.22291
0.160706
0.245522
0.258578
0.236557
0.21249
0.00595375
0.212117
0.0115501
0.211573
0.0168968
0.210867
0.0220782
0.210006
0.0271597
0.208998
0.0321958
0.207851
0.0372342
0.206571
0.0423165
0.205166
0.0474795
0.203645
0.0527558
0.202016
0.0581754
0.200288
0.0637658
0.198471
0.0695538
0.196575
0.0755657
0.194611
0.0818293
0.192594
0.0883744
0.190537
0.0952351
0.188458
0.102452
0.186378
0.110074
0.184326
0.118163
0.182343
0.126799
0.180488
0.136086
0.178863
0.146156
0.177639
0.157179
0.177139
0.169359
0.178018
0.182889
0.181698
0.197802
0.19079
0.213818
0.206304
0.230008
0.245433
0.219449
0.217658
0.00612378
0.217328
0.0118793
0.216849
0.0173757
0.216229
0.0226982
0.215476
0.0279125
0.214599
0.0330731
0.213606
0.0382271
0.212507
0.043416
0.211311
0.0486758
0.210028
0.0540385
0.208671
0.0595328
0.207251
0.0651852
0.205784
0.0710209
0.204285
0.0770644
0.202774
0.0833409
0.201271
0.0898771
0.199803
0.0967026
0.198404
0.103851
0.197114
0.111364
0.195989
0.119287
0.195109
0.12768
0.194586
0.136609
0.19459
0.146151
0.195386
0.156383
0.197384
0.167361
0.201195
0.179079
0.207587
0.191409
0.217219
0.204187
0.229798
0.217428
0.228555
0.246676
0.222951
0.00626933
0.22267
0.0121608
0.222261
0.0177842
0.221734
0.023225
0.221098
0.0285486
0.220362
0.0338092
0.219536
0.0390535
0.21863
0.0443218
0.217656
0.0496494
0.216628
0.0550669
0.215559
0.0606016
0.214466
0.0662779
0.213369
0.0721187
0.212287
0.0781457
0.211248
0.0843803
0.210281
0.0908445
0.209422
0.0975612
0.208718
0.104556
0.208227
0.111855
0.208025
0.119489
0.208215
0.127489
0.208938
0.135886
0.210386
0.144703
0.212823
0.153947
0.216594
0.163589
0.222118
0.173554
0.229842
0.183685
0.240333
0.193696
0.254505
0.203257
0.210115
0.272945
0.228374
0.00638855
0.228144
0.012391
0.227811
0.0181171
0.227384
0.0236517
0.226873
0.0290599
0.226287
0.0343951
0.225638
0.0397028
0.224937
0.0450225
0.224199
0.0503879
0.223438
0.0558278
0.222672
0.0613675
0.221921
0.0670292
0.221207
0.0728325
0.220557
0.0787956
0.220002
0.0849351
0.21958
0.0912669
0.219335
0.0978063
0.219322
0.104568
0.219612
0.111565
0.220293
0.118809
0.221476
0.126306
0.223307
0.134055
0.22597
0.14204
0.229696
0.150221
0.234763
0.158522
0.241499
0.166818
0.250282
0.174903
0.261553
0.182424
0.275785
0.189026
0.193624
0.292276
0.233929
0.00647976
0.233754
0.0125667
0.233501
0.0183696
0.23318
0.0239724
0.232801
0.0294393
0.232374
0.0348223
0.23191
0.040166
0.231425
0.0455081
0.230932
0.0508806
0.23045
0.0563103
0.229997
0.0618199
0.229598
0.0674289
0.229277
0.0731533
0.229065
0.079007
0.228999
0.0850014
0.22912
0.0911458
0.229479
0.0974472
0.230138
0.10391
0.231169
0.110533
0.232666
0.117312
0.234738
0.124233
0.237523
0.131271
0.241183
0.13838
0.245911
0.145494
0.251925
0.152508
0.259466
0.159276
0.268777
0.165593
0.280032
0.171168
0.293326
0.175732
0.178772
0.308178
0.23962
0.00654145
0.239501
0.012685
0.239333
0.0185377
0.239124
0.024182
0.238882
0.0296805
0.238621
0.0350841
0.238351
0.0404355
0.238088
0.0457707
0.23785
0.0511195
0.237653
0.0565065
0.237521
0.0619518
0.237479
0.0674713
0.237555
0.0730775
0.237782
0.0787798
0.238199
0.0845841
0.238852
0.0904931
0.239793
0.0965059
0.241086
0.102617
0.242804
0.108815
0.245036
0.115081
0.247883
0.121386
0.251466
0.127688
0.255919
0.133927
0.261391
0.140022
0.268038
0.145861
0.276009
0.151305
0.285422
0.156179
0.296323
0.160268
0.308698
0.163357
0.165182
0.322288
0.245448
0.00657236
0.24539
0.0127435
0.245309
0.018618
0.245215
0.024276
0.245117
0.0297787
0.245026
0.035175
0.244956
0.0405056
0.244922
0.0458046
0.244942
0.0510995
0.245037
0.0564122
0.245229
0.06176
0.245544
0.0671555
0.246014
0.0726075
0.246673
0.0781206
0.247562
0.0836958
0.248725
0.0893298
0.250216
0.0950145
0.252097
0.100737
0.254436
0.106476
0.257313
0.112203
0.260818
0.117881
0.265049
0.123458
0.270109
0.128867
0.276105
0.134026
0.283136
0.13883
0.291283
0.143158
0.300591
0.14687
0.31105
0.149809
0.322592
0.151816
0.15276
0.335013
0.251418
0.00657148
0.251421
0.0127403
0.251432
0.0186076
0.251456
0.0242513
0.251505
0.0297301
0.251589
0.0350909
0.251722
0.0403725
0.25192
0.0456065
0.252202
0.0508179
0.252588
0.0560263
0.253102
0.0612457
0.253772
0.0664855
0.254629
0.0717509
0.255707
0.0770425
0.257046
0.0823566
0.258691
0.0876846
0.260693
0.0930131
0.263107
0.0983224
0.265996
0.103586
0.269429
0.108771
0.273478
0.113832
0.278219
0.118716
0.283727
0.123359
0.290072
0.127681
0.29731
0.131593
0.305473
0.134995
0.314564
0.137779
0.324537
0.139836
0.335293
0.14106
0.141393
0.34666
0.257532
0.00653806
0.257599
0.0126738
0.257702
0.0185047
0.257848
0.0241053
0.258045
0.0295322
0.258307
0.0348297
0.258645
0.0400344
0.259076
0.0451754
0.259618
0.0502754
0.260294
0.055351
0.261126
0.0604136
0.262142
0.0654696
0.263372
0.0705207
0.26485
0.075564
0.266615
0.0805919
0.268708
0.085592
0.271174
0.0905466
0.274064
0.0954322
0.277431
0.100219
0.281331
0.104871
0.285819
0.109343
0.290952
0.113584
0.296778
0.117533
0.303337
0.121122
0.310653
0.124277
0.318728
0.126919
0.327536
0.128972
0.337011
0.130361
0.347049
0.131021
0.130933
0.357509
0.263794
0.00647161
0.263925
0.0125433
0.264121
0.0183081
0.264389
0.0238371
0.264738
0.029184
0.265176
0.0343909
0.265719
0.0394916
0.266382
0.0445129
0.267182
0.049475
0.268141
0.0543919
0.269282
0.0592723
0.270632
0.06412
0.272219
0.0689338
0.274075
0.0737079
0.276235
0.0784318
0.278737
0.0830902
0.28162
0.0876631
0.284927
0.092125
0.288702
0.0964451
0.292986
0.100587
0.297821
0.104509
0.303243
0.108162
0.309281
0.111495
0.315951
0.114451
0.323256
0.116972
0.331176
0.118999
0.339669
0.120479
0.348664
0.121366
0.358064
0.121622
0.121247
0.367749
0.270207
0.00637197
0.270402
0.0123485
0.270692
0.0180175
0.271083
0.0234464
0.271581
0.028686
0.272196
0.0337755
0.272942
0.0387463
0.273832
0.0436228
0.274884
0.0484226
0.276118
0.0531574
0.277557
0.0578337
0.279225
0.0624527
0.281147
0.067011
0.283355
0.0715007
0.285877
0.0759093
0.288747
0.0802201
0.291999
0.0844117
0.295665
0.0884584
0.29978
0.0923302
0.304374
0.0959929
0.309475
0.0994081
0.315102
0.102535
0.321269
0.105329
0.327974
0.107745
0.335206
0.10974
0.342932
0.111273
0.351103
0.112308
0.359651
0.112819
0.368485
0.112787
0.112225
0.377508
0.276774
0.00623924
0.277033
0.0120895
0.277417
0.0176334
0.277929
0.0229343
0.278575
0.0280398
0.279364
0.0329863
0.280308
0.0378028
0.281419
0.042511
0.282716
0.0471264
0.284214
0.0516587
0.285936
0.0561121
0.287903
0.060486
0.290138
0.0647754
0.292668
0.068971
0.295518
0.0730592
0.298715
0.0770227
0.302287
0.0808402
0.306258
0.0844872
0.310652
0.0879356
0.315491
0.0911546
0.320788
0.0941112
0.326552
0.0967706
0.332782
0.099098
0.339468
0.101059
0.346586
0.102622
0.354099
0.10376
0.361956
0.104452
0.370091
0.104683
0.378428
0.104451
0.103771
0.386881
0.283498
0.00607379
0.28382
0.0117672
0.284297
0.0171571
0.284928
0.0223028
0.28572
0.0272484
0.286678
0.0320276
0.287814
0.0366668
0.28914
0.0411854
0.290669
0.0455969
0.292419
0.049909
0.294407
0.0541242
0.296652
0.0582407
0.299176
0.0622522
0.301998
0.0661488
0.30514
0.0699166
0.308624
0.0735386
0.31247
0.0769947
0.316695
0.0802621
0.321315
0.083316
0.32634
0.0861295
0.331776
0.088675
0.337622
0.0909248
0.343868
0.092852
0.350495
0.0944317
0.357475
0.0956424
0.364768
0.0964673
0.372324
0.0968953
0.380085
0.0969229
0.387982
0.0965533
0.095807
0.395946
0.290384
0.00587625
0.290768
0.0113828
0.291335
0.0165908
0.292083
0.0215549
0.293015
0.0263159
0.294138
0.0309049
0.295459
0.0353457
0.296989
0.0396556
0.29874
0.043846
0.300725
0.0479231
0.302961
0.0518882
0.305464
0.0557385
0.308249
0.0594673
0.311333
0.0630642
0.314734
0.066516
0.318466
0.0698066
0.322543
0.0729177
0.326976
0.0758291
0.331772
0.0785192
0.336936
0.0809658
0.342464
0.0831466
0.348349
0.0850402
0.354574
0.0866268
0.361117
0.0878894
0.367945
0.0888143
0.375019
0.0893928
0.382293
0.0896212
0.389714
0.089502
0.397224
0.0890432
0.0882662
0.404765
0.297435
0.00564749
0.297879
0.0109381
0.298533
0.0159369
0.299394
0.0206943
0.300462
0.0252476
0.301742
0.0296251
0.30324
0.0338481
0.304963
0.0379321
0.306922
0.0418868
0.309128
0.045717
0.311593
0.0494233
0.31433
0.053002
0.31735
0.0564465
0.320668
0.0597467
0.324293
0.0628904
0.328237
0.0658629
0.332507
0.0686481
0.337107
0.0712287
0.34204
0.0735866
0.347302
0.075704
0.352885
0.0775636
0.358775
0.0791496
0.364954
0.0804483
0.371394
0.0814488
0.378065
0.0821438
0.384928
0.0825301
0.39194
0.0826091
0.399054
0.0823872
0.406222
0.0818752
0.0810937
0.413395
0.304654
0.00538857
0.305157
0.0104351
0.305895
0.0151988
0.306864
0.0197255
0.308062
0.0240493
0.309492
0.0281956
0.311156
0.0321836
0.313061
0.0360268
0.315215
0.0397335
0.317624
0.0433076
0.320299
0.0467488
0.323247
0.0500535
0.326479
0.0532151
0.330001
0.0562245
0.333821
0.0590705
0.337943
0.0617404
0.342371
0.0642203
0.347104
0.0664959
0.352138
0.0685527
0.357465
0.0703767
0.363073
0.0719553
0.368945
0.0732774
0.37506
0.0743341
0.381389
0.0751194
0.387902
0.0756307
0.394563
0.0758688
0.401334
0.0758384
0.408173
0.075548
0.415039
0.0750097
0.0742431
0.421889
0.312046
0.00510071
0.312605
0.00987631
0.313424
0.0143802
0.314496
0.0186536
0.315817
0.0227275
0.317388
0.0266247
0.31921
0.0303622
0.321285
0.0339517
0.323618
0.0374004
0.326214
0.0407113
0.329079
0.0438839
0.332218
0.0469146
0.335636
0.0497972
0.339336
0.0525237
0.343323
0.0550844
0.347595
0.0574683
0.352151
0.0596642
0.356986
0.0616604
0.362093
0.0634457
0.36746
0.0650099
0.373072
0.0663439
0.378908
0.0674406
0.384947
0.0682951
0.391162
0.068905
0.397522
0.0692709
0.403994
0.0693964
0.410544
0.0692882
0.417136
0.0689559
0.423734
0.068412
0.0676744
0.430303
0.319615
0.00478521
0.320227
0.00926426
0.321122
0.0134848
0.322292
0.0174839
0.32373
0.0212892
0.325434
0.024921
0.327402
0.0283943
0.329635
0.0317192
0.332133
0.0349019
0.3349
0.0379448
0.337936
0.0408471
0.341245
0.0436056
0.344828
0.0462149
0.348683
0.048668
0.352811
0.0509566
0.357207
0.053072
0.361867
0.0550048
0.366781
0.0567463
0.371938
0.0582881
0.377325
0.059623
0.382924
0.060745
0.388715
0.0616502
0.394673
0.0623365
0.400774
0.0628045
0.406988
0.0630567
0.413286
0.0630986
0.419636
0.0629378
0.426008
0.0625845
0.432369
0.0620506
0.0613525
0.438691
0.327365
0.00444345
0.328028
0.00860163
0.328996
0.0125168
0.330258
0.016222
0.331805
0.0197414
0.333633
0.0230932
0.335737
0.0262902
0.338115
0.0293414
0.340765
0.0322518
0.343687
0.0350235
0.346878
0.0376556
0.350338
0.0401454
0.354065
0.0424882
0.358055
0.0446781
0.362303
0.0467086
0.366802
0.0485725
0.371544
0.0502628
0.376518
0.0517728
0.381709
0.0530967
0.387103
0.0542298
0.392679
0.0551687
0.398417
0.0559118