/*--------------------------------*- C++ -*----------------------------------*\
  =========                 |
  \\      /  F ield         | OpenFOAM: The Open Source CFD Toolbox
   \\    /   O peration     | Website:  https://openfoam.org
    \\  /    A nd           | Version:  dev
     \\/     M anipulation  |
\*---------------------------------------------------------------------------*/
FoamFile
{
    version     2.0;
    format      ascii;
    class       volVectorField;
    location    "2.8";
    object      U;
}
// * * * * * * * * * * * * * * * * * * * * * * * * * * * * * * * * * * * * * //

dimensions      [0 1 -1 0 0 0 0];

internalField   nonuniform List<vector> 
2790
(
(9.94399 0 0.0205238)
(9.87572 0 0.0295889)
(9.7752 0 0.0359914)
(9.64942 0 0.0425587)
(9.50406 0 0.0493887)
(9.34003 0 0.0564322)
(9.15649 0 0.0638203)
(8.95255 0 0.0717166)
(8.72738 0 0.0802606)
(8.47998 0 0.0895793)
(8.20916 0 0.0997995)
(7.91351 0 0.111051)
(7.59154 0 0.123466)
(7.24162 0 0.137171)
(6.86216 0 0.152278)
(6.45162 0 0.168875)
(6.0087 0 0.187002)
(5.5325 0 0.206623)
(5.02279 0 0.227593)
(4.48028 0 0.249612)
(3.907 0 0.272176)
(3.30669 0 0.294523)
(2.68516 0 0.315616)
(2.05052 0 0.334283)
(1.41171 0 0.350599)
(0.797979 0 0.372878)
(0.11063 0 0.325002)
(-0.469504 0 -0.114863)
(-0.45376 0 -0.297096)
(-0.231142 0 -0.423815)
(9.9985 0 0.0407048)
(9.98145 0 0.0623865)
(9.93573 0 0.0791458)
(9.86414 0 0.0966323)
(9.77094 0 0.115133)
(9.65711 0 0.134499)
(9.522 0 0.154987)
(9.36478 0 0.176957)
(9.18463 0 0.200722)
(8.98057 0 0.226565)
(8.75141 0 0.25476)
(8.49575 0 0.285576)
(8.21205 0 0.319264)
(7.89866 0 0.356036)
(7.55387 0 0.396032)
(7.17602 0 0.439272)
(6.76361 0 0.485599)
(6.31548 0 0.53459)
(5.83108 0 0.585461)
(5.31072 0 0.636949)
(4.756 0 0.687195)
(4.17028 0 0.733634)
(3.55918 0 0.772937)
(2.93146 0 0.801075)
(2.29987 0 0.81373)
(1.6929 0 0.807235)
(1.10711 0 0.747222)
(0.658873 0 0.547903)
(0.186369 0 0.224566)
(-0.00818656 0 -0.453722)
(9.99559 0 0.04321)
(9.97555 0 0.075278)
(9.93179 0 0.103356)
(9.86488 0 0.132384)
(9.77775 0 0.163075)
(9.67151 0 0.195417)
(9.54582 0 0.229764)
(9.40007 0 0.266626)
(9.23357 0 0.306495)
(9.04554 0 0.349832)
(8.83497 0 0.397097)
(8.60068 0 0.448747)
(8.3413 0 0.505215)
(8.05535 0 0.566884)
(7.74121 0 0.634027)
(7.39727 0 0.706742)
(7.02194 0 0.784843)
(6.61379 0 0.867723)
(6.17177 0 0.954187)
(5.69548 0 1.04224)
(5.18549 0 1.12886)
(4.64383 0 1.20976)
(4.07469 0 1.27913)
(3.48529 0 1.3293)
(2.88678 0 1.35005)
(2.29942 0 1.32639)
(1.73181 0 1.22074)
(1.21623 0 0.972982)
(0.701123 0 0.570136)
(0.358015 0 -0.156579)
(9.99403 0 0.0495036)
(9.9718 0 0.0932151)
(9.92787 0 0.133585)
(9.86223 0 0.174227)
(9.7769 0 0.216455)
(9.67294 0 0.260687)
(9.55026 0 0.307459)
(9.40842 0 0.357447)
(9.24694 0 0.411325)
(9.06523 0 0.46974)
(8.86257 0 0.533337)
(8.63806 0 0.602756)
(8.3907 0 0.678622)
(8.11936 0 0.7615)
(7.82283 0 0.85184)
(7.49984 0 0.949887)
(7.14907 0 1.05555)
(6.76927 0 1.16823)
(6.35933 0 1.28659)
(5.91845 0 1.40824)
(5.44639 0 1.52943)
(4.94388 0 1.64464)
(4.41307 0 1.74609)
(3.85819 0 1.82317)
(3.28576 0 1.86131)
(2.70636 0 1.84028)
(2.12562 0 1.72596)
(1.55424 0 1.47783)
(0.957941 0 1.08368)
(0.509423 0 0.502313)
(9.99331 0 0.0572192)
(9.96994 0 0.11097)
(9.92592 0 0.162121)
(9.86144 0 0.213371)
(9.77796 0 0.266385)
(9.67631 0 0.321948)
(9.55648 0 0.38074)
(9.41814 0 0.44353)
(9.26088 0 0.5111)
(9.08422 0 0.584215)
(8.88758 0 0.663631)
(8.67025 0 0.750105)
(8.43144 0 0.844372)
(8.17029 0 0.947115)
(7.8859 0 1.0589)
(7.5773 0 1.18009)
(7.24348 0 1.31069)
(6.88343 0 1.45017)
(6.49611 0 1.5972)
(6.08057 0 1.74928)
(5.63602 0 1.90236)
(5.162 0 2.05025)
(4.65868 0 2.18411)
(4.12714 0 2.29167)
(3.56935 0 2.35649)
(2.98886 0 2.35726)
(2.38682 0 2.2649)
(1.76638 0 2.04761)
(1.08999 0 1.69138)
(0.536652 0 1.15413)
(9.99302 0 0.0655456)
(9.96922 0 0.128716)
(9.92555 0 0.190135)
(9.86251 0 0.251872)
(9.78125 0 0.315614)
(9.6824 0 0.38236)
(9.56595 0 0.452921)
(9.43163 0 0.528152)
(9.27911 0 0.608934)
(9.10795 0 0.696139)
(8.91764 0 0.790633)
(8.70759 0 0.893275)
(8.47712 0 1.0049)
(8.2255 0 1.12629)
(7.95196 0 1.25812)
(7.65569 0 1.40082)
(7.33583 0 1.55454)
(6.99145 0 1.71884)
(6.6215 0 1.89252)
(6.22484 0 2.07317)
(5.80013 0 2.25678)
(5.34592 0 2.43712)
(4.86061 0 2.6051)
(4.34263 0 2.74813)
(3.79036 0 2.84946)
(3.20256 0 2.88812)
(2.57657 0 2.83816)
(1.91347 0 2.67157)
(1.17276 0 2.37397)
(0.549972 0 1.89439)
(9.99297 0 0.0740831)
(9.96926 0 0.146331)
(9.92636 0 0.217509)
(9.86506 0 0.289326)
(9.78639 0 0.363397)
(9.6908 0 0.440877)
(9.57828 0 0.522716)
(9.44863 0 0.609872)
(9.30155 0 0.70332)
(9.13666 0 0.804031)
(8.9535 0 0.912965)
(8.75154 0 1.03107)
(8.53016 0 1.15928)
(8.28868 0 1.29844)
(8.02639 0 1.44933)
(7.74248 0 1.6125)
(7.43608 0 1.78818)
(7.10619 0 1.97614)
(6.7516 0 2.17536)
(6.37082 0 2.38375)
(5.96194 0 2.59765)
(5.52251 0 2.81128)
(5.04943 0 3.01603)
(4.53894 0 3.19984)
(3.98663 0 3.34656)
(3.38791 0 3.43587)
(2.73727 0 3.44323)
(2.03627 0 3.34145)
(1.24177 0 3.11355)
(0.563525 0 2.69314)
(9.99306 0 0.0825977)
(9.9698 0 0.163626)
(9.92806 0 0.24408)
(9.86883 0 0.32552)
(9.79309 0 0.409496)
(9.70121 0 0.497265)
(9.59316 0 0.589905)
(9.46879 0 0.688468)
(9.32785 0 0.794016)
(9.17001 0 0.907608)
(8.99487 0 1.03029)
(8.80193 0 1.16311)
(8.59062 0 1.30707)
(8.3603 0 1.46314)
(8.11022 0 1.63219)
(7.83957 0 1.81489)
(7.54737 0 2.01166)
(7.23244 0 2.22248)
(6.89328 0 2.44668)
(6.52796 0 2.6826)
(6.13391 0 2.92724)
(5.7077 0 3.17564)
(5.24486 0 3.42021)
(4.73972 0 3.65004)
(4.18546 0 3.85009)
(3.57477 0 4.00076)
(2.89956 0 4.07781)
(2.16216 0 4.05233)
(1.31616 0 3.90168)
(0.583238 0 3.54017)
(9.99326 0 0.0909395)
(9.97072 0 0.180431)
(9.93045 0 0.269702)
(9.8736 0 0.360287)
(9.80114 0 0.453704)
(9.71338 0 0.551277)
(9.61031 0 0.654188)
(9.49179 0 0.76358)
(9.35764 0 0.880594)
(9.2076 0 1.00637)
(9.04129 0 1.14205)
(8.85829 0 1.28875)
(8.65806 0 1.4476)
(8.43999 0 1.61965)
(8.20333 0 1.80591)
(7.9472 0 2.00723)
(7.67052 0 2.22424)
(7.3719 0 2.45724)
(7.04954 0 2.70598)
(6.70103 0 2.96946)
(6.32314 0 3.24552)
(5.91148 0 3.53037)
(5.46024 0 3.81788)
(4.96194 0 4.09879)
(4.4074 0 4.35968)
(3.78644 0 4.58194)
(3.08764 0 4.74096)
(2.31279 0 4.8044)
(1.41071 0 4.74109)
(0.614341 0 4.44197)
(9.99352 0 0.0990049)
(9.9719 0 0.196605)
(9.93339 0 0.294234)
(9.87922 0 0.393469)
(9.81036 0 0.495821)
(9.72711 0 0.602665)
(9.62946 0 0.71527)
(9.51732 0 0.834858)
(9.39056 0 0.962647)
(9.24898 0 1.09985)
(9.09228 0 1.2477)
(8.92008 0 1.40739)
(8.7319 0 1.58016)
(8.52717 0 1.76718)
(8.30516 0 1.96961)
(8.06497 0 2.18851)
(7.80543 0 2.42479)
(7.525 0 2.67913)
(7.22162 0 2.95184)
(6.89249 0 3.2427)
(6.53378 0 3.55062)
(6.14027 0 3.87329)
(5.70491 0 4.20647)
(5.2184 0 4.54313)
(4.66898 0 4.87219)
(4.04293 0 5.17676)
(3.3238 0 5.43216)
(2.5099 0 5.60191)
(1.54198 0 5.64354)
(0.664112 0 5.41815)
(9.99384 0 0.106718)
(9.9733 0 0.212029)
(9.93678 0 0.317546)
(9.88555 0 0.424915)
(9.8206 0 0.535662)
(9.74219 0 0.651208)
(9.65037 0 0.772887)
(9.54508 0 0.901995)
(9.42625 0 1.03982)
(9.29375 0 1.18764)
(9.14734 0 1.34676)
(8.98673 0 1.51847)
(8.8115 0 1.7041)
(8.62116 0 1.90496)
(8.41502 0 2.12238)
(8.19221 0 2.35764)
(7.95154 0 2.61197)
(7.69144 0 2.8865)
(7.40971 0 3.1822)
(7.10331 0 3.49972)
(6.76805 0 3.83928)
(6.39809 0 4.2003)
(5.98537 0 4.58089)
(5.51898 0 4.97701)
(4.98437 0 5.381)
(4.36335 0 5.77928)
(3.63207 0 6.14894)
(2.78033 0 6.4506)
(1.73364 0 6.62861)
(0.744931 0 6.50332)
(9.9942 0 0.114022)
(9.97486 0 0.226607)
(9.94054 0 0.339522)
(9.89249 0 0.454489)
(9.83169 0 0.573066)
(9.75845 0 0.696707)
(9.6728 0 0.826806)
(9.57477 0 0.964717)
(9.46435 0 1.11178)
(9.34146 0 1.26936)
(9.20596 0 1.43879)
(9.05763 0 1.62147)
(8.89618 0 1.81882)
(8.72117 0 2.03227)
(8.53204 0 2.26332)
(8.32801 0 2.5135)
(8.10797 0 2.78436)
(7.87042 0 3.07753)
(7.61321 0 3.39463)
(7.33334 0 3.73733)
(7.02656 0 4.10723)
(6.68683 0 4.50573)
(6.30564 0 4.93375)
(5.87094 0 5.39104)
(5.36575 0 5.87493)
(4.76701 0 6.37786)
(4.04096 0 6.88294)
(3.16179 0 7.35341)
(2.02507 0 7.72339)
(0.880916 0 7.75753)
(9.99459 0 0.120871)
(9.97656 0 0.24026)
(9.9446 0 0.360062)
(9.89993 0 0.482074)
(9.84352 0 0.607887)
(9.77569 0 0.738992)
(9.69653 0 0.876823)
(9.60612 0 1.02278)
(9.50449 0 1.17827)
(9.39167 0 1.34467)
(9.2676 0 1.52341)
(9.13217 0 1.71594)
(8.98519 0 1.92376)
(8.82636 0 2.14843)
(8.65526 0 2.39159)
(8.47127 0 2.65501)
(8.27349 0 2.94056)
(8.06062 0 3.25032)
(7.83079 0 3.58659)
(7.58132 0 3.95201)
(7.30834 0 4.34958)
(7.00624 0 4.78281)
(6.66688 0 5.25567)
(6.27825 0 5.77244)
(5.82239 0 6.33713)
(5.27261 0 6.95187)
(4.58487 0 7.61321)
(3.71049 0 8.30076)
(2.48876 0 8.95852)
(1.12484 0 9.29407)
(9.99501 0 0.12723)
(9.97837 0 0.252924)
(9.94889 0 0.379081)
(9.90777 0 0.507568)
(9.85594 0 0.640009)
(9.79375 0 0.777923)
(9.72133 0 0.922778)
(9.63881 0 1.07601)
(9.54632 0 1.23906)
(9.44394 0 1.41335)
(9.33173 0 1.60034)
(9.20968 0 1.80154)
(9.07774 0 2.01851)
(8.93579 0 2.25291)
(8.78358 0 2.50652)
(8.62072 0 2.78128)
(8.4466 0 3.07934)
(8.26029 0 3.40318)
(8.0604 0 3.75569)
(7.84489 0 4.14033)
(7.61075 0 4.5614)
(7.35355 0 5.02432)
(7.06668 0 5.53602)
(6.74007 0 6.10551)
(6.35777 0 6.74452)
(5.89419 0 7.46815)
(5.30125 0 8.29563)
(4.50972 0 9.2476)
(3.26992 0 10.3422)
(1.60581 0 11.3609)
(9.99544 0 0.133072)
(9.98026 0 0.264547)
(9.95337 0 0.396508)
(9.91593 0 0.530878)
(9.86883 0 0.669311)
(9.81246 0 0.813346)
(9.74698 0 0.964477)
(9.67259 0 1.12417)
(9.58947 0 1.29387)
(9.49782 0 1.47504)
(9.39778 0 1.66917)
(9.28949 0 1.87778)
(9.17304 0 2.1025)
(9.04847 0 2.34503)
(8.9158 0 2.60726)
(8.77489 0 2.89125)
(8.62552 0 3.19935)
(8.46723 0 3.53433)
(8.29931 0 3.89948)
(8.12062 0 4.2989)
(7.92945 0 4.7378)
(7.72328 0 5.22303)
(7.49826 0 5.76382)
(7.24854 0 6.37298)
(6.96464 0 7.06897)
(6.63108 0 7.87966)
(6.21512 0 8.85055)
(5.66737 0 10.0648)
(4.69263 0 11.7311)
(2.68949 0 14.5964)
(0.16092 0 -0.168801)
(0.365315 0 -0.148862)
(0.579078 0 -0.12107)
(0.766373 0 -0.0970794)
(0.922065 0 -0.0780254)
(1.05182 0 -0.0630649)
(1.16196 0 -0.0513404)
(1.25707 0 -0.0421583)
(1.3403 0 -0.0349084)
(1.41388 0 -0.0290693)
(1.47936 0 -0.0242511)
(1.53785 0 -0.0201948)
(1.59016 0 -0.0166798)
(1.63669 0 -0.0133473)
(1.67695 0 -0.00963574)
(1.70904 0 -0.0051028)
(1.73042 0 -8.5415e-06)
(1.74017 0 0.00456695)
(1.74011 0 0.00722944)
(1.73322 0 0.00820749)
(1.72135 0 0.00816598)
(1.70552 0 0.0076824)
(1.68885 0 0.00624148)
(1.67693 0 0.00391837)
(1.67553 0 0.000933903)
(1.68767 0 -0.00213024)
(1.71296 0 -0.00500384)
(1.74974 0 -0.0076414)
(1.79523 0 -0.00961042)
(1.85523 0 -0.00930503)
(0.124913 0 -0.361772)
(0.319284 0 -0.333106)
(0.511368 0 -0.278265)
(0.682075 0 -0.228648)
(0.827342 0 -0.188813)
(0.951856 0 -0.157463)
(1.06064 0 -0.132904)
(1.15734 0 -0.113679)
(1.24449 0 -0.0984565)
(1.32386 0 -0.0860895)
(1.39664 0 -0.0757379)
(1.46366 0 -0.0669158)
(1.52563 0 -0.0592946)
(1.58333 0 -0.0521841)
(1.63723 0 -0.0442119)
(1.68654 0 -0.0341354)
(1.72898 0 -0.0226345)
(1.7623 0 -0.0121557)
(1.78733 0 -0.00394894)
(1.80763 0 0.00390685)
(1.82448 0 0.0107968)
(1.83549 0 0.0134432)
(1.84327 0 0.0108674)
(1.85211 0 0.00366121)
(1.86234 0 -0.00623709)
(1.87501 0 -0.0167953)
(1.89022 0 -0.0267637)
(1.9075 0 -0.0349331)
(1.92683 0 -0.0399552)
(1.9557 0 -0.0380788)
(0.0912736 0 -0.556615)
(0.2521 0 -0.518191)
(0.397715 0 -0.437394)
(0.528003 0 -0.363444)
(0.638214 0 -0.303756)
(0.732647 0 -0.256462)
(0.814932 0 -0.219139)
(0.887675 0 -0.189634)
(0.952768 0 -0.16598)
(1.01154 0 -0.146468)
(1.06479 0 -0.129847)
(1.11291 0 -0.115506)
(1.15621 0 -0.103333)
(1.19547 0 -0.0927268)
(1.23212 0 -0.0813328)
(1.26646 0 -0.0657393)
(1.29669 0 -0.0462685)
(1.31838 0 -0.0304388)
(1.33105 0 -0.0235708)
(1.34235 0 -0.0197856)
(1.34503 0 -0.0127105)
(1.33079 0 -0.0059496)
(1.29902 0 -0.00391307)
(1.25471 0 -0.00678996)
(1.20737 0 -0.0117401)
(1.16263 0 -0.0158176)
(1.12317 0 -0.0183142)
(1.08754 0 -0.0215195)
(1.06106 0 -0.0249313)
(1.05628 0 -0.0272061)
(0.0607074 0 -0.698527)
(0.178697 0 -0.644223)
(0.267769 0 -0.540667)
(0.350175 0 -0.448587)
(0.416637 0 -0.374713)
(0.472287 0 -0.316107)
(0.519062 0 -0.269815)
(0.558511 0 -0.233168)
(0.59192 0 -0.20374)
(0.620279 0 -0.179361)
(0.644157 0 -0.158316)
(0.663562 0 -0.139701)
(0.67791 0 -0.12367)
(0.686503 0 -0.110633)
(0.691938 0 -0.0993949)
(0.697001 0 -0.0862099)
(0.705135 0 -0.067736)
(0.706445 0 -0.0418403)
(0.658157 0 -0.0154366)
(0.583001 0 0.00423076)
(0.520829 0 0.0243815)
(0.470697 0 0.0424598)
(0.418951 0 0.051852)
(0.367027 0 0.0508975)
(0.319167 0 0.0403522)
(0.28051 0 0.0236396)
(0.267214 0 0.00527008)
(0.268513 0 -0.0117799)
(0.28431 0 -0.0318377)
(0.322975 0 -0.0525657)
(0.0299055 0 -0.790747)
(0.0970218 0 -0.715709)
(0.122287 0 -0.592992)
(0.152156 0 -0.48913)
(0.16818 0 -0.405794)
(0.177967 0 -0.339442)
(0.181367 0 -0.286893)
(0.179155 0 -0.245208)
(0.172107 0 -0.211773)
(0.161013 0 -0.184213)
(0.146595 0 -0.160407)
(0.129235 0 -0.138718)
(0.108374 0 -0.118273)
(0.0774704 0 -0.09897)
(0.0343112 0 -0.0792744)
(-0.0211216 0 -0.0549659)
(-0.0828247 0 -0.0229668)
(-0.136465 0 0.0126903)
(-0.164108 0 0.0379896)
(-0.193982 0 0.0495079)
(-0.220106 0 0.0557725)
(-0.24267 0 0.0620282)
(-0.262068 0 0.0636054)
(-0.276756 0 0.0562292)
(-0.287059 0 0.0400112)
(-0.293647 0 0.0178867)
(-0.293003 0 -0.00479559)
(-0.282681 0 -0.0250012)
(-0.274054 0 -0.045055)
(-0.268132 0 -0.0610693)
(-0.00299845 0 -0.824456)
(0.00616245 0 -0.725462)
(-0.0349701 0 -0.587001)
(-0.0622703 0 -0.476616)
(-0.101264 0 -0.387499)
(-0.14287 0 -0.316716)
(-0.188487 0 -0.260622)
(-0.23753 0 -0.215904)
(-0.289648 0 -0.179626)
(-0.344396 0 -0.149333)
(-0.400878 0 -0.122999)
(-0.457633 0 -0.0990686)
(-0.51315 0 -0.076721)
(-0.566402 0 -0.0559518)
(-0.616168 0 -0.0367332)
(-0.660846 0 -0.0187548)
(-0.699382 0 -0.000249554)
(-0.722161 0 0.0183482)
(-0.740151 0 0.0374834)
(-0.754707 0 0.0531948)
(-0.765448 0 0.0622184)
(-0.771415 0 0.0665815)
(-0.772666 0 0.0653728)
(-0.770369 0 0.0564204)
(-0.76687 0 0.0400084)
(-0.76407 0 0.0187908)
(-0.761879 0 -0.00381127)
(-0.757985 0 -0.0266143)
(-0.757956 0 -0.0468991)
(-0.760778 0 -0.0624084)
(-0.0417325 0 -0.791451)
(-0.0957996 0 -0.668003)
(-0.198895 0 -0.525)
(-0.28768 0 -0.413267)
(-0.380418 0 -0.324305)
(-0.471443 0 -0.254465)
(-0.560136 0 -0.199844)
(-0.645212 0 -0.157203)
(-0.72556 0 -0.123647)
(-0.800405 0 -0.0967902)
(-0.869192 0 -0.0747225)
(-0.931466 0 -0.0559196)
(-0.986947 0 -0.0392593)
(-1.03569 0 -0.0239753)
(-1.07818 0 -0.00935259)
(-1.11331 0 0.00508111)
(-1.13867 0 0.0196002)
(-1.15763 0 0.0340759)
(-1.17058 0 0.0474118)
(-1.17822 0 0.0577011)
(-1.18118 0 0.0639009)
(-1.17962 0 0.0658243)
(-1.1742 0 0.062514)
(-1.16662 0 0.0526781)
(-1.15925 0 0.0365412)
(-1.15396 0 0.0161101)
(-1.15126 0 -0.00579299)
(-1.15042 0 -0.0270651)
(-1.15393 0 -0.0469581)
(-1.15838 0 -0.0620757)
(-0.0862416 0 -0.691541)
(-0.200772 0 -0.550024)
(-0.364158 0 -0.408878)
(-0.508842 0 -0.302389)
(-0.646552 0 -0.221694)
(-0.772912 0 -0.16111)
(-0.887319 0 -0.115708)
(-0.989771 0 -0.0819533)
(-1.08058 0 -0.0570347)
(-1.16038 0 -0.038508)
(-1.23 0 -0.0243705)
(-1.29021 0 -0.013093)
(-1.341 0 -0.0035884)
(-1.38344 0 0.00513155)
(-1.4182 0 0.0136979)
(-1.44664 0 0.0226851)
(-1.46969 0 0.0325994)
(-1.48675 0 0.0430662)
(-1.49761 0 0.0525272)
(-1.50275 0 0.0594199)
(-1.50296 0 0.0629589)
(-1.49897 0 0.0627115)
(-1.49185 0 0.0579211)
(-1.4833 0 0.0478046)
(-1.47543 0 0.0325959)
(-1.47007 0 0.013835)
(-1.46813 0 -0.00631456)
(-1.46982 0 -0.0261896)
(-1.47567 0 -0.0448817)
(-1.4807 0 -0.0587487)
(-0.136932 0 -0.526352)
(-0.310875 0 -0.376511)
(-0.529589 0 -0.248376)
(-0.720627 0 -0.157759)
(-0.892649 0 -0.0924711)
(-1.0426 0 -0.0469454)
(-1.16893 0 -0.0177086)
(-1.27403 0 0.000317573)
(-1.36193 0 0.0113985)
(-1.43586 0 0.0182152)
(-1.49846 0 0.0225771)
(-1.55165 0 0.0256705)
(-1.59755 0 0.0284235)
(-1.63685 0 0.0314314)
(-1.67012 0 0.0351481)
(-1.69775 0 0.0398599)
(-1.71976 0 0.0455497)
(-1.73595 0 0.0516756)
(-1.74626 0 0.0571006)
(-1.75109 0 0.0606375)
(-1.75113 0 0.0615539)
(-1.74731 0 0.0593595)
(-1.74089 0 0.053441)
(-1.7335 0 0.0432701)
(-1.72701 0 0.0290603)
(-1.72314 0 0.0120319)
(-1.72307 0 -0.00610741)
(-1.72753 0 -0.0240965)
(-1.73566 0 -0.0410735)
(-1.74131 0 -0.0533221)
(-0.198439 0 -0.309904)
(-0.442355 0 -0.162341)
(-0.714309 0 -0.0342603)
(-0.926199 0 0.0295744)
(-1.10122 0 0.0608204)
(-1.24414 0 0.073781)
(-1.36334 0 0.0778189)
(-1.46426 0 0.0773748)
(-1.54997 0 0.074479)
(-1.62303 0 0.0705152)
(-1.68557 0 0.0663864)
(-1.73921 0 0.062595)
(-1.78506 0 0.0594036)
(-1.82395 0 0.0570944)
(-1.85656 0 0.0560437)
(-1.88344 0 0.0564516)
(-1.90492 0 0.0580954)
(-1.92103 0 0.0602676)
(-1.9318 0 0.0619703)
(-1.9375 0 0.0623021)
(-1.93873 0 0.0606972)
(-1.93649 0 0.0567445)
(-1.93208 0 0.0499499)
(-1.92708 0 0.0398965)
(-1.92311 0 0.026734)
(-1.92174 0 0.0114283)
(-1.92432 0 -0.00467906)
(-1.93181 0 -0.0206874)
(-1.94228 0 -0.0358061)
(-1.94866 0 -0.0465315)
(-0.26467 0 0.0518132)
(-0.541645 0 0.17021)
(-0.821993 0 0.19833)
(-1.04317 0 0.206631)
(-1.22567 0 0.200811)
(-1.37589 0 0.187814)
(-1.49989 0 0.171886)
(-1.60277 0 0.155176)
(-1.68868 0 0.138888)
(-1.76096 0 0.123927)
(-1.82231 0 0.110839)
(-1.87471 0 0.0996474)
(-1.91942 0 0.0901349)
(-1.95721 0 0.0823045)
(-1.9888 0 0.076446)
(-2.01495 0 0.0726839)
(-2.03624 0 0.0705903)
(-2.05287 0 0.0692378)
(-2.06483 0 0.0676029)
(-2.07217 0 0.0649666)
(-2.07541 0 0.0609975)
(-2.07553 0 0.0554717)
(-2.0739 0 0.048008)
(-2.07203 0 0.0381969)
(-2.0713 0 0.0260575)
(-2.0731 0 0.0123385)
(-2.0788 0 -0.00184096)
(-2.08934 0 -0.0158478)
(-2.10226 0 -0.0290942)
(-2.10948 0 -0.0384923)
(-0.288403 0 0.42285)
(-0.595217 0 0.467149)
(-0.909616 0 0.4414)
(-1.14885 0 0.399241)
(-1.33829 0 0.352756)
(-1.48875 0 0.307806)
(-1.60981 0 0.267395)
(-1.70869 0 0.232184)
(-1.79043 0 0.201573)
(-1.85866 0 0.175346)
(-1.91643 0 0.153491)
(-1.96606 0 0.135332)
(-2.00874 0 0.11986)
(-2.04493 0 0.106702)
(-2.07522 0 0.0962276)
(-2.1006 0 0.0886558)
(-2.12199 0 0.0833429)
(-2.13969 0 0.0789963)
(-2.15345 0 0.0744145)
(-2.16304 0 0.0690178)
(-2.16875 0 0.0628047)
(-2.17162 0 0.0558521)
(-2.17312 0 0.0478959)
(-2.17471 0 0.0384414)
(-2.17758 0 0.027298)
(-2.18292 0 0.0149985)
(-2.19221 0 0.00254479)
(-2.20601 0 -0.00951619)
(-2.22154 0 -0.0208953)
(-2.22974 0 -0.0291035)
(-0.332813 0 0.843753)
(-0.688482 0 0.823278)
(-1.03143 0 0.708295)
(-1.27142 0 0.596134)
(-1.45186 0 0.501665)
(-1.59033 0 0.422014)
(-1.69919 0 0.356527)
(-1.7875 0 0.303568)
(-1.86062 0 0.259514)
(-1.92158 0 0.222646)
(-1.97348 0 0.192866)
(-2.01904 0 0.168804)
(-2.05916 0 0.148169)
(-2.0935 0 0.130036)
(-2.12227 0 0.115202)
(-2.14682 0 0.104341)
(-2.16857 0 0.0965495)
(-2.18792 0 0.089877)
(-2.20417 0 0.0827349)
(-2.21653 0 0.0746922)
(-2.22503 0 0.0662548)
(-2.2308 0 0.0579699)
(-2.23557 0 0.0497034)
(-2.24084 0 0.0407616)
(-2.24762 0 0.0306386)
(-2.2568 0 0.0196233)
(-2.26981 0 0.00865374)
(-2.28729 0 -0.00161285)
(-2.30547 0 -0.0111408)
(-2.31478 0 -0.0181705)
(-0.421636 0 1.34539)
(-0.851975 0 1.22925)
(-1.21348 0 0.981119)
(-1.42478 0 0.776389)
(-1.57261 0 0.633271)
(-1.68442 0 0.520123)
(-1.77063 0 0.431679)
(-1.84156 0 0.364889)
(-1.90227 0 0.310355)
(-1.95329 0 0.263994)
(-1.99715 0 0.227579)
(-2.03763 0 0.199504)
(-2.07525 0 0.175078)
(-2.10794 0 0.152366)
(-2.135 0 0.133303)
(-2.15847 0 0.119806)
(-2.18084 0 0.110595)
(-2.20258 0 0.10247)
(-2.22218 0 0.0931338)
(-2.23791 0 0.0823849)
(-2.2494 0 0.0715609)
(-2.25805 0 0.0619594)
(-2.26606 0 0.0535856)
(-2.27515 0 0.0453566)
(-2.28608 0 0.0362862)
(-2.29936 0 0.0263895)
(-2.31623 0 0.0166386)
(-2.3375 0 0.00794439)
(-2.35867 0 0.000278174)
(-2.36915 0 -0.00545981)
(-0.608404 0 2.22815)
(-1.12677 0 1.83914)
(-1.4951 0 1.27078)
(-1.62256 0 0.889501)
(-1.69938 0 0.72245)
(-1.76989 0 0.593529)
(-1.82242 0 0.488282)
(-1.86929 0 0.413594)
(-1.91612 0 0.352394)
(-1.95595 0 0.296528)
(-1.98942 0 0.255088)
(-2.02395 0 0.226778)
(-2.06012 0 0.201167)
(-2.09214 0 0.174064)
(-2.11726 0 0.150198)
(-2.13906 0 0.134678)
(-2.16226 0 0.125577)
(-2.18749 0 0.117176)
(-2.21167 0 0.105941)
(-2.2315 0 0.0921173)
(-2.24605 0 0.078437)
(-2.25729 0 0.067432)
(-2.26835 0 0.0592479)
(-2.28132 0 0.0520701)
(-2.29663 0 0.0441679)
(-2.3142 0 0.0352395)
(-2.33496 0 0.0264155)
(-2.35981 0 0.0191268)
(-2.3842 0 0.0135879)
(-2.3963 0 0.00959629)
(9.9959 0 0.138469)
(9.98224 0 0.275286)
(9.95809 0 0.412597)
(9.9245 0 0.552371)
(9.88237 0 0.696283)
(9.83209 0 0.845887)
(9.77389 0 1.00269)
(9.70801 0 1.16816)
(9.63475 0 1.34377)
(9.55437 0 1.53097)
(9.46714 0 1.73127)
(9.37332 0 1.94619)
(9.27319 0 2.17738)
(9.167 0 2.42658)
(9.055 0 2.69569)
(8.93741 0 2.98685)
(8.81443 0 3.3025)
(8.68619 0 3.64555)
(8.55276 0 4.01948)
(8.41416 0 4.42869)
(8.27032 0 4.87881)
(8.12113 0 5.37729)
(7.96656 0 5.9343)
(7.80689 0 6.5642)
(7.64339 0 7.28805)
(7.4811 0 8.13844)
(7.33344 0 9.16938)
(7.29087 0 10.4745)
(7.75305 0 12.1988)
(7.9433 0 14.9186)
(9.99638 0 0.143431)
(9.98433 0 0.285145)
(9.96304 0 0.427332)
(9.93348 0 0.57199)
(9.89651 0 0.72081)
(9.85254 0 0.87535)
(9.80186 0 1.03712)
(9.74478 0 1.20759)
(9.68166 0 1.38821)
(9.61286 0 1.58045)
(9.53879 0 1.78578)
(9.45985 0 2.00573)
(9.37649 0 2.24191)
(9.28917 0 2.49605)
(9.19843 0 2.77002)
(9.10485 0 3.06594)
(9.00906 0 3.38623)
(8.91184 0 3.73374)
(8.81409 0 4.11191)
(8.717 0 4.52501)
(8.62218 0 4.97844)
(8.532 0 5.47923)
(8.4502 0 6.03667)
(8.38305 0 6.66335)
(8.34178 0 7.37645)
(8.34852 0 8.19935)
(8.44226 0 9.16209)
(8.67907 0 10.2978)
(9.32803 0 11.5505)
(9.82146 0 12.6332)
(9.99688 0 0.14787)
(9.9865 0 0.293962)
(9.96817 0 0.44049)
(9.94279 0 0.58947)
(9.91115 0 0.742596)
(9.87369 0 0.90142)
(9.83074 0 1.06744)
(9.78268 0 1.24211)
(9.72994 0 1.42686)
(9.67299 0 1.62312)
(9.61233 0 1.83233)
(9.54852 0 2.05598)
(9.48219 0 2.29562)
(9.41402 0 2.5529)
(9.34482 0 2.82961)
(9.2755 0 3.12777)
(9.20717 0 3.44964)
(9.14116 0 3.79785)
(9.07916 0 4.17551)
(9.02339 0 4.58638)
(8.97688 0 5.03505)
(8.94389 0 5.52718)
(8.93074 0 6.06973)
(8.94695 0 6.67108)
(9.00702 0 7.34061)
(9.13311 0 8.08689)
(9.35623 0 8.91165)
(9.68576 0 9.80351)
(10.2511 0 10.7106)
(10.9378 0 11.4221)
(9.9974 0 0.151734)
(9.98873 0 0.301628)
(9.97345 0 0.451904)
(9.95235 0 0.604579)
(9.92617 0 0.761341)
(9.89536 0 0.923722)
(9.8603 0 1.0932)
(9.82142 0 1.27119)
(9.77922 0 1.45909)
(9.73426 0 1.65828)
(9.68716 0 1.87014)
(9.6386 0 2.09608)
(9.58937 0 2.33755)
(9.54037 0 2.59609)
(9.49265 0 2.87336)
(9.44743 0 3.17116)
(9.40621 0 3.49147)
(9.37081 0 3.83657)
(9.34353 0 4.20903)
(9.32734 0 4.61181)
(9.32617 0 5.04831)
(9.34532 0 5.52236)
(9.39203 0 6.03805)
(9.4762 0 6.59933)
(9.61103 0 7.20892)
(9.81331 0 7.86643)
(10.1057 0 8.56467)
(10.4969 0 9.28886)
(11.0533 0 10.0288)
(11.8447 0 10.6713)
(9.99792 0 0.154976)
(9.991 0 0.308052)
(9.97882 0 0.461439)
(9.96208 0 0.617142)
(9.94144 0 0.776825)
(9.91736 0 0.941995)
(9.89027 0 1.11409)
(9.86065 0 1.29448)
(9.82906 0 1.48452)
(9.79614 0 1.6855)
(9.76259 0 1.89872)
(9.72923 0 2.12549)
(9.69697 0 2.36714)
(9.6669 0 2.62504)
(9.64027 0 2.90065)
(9.61855 0 3.19549)
(9.60353 0 3.51122)
(9.59738 0 3.8496)
(9.60279 0 4.21255)
(9.62316 0 4.60212)
(9.66278 0 5.02039)
(9.7272 0 5.46936)
(9.82346 0 5.95064)
(9.96051 0 6.4649)
(10.1494 0 7.01102)
(10.4031 0 7.58511)
(10.739 0 8.17901)
(11.1684 0 8.77801)
(11.7144 0 9.37055)
(12.4655 0 9.88183)
(9.99845 0 0.157553)
(9.99329 0 0.313148)
(9.98425 0 0.468969)
(9.9719 0 0.62699)
(9.95683 0 0.788845)
(9.93952 0 0.955999)
(9.92042 0 1.12984)
(9.90005 0 1.31168)
(9.87902 0 1.5028)
(9.85804 0 1.7044)
(9.8379 0 1.91769)
(9.81949 0 2.14384)
(9.80386 0 2.38402)
(9.79221 0 2.63941)
(9.78594 0 2.91122)
(9.7867 0 3.20067)
(9.79646 0 3.50899)
(9.81758 0 3.83743)
(9.85293 0 4.18722)
(9.90598 0 4.55945)
(9.98102 0 4.95504)
(10.0833 0 5.37444)
(10.219 0 5.81737)
(10.3958 0 6.28238)
(10.6225 0 6.7662)
(10.9086 0 7.26303)
(11.2654 0 7.76366)
(11.7008 0 8.25255)
(12.2155 0 8.71302)
(12.8892 0 9.10362)
(9.99898 0 0.159425)
(9.99559 0 0.31684)
(9.98969 0 0.47438)
(9.98172 0 0.633978)
(9.97222 0 0.797221)
(9.96164 0 0.965524)
(9.95046 0 1.14021)
(9.93924 0 1.32253)
(9.92864 0 1.51366)
(9.91939 0 1.71471)
(9.91235 0 1.92677)
(9.90848 0 2.15086)
(9.90891 0 2.38797)
(9.9149 0 2.63908)
(9.92797 0 2.9051)
(9.94983 0 3.18693)
(9.98254 0 3.48538)
(10.0285 0 3.80118)
(10.0905 0 4.13487)
(10.1719 0 4.48675)
(10.2767 0 4.85672)
(10.4094 0 5.24407)
(10.5754 0 5.64723)
(10.7805 0 6.06338)
(11.0312 0 6.48802)
(11.3338 0 6.91449)
(11.6943 0 7.33342)
(12.117 0 7.73144)
(12.5956 0 8.09402)
(13.1992 0 8.40071)
(9.99951 0 0.160559)
(9.99788 0 0.319059)
(9.99508 0 0.477575)
(9.99147 0 0.637979)
(9.98746 0 0.801802)
(9.98352 0 0.970397)
(9.98014 0 1.14501)
(9.97789 0 1.32682)
(9.97745 0 1.5169)
(9.97959 0 1.71625)
(9.9852 0 1.92581)
(9.99528 0 2.14646)
(10.011 0 2.37899)
(10.0336 0 2.62415)
(10.0648 0 2.88259)
(10.1061 0 3.15486)
(10.1596 0 3.44137)
(10.2276 0 3.74237)
(10.3128 0 4.05782)
(10.4181 0 4.38735)
(10.5471 0 4.73011)
(10.7034 0 5.08456)
(10.8913 0 5.44831)
(11.115 0 5.81785)
(11.3789 0 6.18829)
(11.6866 0 6.55306)
(12.041 0 6.90393)
(12.4436 0 7.23059)
(12.8867 0 7.52195)
(13.4282 0 7.76675)
(10 0 0.160926)
(10.0001 0 0.319753)
(10.0004 0 0.478474)
(10.001 0 0.638892)
(10.0024 0 0.80247)
(10.005 0 0.970489)
(10.0092 0 1.14412)
(10.0156 0 1.32443)
(10.025 0 1.5124)
(10.0381 0 1.70892)
(10.0557 0 1.91477)
(10.079 0 2.13067)
(10.1091 0 2.35723)
(10.1472 0 2.59496)
(10.1949 0 2.84425)
(10.2537 0 3.10534)
(10.3257 0 3.37828)
(10.4129 0 3.66289)
(10.5177 0 3.95869)
(10.6426 0 4.26479)
(10.7905 0 4.57982)
(10.9643 0 4.90174)
(11.1671 0 5.22778)
(11.4018 0 5.55422)
(11.671 0 5.87633)
(11.9765 0 6.18828)
(12.3191 0 6.4832)
(12.6987 0 6.75329)
(13.1074 0 6.99026)
(13.594 0 7.18728)
(10.0005 0 0.160506)
(10.0023 0 0.318878)
(10.0056 0 0.477017)
(10.0104 0 0.636642)
(10.017 0 0.799142)
(10.0258 0 0.965714)
(10.0373 0 1.13744)
(10.0521 0 1.3153)
(10.0708 0 1.50015)
(10.0943 0 1.69275)
(10.1233 0 1.89375)
(10.1589 0 2.10371)
(10.2022 0 2.32304)
(10.2545 0 2.55205)
(10.3171 0 2.79088)
(10.3915 0 3.03949)
(10.4795 0 3.29764)
(10.583 0 3.56483)
(10.7038 0 3.84021)
(10.8443 0 4.12256)
(11.0064 0 4.41019)
(11.1925 0 4.70085)
(11.4045 0 4.99166)
(11.6443 0 5.27906)
(11.9132 0 5.55875)
(12.2117 0 5.82579)
(12.5394 0 6.07464)
(12.895 0 6.29944)
(13.2715 0 6.49418)
(13.7104 0 6.65471)
(10.001 0 0.159283)
(10.0044 0 0.316405)
(10.0106 0 0.473164)
(10.0194 0 0.631185)
(10.031 0 0.79177)
(10.0458 0 0.956033)
(10.0643 0 1.12496)
(10.087 0 1.29942)
(10.1146 0 1.48018)
(10.1477 0 1.66785)
(10.1873 0 1.86296)
(10.2343 0 2.0659)
(10.2897 0 2.27691)
(10.3546 0 2.49611)
(10.4304 0 2.72343)
(10.5183 0 2.95861)
(10.62 0 3.20116)
(10.7368 0 3.45035)
(10.8706 0 3.70509)
(11.0228 0 3.96397)
(11.1951 0 4.22515)
(11.3891 0 4.48637)
(11.6058 0 4.74484)
(11.8464 0 4.99733)
(12.1111 0 5.24012)
(12.3996 0 5.46914)
(12.7109 0 5.68006)
(13.0431 0 5.86854)
(13.3901 0 6.03038)
(13.7882 0 6.16305)
(10.0015 0 0.15725)
(10.0065 0 0.31232)
(10.0153 0 0.466897)
(10.028 0 0.622502)
(10.0444 0 0.780348)
(10.0649 0 0.941455)
(10.09 0 1.10672)
(10.1201 0 1.2769)
(10.1559 0 1.45264)
(10.198 0 1.63445)
(10.2473 0 1.82272)
(10.3045 0 2.01769)
(10.3707 0 2.21946)
(10.4468 0 2.42797)
(10.5341 0 2.64299)
(10.6335 0 2.86409)
(10.7464 0 3.0906)
(10.8741 0 3.32161)
(11.0177 0 3.55593)
(11.1785 0 3.79206)
(11.3576 0 4.02816)
(11.5558 0 4.26205)
(11.7738 0 4.49119)
(12.0119 0 4.71276)
(12.2698 0 4.92364)
(12.5468 0 5.12055)
(12.8413 0 5.30021)
(13.1514 0 5.45944)
(13.4718 0 5.59535)
(13.8348 0 5.70645)
(10.0019 0 0.154404)
(10.0084 0 0.306623)
(10.0199 0 0.458219)
(10.0361 0 0.610607)
(10.0571 0 0.764903)
(10.0829 0 0.922035)
(10.1141 0 1.0828)
(10.1511 0 1.24785)
(10.1945 0 1.41773)
(10.2448 0 1.59284)
(10.3028 0 1.77343)
(10.3692 0 1.95964)
(10.4449 0 2.15141)
(10.5307 0 2.34857)
(10.6277 0 2.55075)
(10.7367 0 2.75738)
(10.8587 0 2.96769)
(10.9947 0 3.18069)
(11.1456 0 3.39514)
(11.3121 0 3.60955)
(11.495 0 3.82216)
(11.6947 0 4.03097)
(11.9113 0 4.23375)
(12.1447 0 4.42808)
(12.3943 0 4.61143)
(12.6589 0 4.78123)
(12.937 0 4.93501)
(13.2266 0 5.07049)
(13.5233 0 5.18569)
(13.856 0 5.27978)
(10.0024 0 0.150753)
(10.0102 0 0.299325)
(10.0241 0 0.447154)
(10.0437 0 0.595539)
(10.0689 0 0.7455)
(10.0997 0 0.89787)
(10.1365 0 1.05334)
(10.1798 0 1.21249)
(10.2301 0 1.37574)
(10.2878 0 1.54339)
(10.3535 0 1.7156)
(10.428 0 1.89237)
(10.5119 0 2.07356)
(10.606 0 2.25889)
(10.711 0 2.44789)
(10.8277 0 2.63992)
(10.9568 0 2.83415)
(11.099 0 3.02956)
(11.2548 0 3.22492)
(11.4248 0 3.41882)
(11.6092 0 3.60964)
(11.8082 0 3.79561)
(12.0216 0 3.97481)
(12.2488 0 4.14523)
(12.489 0 4.30486)
(12.7411 0 4.4517)
(13.0035 0 4.58391)
(13.2743 0 4.6999)
(13.5498 0 4.79835)
(13.8562 0 4.87881)
(10.0027 0 0.146308)
(10.0119 0 0.290453)
(10.0281 0 0.433744)
(10.0508 0 0.577364)
(10.0798 0 0.722235)
(10.1151 0 0.869096)
(10.1571 0 1.01855)
(10.2062 0 1.17107)
(10.2625 0 1.327)
(10.3268 0 1.48654)
(10.3994 0 1.64975)
(10.4808 0 1.81656)
(10.5717 0 1.98675)
(10.6726 0 2.15994)
(10.7842 0 2.33563)
(10.9069 0 2.51312)
(11.0412 0 2.69157)
(11.1877 0 2.86998)
(11.3465 0 3.04719)
(11.518 0 3.2219)
(11.7021 0 3.39266)
(11.8988 0 3.55794)
(12.1074 0 3.71612)
(12.3275 0 3.86557)
(12.5581 0 4.0047)
(12.7979 0 4.13201)
(13.0454 0 4.24614)
(13.2991 0 4.34598)
(13.5557 0 4.43067)
(13.8393 0 4.50003)
(10.0031 0 0.141089)
(10.0134 0 0.280046)
(10.0317 0 0.418051)
(10.0573 0 0.556173)
(10.0898 0 0.695235)
(10.1293 0 0.835886)
(10.1759 0 0.978642)
(10.23 0 1.12389)
(10.2918 0 1.27189)
(10.3617 0 1.42276)
(10.4402 0 1.57649)
(10.5275 0 1.73293)
(10.6242 0 1.89182)
(10.7307 0 2.05273)
(10.8473 0 2.21512)
(10.9745 0 2.37828)
(11.1125 0 2.54142)
(11.2616 0 2.70356)
(11.4219 0 2.86364)
(11.5934 0 3.0205)
(11.7758 0 3.17287)
(11.9688 0 3.31946)
(12.1719 0 3.45893)
(12.3844 0 3.58998)
(12.6051 0 3.71136)
(12.833 0 3.82195)
(13.0668 0 3.92079)
(13.3048 0 4.0071)
(13.5446 0 4.08034)
(13.8081 0 4.14051)
(10.0034 0 0.135117)
(10.0148 0 0.26815)
(10.035 0 0.400151)
(10.0631 0 0.532074)
(10.0988 0 0.664649)
(10.142 0 0.798438)
(10.1927 0 0.933876)
(10.2513 0 1.07127)
(10.3178 0 1.21081)