/*--------------------------------*- C++ -*----------------------------------*\
  =========                 |
  \\      /  F ield         | OpenFOAM: The Open Source CFD Toolbox
   \\    /   O peration     | Website:  https://openfoam.org
    \\  /    A nd           | Version:  dev
     \\/     M anipulation  |
\*---------------------------------------------------------------------------*/
FoamFile
{
    version     2.0;
    format      ascii;
    class       surfaceVectorField;
    location    "2.8";
    object      Uf;
}
// * * * * * * * * * * * * * * * * * * * * * * * * * * * * * * * * * * * * * //

dimensions      [0 1 -1 0 0 0 0];

internalField   nonuniform List<vector> 
5457
(
(9.92088 0 0.0251105)
(9.97124 0 0.038747)
(9.82401 0 0.0328284)
(9.92858 0 0.0485877)
(9.7096 0 0.0393143)
(9.85547 0 0.058772)
(9.57541 0 0.0460145)
(9.75678 0 0.0705985)
(9.42134 0 0.0529525)
(9.6375 0 0.0830198)
(9.2475 0 0.0601704)
(9.49857 0 0.0959441)
(9.05356 0 0.0678156)
(9.33925 0 0.109621)
(8.83884 0 0.0760397)
(9.15867 0 0.124298)
(8.60242 0 0.0849756)
(8.956 0 0.140177)
(8.34315 0 0.0947504)
(8.73028 0 0.157444)
(8.05972 0 0.105493)
(8.48028 0 0.17628)
(7.75066 0 0.117333)
(8.20463 0 0.196867)
(7.4144 0 0.1304)
(7.9018 0 0.219371)
(7.04933 0 0.144815)
(7.57014 0 0.243931)
(6.65386 0 0.160676)
(7.20801 0 0.270639)
(6.22654 0 0.178047)
(6.81382 0 0.299505)
(5.76625 0 0.196929)
(6.38615 0 0.330416)
(5.27241 0 0.217233)
(5.92399 0 0.363083)
(4.74522 0 0.238734)
(5.42694 0 0.396973)
(4.18606 0 0.261029)
(4.8955 0 0.431231)
(3.59784 0 0.283483)
(4.3315 0 0.46461)
(2.98544 0 0.305196)
(3.73848 0 0.495413)
(2.35603 0 0.325061)
(3.12217 0 0.521499)
(1.71903 0 0.342539)
(2.49099 0 0.540543)
(1.0843 0 0.361872)
(1.85579 0 0.551658)
(0.4518 0 0.348654)
(1.24544 0 0.563007)
(-0.145835 0 0.102442)
(0.608869 0 0.544844)
(-0.423593 0 -0.207068)
(0.0946846 0 0.259348)
(-0.402131 0 -0.361213)
(-0.133695 0 -0.020524)
(-0.119664 0 -0.393862)
(9.99641 0 0.0516752)
(9.99705 0 0.0405071)
(9.95878 0 0.0708663)
(9.9785 0 0.0674595)
(9.89823 0 0.0879935)
(9.93376 0 0.0898777)
(9.81656 0 0.105993)
(9.86451 0 0.113565)
(9.71355 0 0.124932)
(9.77435 0 0.138528)
(9.58904 0 0.144866)
(9.66431 0 0.164661)
(9.44268 0 0.166104)
(9.53391 0 0.192349)
(9.27382 0 0.188982)
(9.38242 0 0.22205)
(9.08156 0 0.213798)
(9.2091 0 0.254169)
(8.86478 0 0.240831)
(9.01305 0 0.289085)
(8.62217 0 0.270352)
(8.79319 0 0.327174)
(8.35224 0 0.302621)
(8.54822 0 0.368806)
(8.0534 0 0.33787)
(8.27668 0 0.414335)
(7.72394 0 0.376273)
(7.977 0 0.464063)
(7.36219 0 0.41791)
(7.64754 0 0.518202)
(6.96654 0 0.462712)
(7.28665 0 0.576815)
(6.53565 0 0.510387)
(6.89277 0 0.63973)
(6.06865 0 0.560329)
(6.46463 0 0.706426)
(5.56542 0 0.611513)
(6.00143 0 0.775902)
(5.02695 0 0.662372)
(5.5031 0 0.84651)
(4.45574 0 0.710692)
(4.97074 0 0.915787)
(3.85638 0 0.75352)
(4.40706 0 0.980283)
(3.2361 0 0.787174)
(3.81693 0 1.03543)
(2.60574 0 0.807478)
(3.20837 0 1.07545)
(1.98274 0 0.810443)
(2.59333 0 1.09312)
(1.40525 0 0.77687)
(1.99616 0 1.07705)
(0.929712 0 0.646371)
(1.41946 0 0.978372)
(0.439811 0 0.384302)
(0.937551 0 0.716778)
(0.0591508 0 -0.118631)
(0.443746 0 0.343504)
(0.174914 0 -0.335928)
(9.98903 0 0.0594356)
(9.99481 0 0.0458812)
(9.95433 0 0.0894845)
(9.97368 0 0.0848618)
(9.89728 0 0.118043)
(9.92983 0 0.119185)
(9.82044 0 0.147913)
(9.86355 0 0.153992)
(9.72412 0 0.179439)
(9.77733 0 0.190427)
(9.60816 0 0.212796)
(9.67222 0 0.228659)
(9.47228 0 0.248415)
(9.54804 0 0.269155)
(9.31599 0 0.286799)
(9.40424 0 0.312525)
(9.13859 0 0.328423)
(9.24025 0 0.359355)
(8.93913 0 0.373747)
(9.05538 0 0.410205)
(8.71652 0 0.423231)
(8.84877 0 0.465628)
(8.46945 0 0.477318)
(8.61937 0 0.526181)
(8.19652 0 0.536418)
(8.366 0 0.592398)
(7.89616 0 0.600857)
(8.08735 0 0.664758)
(7.56674 0 0.670819)
(7.78202 0 0.743632)
(7.20666 0 0.746259)
(7.44856 0 0.829197)
(6.81439 0 0.826778)
(7.0855 0 0.921318)
(6.38871 0 0.911471)
(6.69153 0 1.0194)
(5.92887 0 0.998739)
(6.26555 0 1.12215)
(5.43499 0 1.08607)
(5.80697 0 1.2274)
(4.90842 0 1.16979)
(5.31594 0 1.33171)
(4.35232 0 1.24486)
(4.79386 0 1.43015)
(3.7725 0 1.30451)
(4.24388 0 1.51583)
(3.17866 0 1.3398)
(3.67174 0 1.57938)
(2.58658 0 1.33808)
(3.08627 0 1.6077)
(2.01983 0 1.27294)
(2.50289 0 1.58154)
(1.48692 0 1.09538)
(1.92871 0 1.46421)
(0.958282 0 0.769152)
(1.38524 0 1.21037)
(0.479862 0 0.202437)
(0.829532 0 0.80102)
(0.433719 0 0.134067)
(9.98515 0 0.0716205)
(9.99367 0 0.0531528)
(9.95038 0 0.113641)
(9.97087 0 0.102301)
(9.89435 0 0.154149)
(9.92689 0 0.147969)
(9.8188 0 0.195593)
(9.86183 0 0.193742)
(9.72438 0 0.238835)
(9.77743 0 0.241303)
(9.61107 0 0.284352)
(9.67462 0 0.291194)
(9.47867 0 0.332752)
(9.55337 0 0.34399)
(9.32686 0 0.384708)
(9.41328 0 0.400409)
(9.15513 0 0.440881)
(9.25391 0 0.461179)
(8.96279 0 0.501918)
(9.07473 0 0.527001)
(8.74903 0 0.568461)
(8.87507 0 0.598575)
(8.51289 0 0.641143)
(8.65415 0 0.676599)
(8.2533 0 0.720556)
(8.41107 0 0.761753)
(7.96909 0 0.80721)
(8.14483 0 0.854663)
(7.659 0 0.901449)
(7.85437 0 0.955837)
(7.32174 0 1.00335)
(7.53857 0 1.06558)
(6.95603 0 1.11257)
(7.19628 0 1.18384)
(6.56068 0 1.22812)
(6.82635 0 1.31007)
(6.13473 0 1.34814)
(6.42772 0 1.44289)
(5.6777 0 1.46956)
(5.99951 0 1.57986)
(5.18987 0 1.58772)
(5.54121 0 1.71703)
(4.67276 0 1.69597)
(5.05294 0 1.84848)
(4.12972 0 1.78509)
(4.53587 0 1.96577)
(3.5666 0 1.84247)
(3.99267 0 2.05724)
(2.99201 0 1.85067)
(3.42756 0 2.10708)
(2.41582 0 1.78244)
(2.84761 0 2.09442)
(1.84053 0 1.60042)
(2.25622 0 1.98868)
(1.25938 0 1.2784)
(1.66031 0 1.753)
(0.666774 0 0.789522)
(1.02397 0 1.36773)
(0.523038 0 0.787131)
(9.98337 0 0.0844159)
(9.99316 0 0.0612976)
(9.9482 0 0.136851)
(9.96958 0 0.11994)
(9.89313 0 0.188052)
(9.92574 0 0.176259)
(9.81904 0 0.240195)
(9.86197 0 0.232724)
(9.72659 0 0.294498)
(9.7796 0 0.291119)
(9.61584 0 0.351695)
(9.67935 0 0.352311)
(9.48664 0 0.41251)
(9.56121 0 0.417019)
(9.3387 0 0.477718)
(9.42489 0 0.486054)
(9.1716 0 0.548094)
(9.26999 0 0.560253)
(8.9848 0 0.624398)
(9.09609 0 0.640436)
(8.77765 0 0.707385)
(8.90261 0 0.727416)
(8.54938 0 0.797802)
(8.68892 0 0.822001)
(8.29918 0 0.896357)
(8.45428 0 0.924981)
(8.02617 0 1.00368)
(8.1979 0 1.03709)
(7.72939 0 1.12022)
(7.91893 0 1.15893)
(7.40786 0 1.24617)
(7.6165 0 1.29093)
(7.06058 0 1.38126)
(7.28966 0 1.43314)
(6.68652 0 1.52456)
(6.93744 0 1.58508)
(6.28469 0 1.67415)
(6.55881 0 1.74547)
(5.85423 0 1.82674)
(6.15271 0 1.91183)
(5.39458 0 1.97719)
(5.71808 0 2.0801)
(4.90565 0 2.11798)
(5.25396 0 2.24401)
(4.38817 0 2.23853)
(4.75965 0 2.39452)
(3.84389 0 2.32447)
(4.23489 0 2.51911)
(3.27541 0 2.35688)
(3.67985 0 2.60115)
(2.68538 0 2.31053)
(3.09571 0 2.61963)
(2.07269 0 2.15496)
(2.48169 0 2.54726)
(1.42938 0 1.86736)
(1.83993 0 2.35367)
(0.742616 0 1.41954)
(1.13138 0 2.02449)
(0.543312 0 1.51448)
(9.98264 0 0.0975081)
(9.99299 0 0.0698003)
(9.94743 0 0.159792)
(9.96924 0 0.137599)
(9.89353 0 0.221372)
(9.92596 0 0.20395)
(9.82131 0 0.284124)
(9.86379 0 0.270719)
(9.7313 0 0.349386)
(9.78382 0 0.339621)
(9.62361 0 0.418062)
(9.6866 0 0.411742)
(9.49812 0 0.490986)
(9.57212 0 0.487954)
(9.35456 0 0.569026)
(9.44013 0 0.56916)
(9.19258 0 0.653058)
(9.29033 0 0.656292)
(9.01171 0 0.743951)
(9.1223 0 0.750273)
(8.81137 0 0.842567)
(8.93557 0 0.852015)
(8.59092 0 0.949755)
(8.72957 0 0.962421)
(8.34967 0 1.06632)
(8.50364 0 1.08237)
(8.08687 0 1.19299)
(8.25709 0 1.21269)
(7.80172 0 1.33032)
(7.98917 0 1.35407)
(7.4934 0 1.4786)
(7.69909 0 1.50704)
(7.16099 0 1.63767)
(7.38596 0 1.67176)
(6.80353 0 1.80672)
(7.04882 0 1.84789)
(6.41993 0 1.98392)
(6.68655 0 2.03432)
(6.00897 0 2.16607)
(6.29783 0 2.22877)
(5.56927 0 2.34803)
(5.88104 0 2.4274)
(5.09936 0 2.52212)
(5.43421 0 2.62416)
(4.59767 0 2.67747)
(4.95502 0 2.81019)
(4.06265 0 2.7994)
(4.44079 0 2.97311)
(3.49268 0 2.86902)
(3.88849 0 3.09652)
(2.88583 0 2.86284)
(3.29523 0 3.1598)
(2.23803 0 2.75387)
(2.65692 0 3.13783)
(1.54246 0 2.52099)
(1.97487 0 3.00314)
(0.793659 0 2.13132)
(1.20726 0 2.74057)
(0.556748 0 2.29182)
(9.9825 0 0.110639)
(9.99301 0 0.0783702)
(9.9477 0 0.182345)
(9.96953 0 0.155055)
(9.89521 0 0.253846)
(9.92721 0 0.230913)
(9.82521 0 0.326804)
(9.86694 0 0.307545)
(9.73809 0 0.4026)
(9.78974 0 0.386567)
(9.63398 0 0.482286)
(9.696 0 0.469201)
(9.51278 0 0.566815)
(9.58572 0 0.556457)
(9.37428 0 0.657154)
(9.45871 0 0.649336)
(9.21817 0 0.754277)
(9.3147 0 0.748857)
(9.04401 0 0.859149)
(9.15334 0 0.856033)
(8.85129 0 0.972724)
(8.97419 0 0.971871)
(8.63945 0 1.09594)
(8.77674 0 1.09736)
(8.40783 0 1.22969)
(8.56039 0 1.23348)
(8.15575 0 1.37479)
(8.32449 0 1.38112)
(7.88243 0 1.53189)
(8.06831 0 1.54111)
(7.58705 0 1.70139)
(7.79103 0 1.71407)
(7.26868 0 1.88328)
(7.49173 0 1.9003)
(6.92621 0 2.07694)
(7.16931 0 2.09968)
(6.55832 0 2.2808)
(6.82244 0 2.31134)
(6.16329 0 2.49198)
(6.44939 0 2.53342)
(5.73898 0 2.70574)
(6.04793 0 2.76255)
(5.28262 0 2.91488)
(5.61511 0 2.99335)
(4.79076 0 3.10904)
(5.14715 0 3.21771)
(4.25926 0 3.27408)
(4.63933 0 3.42413)
(3.68339 0 3.39175)
(4.08604 0 3.59702)
(3.05807 0 3.43959)
(3.48134 0 3.71642)
(2.37777 0 3.39173)
(2.81841 0 3.75804)
(1.63794 0 3.22614)
(2.09921 0 3.69393)
(0.839153 0 2.90084)
(1.27897 0 3.50446)
(0.573382 0 3.11372)
(9.98273 0 0.123596)
(9.99316 0 0.0868277)
(9.94872 0 0.204334)
(9.97026 0 0.172114)
(9.89792 0 0.285286)
(9.92925 0 0.257007)
(9.83048 0 0.368009)
(9.87121 0 0.34303)
(9.74666 0 0.453905)
(9.79712 0 0.431731)
(9.64662 0 0.544138)
(9.7073 0 0.524413)
(9.5303 0 0.639775)
(9.60174 0 0.622205)
(9.39752 0 0.741873)
(9.48029 0 0.726203)
(9.24801 0 0.851491)
(9.34275 0 0.837506)
(9.08139 0 0.969683)
(9.18881 0 0.957216)
(8.8972 0 1.09749)
(9.01808 0 1.08642)
(8.69491 0 1.23595)
(8.83011 0 1.22621)
(8.47392 0 1.38604)
(8.62434 0 1.37765)
(8.23354 0 1.54868)
(8.40014 0 1.54174)
(7.97299 0 1.72463)
(8.15678 0 1.71942)
(7.69137 0 1.91445)
(7.89339 0 1.91145)
(7.38761 0 2.11833)
(7.60895 0 2.11835)
(7.06039 0 2.33592)
(7.30217 0 2.34026)
(6.70799 0 2.56605)
(6.97141 0 2.5767)
(6.32817 0 2.80638)
(6.6145 0 2.82634)
(5.91794 0 3.05292)
(6.22852 0 3.08658)
(5.47334 0 3.29939)
(5.80959 0 3.35302)
(4.98924 0 3.5365)
(5.35255 0 3.61881)
(4.45931 0 3.75126)
(4.85083 0 3.87382)
(3.87624 0 3.92633)
(4.29643 0 4.10377)
(3.23238 0 4.03975)
(3.6806 0 4.28954)
(2.5209 0 4.06492)
(2.9936 0 4.40667)
(1.73844 0 3.97611)
(2.23747 0 4.42453)
(0.889512 0 3.71877)
(1.36344 0 4.3163)
(0.59879 0 3.98494)
(9.98321 0 0.13622)
(9.99339 0 0.0950521)
(9.95031 0 0.2256)
(9.97131 0 0.188613)
(9.90149 0 0.315536)
(9.93192 0 0.282085)
(9.83691 0 0.407554)
(9.87641 0 0.377008)
(9.75679 0 0.503074)
(9.80575 0 0.4749)
(9.66129 0 0.603348)
(9.72025 0 0.577121)
(9.55038 0 0.709538)
(9.61988 0 0.684895)
(9.42393 0 0.822786)
(9.50455 0 0.799405)
(9.28171 0 0.944234)
(9.3741 0 0.921829)
(9.12341 0 1.07502)
(9.22829 0 1.05335)
(8.94862 0 1.21628)
(9.06679 0 1.19513)
(8.75685 0 1.36912)
(8.88919 0 1.34837)
(8.54754 0 1.53465)
(8.69498 0 1.5142)
(8.32001 0 1.71389)
(8.48358 0 1.69378)
(8.07345 0 1.90777)
(8.25425 0 1.88815)
(7.80687 0 2.11703)
(8.00609 0 2.09829)
(7.51906 0 2.34213)
(7.73797 0 2.32496)
(7.20842 0 2.5831)
(7.44845 0 2.56864)
(6.87286 0 2.8393)
(7.13558 0 2.82937)
(6.50956 0 3.10914)
(6.79676 0 3.10652)
(6.11471 0 3.38965)
(6.42846 0 3.39846)
(5.68319 0 3.67584)
(6.02588 0 3.70211)
(5.20831 0 3.96001)
(5.58257 0 4.01227)
(4.68164 0 4.23079)
(5.09017 0 4.32074)
(4.09323 0 4.47214)
(4.53819 0 4.61517)
(3.4325 0 4.6624)
(3.91468 0 4.87768)
(2.69016 0 4.77306)
(3.20572 0 5.08344)
(1.86189 0 4.77237)
(2.41134 0 5.1979)
(0.954211 0 4.58975)
(1.47634 0 5.18432)
(0.639227 0 4.91953)
(9.98386 0 0.148388)
(9.99368 0 0.102957)
(9.95234 0 0.246003)
(9.9726 0 0.204421)
(9.90577 0 0.344445)
(9.93509 0 0.306011)
(9.84434 0 0.445256)
(9.88239 0 0.409325)
(9.76828 0 0.549881)
(9.81548 0 0.515885)
(9.67773 0 0.659641)
(9.73465 0 0.627092)
(9.57272 0 0.775779)
(9.63991 0 0.74425)
(9.45317 0 0.899516)
(9.5312 0 0.868618)
(9.31888 0 1.03207)
(9.40841 0 1.00145)
(9.16962 0 1.17466)
(9.27136 0 1.14399)
(9.00504 0 1.3285)
(9.11981 0 1.2975)
(8.82471 0 1.49481)
(8.9534 0 1.46323)
(8.62811 0 1.67479)
(8.7717 0 1.64246)
(8.41459 0 1.86961)
(8.57417 0 1.83645)
(8.18333 0 2.08037)
(8.36009 0 2.04641)
(7.93331 0 2.30806)
(8.12859 0 2.27353)
(7.66318 0 2.55348)
(7.87849 0 2.51888)
(7.37114 0 2.81712)
(7.60822 0 2.78335)
(7.05477 0 3.09901)
(7.31566 0 3.0676)
(6.71076 0 3.3985)
(6.9979 0 3.37182)
(6.33458 0 3.71388)
(6.65092 0 3.69559)
(5.92008 0 4.04187)
(6.26918 0 4.03743)
(5.45906 0 4.37681)
(5.84514 0 4.39425)
(4.94091 0 4.70963)
(5.36869 0 4.76043)
(4.35263 0 5.02629)
(4.82668 0 5.12645)
(3.67956 0 5.30599)
(4.20314 0 5.4768)
(2.90753 0 5.51805)
(3.47793 0 5.78728)
(2.02771 0 5.62297)
(2.64511 0 6.01941)
(1.04514 0 5.5295)
(1.63781 0 6.12395)
(0.704522 0 5.94318)
(9.98464 0 0.160003)
(9.99402 0 0.110478)
(9.95472 0 0.265418)
(9.97408 0 0.219431)
(9.91063 0 0.371872)
(9.93866 0 0.328659)
(9.85263 0 0.48095)
(9.88902 0 0.439839)
(9.78095 0 0.594125)
(9.82614 0 0.554512)
(9.69574 0 0.712774)
(9.75032 0 0.674118)
(9.59707 0 0.838212)
(9.66158 0 0.800023)
(9.4849 0 0.971729)
(9.55992 0 0.933552)
(9.35913 0 1.11461)
(9.4453 0 1.07602)
(9.21956 0 1.26815)
(9.3176 0 1.22874)
(9.06592 0 1.43364)
(9.17665 0 1.39305)
(8.89788 0 1.61239)
(9.02218 0 1.57028)
(8.71495 0 1.80573)
(8.85384 0 1.7618)
(8.51657 0 2.01497)
(8.67117 0 1.969)
(8.30195 0 2.24141)
(8.47353 0 2.19328)
(8.07007 0 2.48632)
(8.26011 0 2.43605)
(7.81954 0 2.75088)
(8.02976 0 2.69871)
(7.54849 0 3.03612)
(7.78093 0 2.98263)
(7.25431 0 3.34286)
(7.51146 0 3.28912)
(6.93337 0 3.67153)
(7.21833 0 3.61933)
(6.58067 0 4.02194)
(6.8973 0 3.97418)
(6.18926 0 4.39287)
(6.54246 0 4.35407)
(5.74964 0 4.78132)
(6.14551 0 4.75849)
(5.24907 0 5.18142)
(5.69496 0 5.18521)
(4.67098 0 5.58252)
(5.17506 0 5.62887)
(3.99502 0 5.96632)
(4.56518 0 6.07849)
(3.19858 0 6.30158)
(3.83651 0 6.51336)
(2.26195 0 6.54067)
(2.97106 0 6.89397)
(1.18072 0 6.56522)
(1.87935 0 7.15793)
(0.812923 0 7.09963)
(9.98553 0 0.170987)
(9.9944 0 0.117563)
(9.95737 0 0.28374)
(9.97571 0 0.233553)
(9.91598 0 0.397693)
(9.94257 0 0.349921)
(9.86166 0 0.514486)
(9.89621 0 0.468421)
(9.79463 0 0.635625)
(9.8376 0 0.590627)
(9.7151 0 0.762534)
(9.76707 0 0.718013)
(9.62315 0 0.896585)
(9.68467 0 0.851994)
(9.51882 0 1.03913)
(9.59044 0 0.99395)
(9.40206 0 1.19151)
(9.48442 0 1.14525)
(9.27275 0 1.35509)
(9.36656 0 1.30726)
(9.13072 0 1.53122)
(9.23678 0 1.48138)
(8.97571 0 1.72132)
(9.0949 0 1.66902)
(8.80735 0 1.92682)
(8.94068 0 1.87164)
(8.62514 0 2.14918)
(8.77377 0 2.09075)
(8.42842 0 2.3899)
(8.59365 0 2.32791)
(8.21624 0 2.65055)
(8.39964 0 2.58477)
(7.9873 0 2.9327)
(8.19073 0 2.86306)
(7.73978 0 3.23798)
(7.96552 0 3.16462)
(7.4711 0 3.56803)
(7.722 0 3.49144)
(7.17762 0 3.92449)
(7.45733 0 3.84566)
(6.85423 0 4.30886)
(7.16745 0 4.22962)
(6.49364 0 4.7223)
(6.84654 0 4.64577)
(6.08559 0 5.16513)
(6.48626 0 5.09657)
(5.61564 0 5.63588)
(6.07459 0 5.584)
(5.0637 0 6.1294)
(5.59407 0 6.10857)
(4.40246 0 6.63342)
(5.01981 0 6.66709)
(3.59646 0 7.12099)
(4.31292 0 7.24816)
(2.60467 0 7.54061)
(3.43614 0 7.82002)
(1.39455 0 7.74066)
(2.25691 0 8.31518)
(1.00288 0 8.4655)
(9.9865 0 0.181279)
(9.9948 0 0.124174)
(9.96025 0 0.300877)
(9.97747 0 0.246717)
(9.92174 0 0.421797)
(9.94674 0 0.369704)
(9.8713 0 0.545732)
(9.90385 0 0.494962)
(9.80918 0 0.674223)
(9.84973 0 0.6241)
(9.7356 0 0.808731)
(9.78472 0 0.758621)
(9.65071 0 0.950676)
(9.70893 0 0.899978)
(9.55459 0 1.10146)
(9.62246 0 1.0496)
(9.44726 0 1.26247)
(9.5254 0 1.20888)
(9.32871 0 1.43511)
(9.41781 0 1.37925)
(9.19885 0 1.62083)
(9.29966 0 1.56215)
(9.05753 0 1.82109)
(9.17093 0 1.75904)
(8.9045 0 2.03743)
(9.03147 0 1.97148)
(8.7394 0 2.27146)
(8.88107 0 2.20106)
(8.56172 0 2.52487)
(8.71942 0 2.4495)
(8.37069 0 2.79949)
(8.546 0 2.71866)
(8.16521 0 3.09729)
(8.36005 0 3.01056)
(7.94369 0 3.42046)
(8.16046 0 3.32748)
(7.70385 0 3.77148)
(7.9456 0 3.67203)
(7.44241 0 4.15317)
(7.7131 0 4.04729)
(7.15463 0 4.56879)
(7.45954 0 4.45693)
(6.83363 0 5.02206)
(7.17989 0 4.90545)
(6.46937 0 5.51714)
(6.86678 0 5.39838)
(6.04698 0 6.05816)
(6.50916 0 5.94243)
(5.54422 0 6.64817)
(6.09008 0 6.54553)
(4.92744 0 7.28649)
(5.5834 0 7.21611)
(4.14555 0 7.96109)
(4.94306 0 7.96097)
(3.12241 0 8.63357)
(4.11011 0 8.77535)
(1.75676 0 9.1283)
(2.87934 0 9.62116)
(1.36532 0 10.1861)
(9.98753 0 0.190828)
(9.99523 0 0.13028)
(9.96331 0 0.316757)
(9.97931 0 0.258865)
(9.92783 0 0.444092)
(9.95113 0 0.387931)
(9.88144 0 0.57458)
(9.91185 0 0.51937)
(9.82443 0 0.70979)
(9.86238 0 0.65482)
(9.75704 0 0.851216)
(9.8031 0 0.795811)
(9.67947 0 1.00031)
(9.73416 0 0.943822)
(9.59187 0 1.15851)
(9.6557 0 1.10031)
(9.49434 0 1.32725)
(9.56789 0 1.26671)
(9.38694 0 1.50796)
(9.47088 0 1.44447)
(9.26971 0 1.70214)
(9.36475 0 1.63506)
(9.1426 0 1.91132)
(9.24958 0 1.84001)
(9.00554 0 2.13711)
(9.12539 0 2.0609)
(8.85832 0 2.38123)
(8.99213 0 2.29942)
(8.70065 0 2.64554)
(8.84969 0 2.55741)
(8.53201 0 2.93209)
(8.69781 0 2.83686)
(8.35162 0 3.2432)
(8.53606 0 3.14005)
(8.15832 0 3.58154)
(8.36376 0 3.4696)
(7.95038 0 3.95031)
(8.17985 0 3.82861)
(7.72525 0 4.35338)
(7.98275 0 4.22091)
(7.4792 0 4.79563)
(7.7701 0 4.65128)
(7.20666 0 5.28323)
(7.53841 0 5.12593)
(6.89927 0 5.82417)
(7.28247 0 5.65306)
(6.54409 0 6.42884)
(6.9943 0 6.24384)
(6.12037 0 7.11066)
(6.6612 0 6.91379)
(5.59339 0 7.88684)
(6.26263 0 7.68519)
(4.90162 0 8.77731)
(5.75818 0 8.59163)
(3.92796 0 9.80145)
(5.08855 0 9.68448)
(2.43431 0 10.8576)
(3.98128 0 11.0495)
(2.14765 0 12.5704)
(9.98861 0 0.199595)
(9.99567 0 0.135858)
(9.96651 0 0.331316)
(9.98123 0 0.269951)
(9.93417 0 0.464496)
(9.95569 0 0.404541)
(9.89198 0 0.600922)
(9.92013 0 0.541569)
(9.84024 0 0.742189)
(9.87547 0 0.6827)
(9.77924 0 0.889815)
(9.82209 0 0.829479)
(9.7092 0 1.04528)
(9.76018 0 0.983406)
(9.63036 0 1.21003)
(9.68997 0 1.14595)
(9.54289 0 1.38554)
(9.61169 0 1.31857)
(9.44695 0 1.57326)
(9.52556 0 1.50273)
(9.34268 0 1.77472)
(9.43181 0 1.69991)
(9.2302 0 1.99148)
(9.33062 0 1.91166)
(9.10958 0 2.22521)
(9.22217 0 2.13959)
(8.98083 0 2.47771)
(9.10662 0 2.38545)
(8.8439 0 2.75095)
(8.98409 0 2.65111)
(8.6986 0 3.04714)
(8.85463 0 2.9387)
(8.54458 0 3.36884)
(8.7182 0 3.25061)
(8.38124 0 3.71909)
(8.57465 0 3.58968)
(8.20764 0 4.10158)
(8.42365 0 3.95934)
(8.02231 0 4.52097)
(8.26463 0 4.36383)
(7.82308 0 4.98332)
(8.09668 0 4.80864)
(7.60668 0 5.49666)
(7.91847 0 5.30099)
(7.36809 0 6.07204)
(7.72801 0 5.85075)
(7.09941 0 6.72513)
(7.52247 0 6.47184)
(6.78752 0 7.47916)
(7.29764 0 7.18485)
(6.40892 0 8.37091)
(7.0481 0 8.0222)
(5.91664 0 9.46495)
(6.76377 0 9.04044)
(5.19807 0 10.9079)
(6.46387 0 10.3554)
(3.88716 0 13.1809)
(6.19409 0 12.3032)
(5.26704 0 16.3776)
(0.249625 0 -0.15895)
(0.142916 0 -0.244492)
(0.482339 0 -0.135132)
(0.342299 0 -0.222545)
(0.680496 0 -0.109218)
(0.545223 0 -0.185023)
(0.846867 0 -0.0876662)
(0.724224 0 -0.151675)
(0.987148 0 -0.0706345)
(0.874704 0 -0.124869)
(1.10642 0 -0.0572727)
(1.00184 0 -0.10366)
(1.20891 0 -0.0468042)
(1.1113 0 -0.0869694)
(1.29805 0 -0.0385767)
(1.20721 0 -0.073861)
(1.37649 0 -0.0320238)
(1.2924 0 -0.0634519)
(1.44608 0 -0.026689)
(1.36887 0 -0.054969)
(1.50812 0 -0.0222471)
(1.438 0 -0.0478492)
(1.56358 0 -0.0184583)
(1.50075 0 -0.0417573)
(1.61313 0 -0.0150335)
(1.55789 0 -0.0364312)
(1.6568 0 -0.0115137)
(1.61001 0 -0.0313437)
(1.69324 0 -0.00739635)
(1.65709 0 -0.0255418)
(1.7199 0 -0.00258611)
(1.69779 0 -0.0182501)
(1.73496 0 0.00225187)
(1.7297 0 -0.010057)
(1.73949 0 0.00588229)
(1.75124 0 -0.00295552)
(1.73608 0 0.00771262)
(1.76372 0 0.00216797)
(1.727 0 0.00818698)
(1.77043 0 0.00564688)
(1.71306 0 0.00792708)
(1.77292 0 0.00846665)
(1.69624 0 0.00697055)
(1.7705 0 0.00997382)
(1.68186 0 0.00509381)
(1.76606 0 0.00832491)
(1.67556 0 0.00244397)
(1.76452 0 0.00356007)
(1.68132 0 -0.000579861)
(1.76893 0 -0.00318019)
(1.70022 0 -0.00354987)
(1.78134 0 -0.0101814)
(1.7313 0 -0.00630686)
(1.80159 0 -0.0163526)
(1.77284 0 -0.00861414)
(1.82862 0 -0.021339)
(1.82107 0 -0.00945955)
(1.86103 0 -0.024193)
(1.90547 0 -0.0222957)
(0.214421 0 -0.34761)
(0.108093 0 -0.454504)
(0.422103 0 -0.306013)
(0.285692 0 -0.421153)
(0.60259 0 -0.253753)
(0.454541 0 -0.353548)
(0.756882 0 -0.208969)
(0.605039 0 -0.292338)
(0.889859 0 -0.173325)
(0.732778 0 -0.243236)
(1.00587 0 -0.14533)
(0.842252 0 -0.204489)
(1.10843 0 -0.123407)
(0.937787 0 -0.173999)
(1.20031 0 -0.106159)
(1.02251 0 -0.149988)
(1.28359 0 -0.0923469)
(1.09863 0 -0.130825)
(1.35972 0 -0.0809755)
(1.1677 0 -0.115097)
(1.42964 0 -0.0713796)
(1.23071 0 -0.101777)
(1.49415 0 -0.0631508)
(1.28828 0 -0.0903269)
(1.55409 0 -0.0557818)
(1.34092 0 -0.0805019)
(1.61021 0 -0.0482456)
(1.3894 0 -0.0716291)
(1.66218 0 -0.0392339)
(1.43467 0 -0.0619677)
(1.70798 0 -0.0284537)
(1.4765 0 -0.0495958)
(1.74523 0 -0.0174577)
(1.51284 0 -0.0349466)
(1.77362 0 -0.00810136)
(1.54034 0 -0.0214784)
(1.7967 0 -6.79826e-05)
(1.55919 0 -0.012529)
(1.81563 0 0.00731064)
(1.57499 0 -0.00612832)
(1.8297 0 0.0121042)
(1.58476 0 -7.47554e-05)
(1.83825 0 0.0121707)
(1.58314 0 0.00490047)
(1.84658 0 0.00730739)
(1.57115 0 0.00350492)
(1.85636 0 -0.00122879)
(1.55341 0 -0.00197017)
(1.86848 0 -0.0114531)
(1.53485 0 -0.00986802)
(1.88263 0 -0.02172)
(1.51882 0 -0.0178033)
(1.89885 0 -0.0307996)
(1.5067 0 -0.0248911)
(1.91738 0 -0.0374141)
(1.49752 0 -0.0308578)
(1.93933 0 -0.0390282)
(1.49394 0 -0.0351991)
(1.50599 0 -0.0342926)
(0.169406 0 -0.537633)
(0.0759905 0 -0.620427)
(0.329856 0 -0.478276)
(0.215398 0 -0.574593)
(0.467579 0 -0.400861)
(0.332742 0 -0.482142)
(0.584947 0 -0.333956)
(0.439089 0 -0.399339)
(0.6859 0 -0.280391)
(0.527426 0 -0.333099)
(0.773672 0 -0.238024)
(0.602467 0 -0.280772)
(0.850941 0 -0.204563)
(0.666997 0 -0.239568)
(0.919794 0 -0.177948)
(0.723093 0 -0.207035)
(0.981756 0 -0.15634)
(0.772344 0 -0.180951)
(1.03781 0 -0.138257)
(0.815908 0 -0.159374)
(1.08848 0 -0.122762)
(0.854472 0 -0.140853)
(1.13412 0 -0.109492)
(0.888235 0 -0.12469)
(1.17551 0 -0.098093)
(0.917061 0 -0.110934)
(1.214 0 -0.0870979)
(0.940985 0 -0.0992633)
(1.25014 0 -0.0736292)
(0.962027 0 -0.0872931)
(1.28204 0 -0.0561202)
(0.981733 0 -0.0714299)
(1.30657 0 -0.0384482)
(1.00091 0 -0.0513386)
(1.32318 0 -0.0270458)
(1.01241 0 -0.0323106)
(1.33674 0 -0.0217008)
(0.994603 0 -0.0211667)
(1.34349 0 -0.0162903)
(0.962677 0 -0.0103256)
(1.33666 0 -0.00937044)
(0.932927 0 0.00407176)
(1.31321 0 -0.00494351)
(0.900741 0 0.0188018)
(1.27544 0 -0.00533433)
(0.858986 0 0.0253692)
(1.23061 0 -0.00923543)
(0.810871 0 0.0233693)
(1.18527 0 -0.0137545)
(0.76327 0 0.015156)
(1.14307 0 -0.017051)
(0.721572 0 0.00493832)
(1.10543 0 -0.0198977)
(0.695194 0 -0.00508929)
(1.07435 0 -0.023205)
(0.678026 0 -0.0148916)
(1.05719 0 -0.0260551)
(0.672683 0 -0.0265942)
(0.689627 0 -0.0396788)
(0.121679 0 -0.6717)
(0.0453065 0 -0.739603)
(0.227201 0 -0.593064)
(0.137859 0 -0.675504)
(0.313208 0 -0.495177)
(0.195028 0 -0.562448)
(0.385007 0 -0.412092)
(0.251166 0 -0.464796)
(0.445247 0 -0.34576)
(0.292408 0 -0.386721)
(0.495888 0 -0.293238)
(0.325127 0 -0.324784)
(0.538691 0 -0.251711)
(0.350215 0 -0.27589)
(0.575037 0 -0.21863)
(0.368833 0 -0.237149)
(0.605972 0 -0.191696)
(0.382014 0 -0.205977)
(0.632157 0 -0.168964)
(0.390646 0 -0.180057)
(0.653726 0 -0.14912)
(0.395376 0 -0.157487)
(0.67031 0 -0.131781)
(0.396398 0 -0.137177)
(0.681821 0 -0.11723)
(0.393142 0 -0.119397)
(0.689909 0 -0.105081)
(0.381986 0 -0.105069)
(0.697031 0 -0.0928812)
(0.363125 0 -0.0922847)
(0.703206 0 -0.0770833)
(0.33794 0 -0.0756555)
(0.702904 0 -0.0549429)
(0.311155 0 -0.0511373)
(0.677937 0 -0.0287962)
(0.28499 0 -0.0160217)
(0.621477 0 -0.00572045)
(0.247024 0 0.0147975)
(0.55363 0 0.0141857)
(0.194509 0 0.0318714)
(0.493136 0 0.0333126)
(0.150362 0 0.0408068)
(0.440545 0 0.0470998)
(0.114013 0 0.0499837)
(0.38956 0 0.0513805)
(0.0784415 0 0.0548849)
(0.341043 0 0.0456879)
(0.0451354 0 0.0507927)
(0.300231 0 0.0320958)
(0.0160541 0 0.0376796)
(0.27537 0 0.0145646)
(-0.00656817 0 0.0183345)
(0.26629 0 -0.00315302)
(-0.0128944 0 -0.000311724)
(0.276573 0 -0.0216889)
(-0.00708432 0 -0.0201744)
(0.302497 0 -0.0420778)
(0.00512791 0 -0.0395963)
(0.0274212 0 -0.0555797)
(0.0677624 0 -0.753676)
(0.0134535 0 -0.805972)
(0.112287 0 -0.655084)
(0.0515921 0 -0.718083)
(0.141462 0 -0.541681)
(0.0436583 0 -0.589689)
(0.1618 0 -0.44796)
(0.0449429 0 -0.483337)
(0.174435 0 -0.373015)
(0.033458 0 -0.397968)
(0.180398 0 -0.313482)
(0.0175482 0 -0.329967)
(0.180607 0 -0.266299)
(-0.00355991 0 -0.276067)
(0.175856 0 -0.22869)
(-0.0291876 0 -0.233214)
(0.166866 0 -0.198158)
(-0.0587704 0 -0.198703)
(0.154259 0 -0.172452)
(-0.0916915 0 -0.170099)
(0.138363 0 -0.149692)
(-0.127141 0 -0.145228)
(0.118662 0 -0.128618)
(-0.164199 0 -0.122343)
(0.0927206 0 -0.108737)
(-0.202388 0 -0.100324)
(0.0563889 0 -0.0892399)
(-0.244466 0 -0.0789885)
(0.00732898 0 -0.0672654)
(-0.290929 0 -0.0578989)
(-0.0501461 0 -0.0391576)
(-0.340984 0 -0.036323)
(-0.109461 0 -0.00535133)
(-0.391104 0 -0.0115042)
(-0.154005 0 0.0251888)
(-0.429313 0 0.0130381)
(-0.182105 0 0.0436799)
(-0.45213 0 0.032697)
(-0.206963 0 0.0526028)
(-0.474344 0 0.0473315)
(-0.233614 0 0.058863)
(-0.492777 0 0.056991)
(-0.256147 0 0.0628074)
(-0.507043 0 0.0633436)
(-0.272703 0 0.0599613)
(-0.517367 0 0.0644693)
(-0.283872 0 0.0482171)
(-0.523563 0 0.0571059)
(-0.290365 0 0.0290811)
(-0.526965 0 0.041263)
(-0.29307 0 0.00668109)
(-0.528858 0 0.0197921)
(-0.287287 0 -0.0147777)
(-0.527441 0 -0.00335433)
(-0.278295 0 -0.0349083)
(-0.520333 0 -0.0247936)
(-0.267335 0 -0.0529665)
(-0.516005 0 -0.0450934)
(-0.514455 0 -0.0605701)
(0.00367052 0 -0.77555)
(-0.0223655 0 -0.809567)
(-0.0142139 0 -0.657058)
(-0.0448186 0 -0.70098)
(-0.0446558 0 -0.532468)
(-0.116933 0 -0.561265)
(-0.0799016 0 -0.43259)
(-0.174975 0 -0.451205)
(-0.120258 0 -0.35253)
(-0.240841 0 -0.362045)
(-0.164607 0 -0.289004)
(-0.307157 0 -0.291423)
(-0.212396 0 -0.238531)
(-0.374312 0 -0.235514)
(-0.263197 0 -0.197982)
(-0.441371 0 -0.191123)
(-0.316656 0 -0.164661)
(-0.507604 0 -0.155457)
(-0.372191 0 -0.136323)
(-0.5724 0 -0.126234)
(-0.428781 0 -0.111177)
(-0.635035 0 -0.101585)
(-0.485033 0 -0.0880283)
(-0.694549 0 -0.0799852)
(-0.53933 0 -0.0664605)
(-0.750048 0 -0.0604045)
(-0.590424 0 -0.0464573)
(-0.801047 0 -0.042311)
(-0.637337 0 -0.0278514)
(-0.847173 0 -0.0250173)
(-0.679322 0 -0.00961276)
(-0.887077 0 -0.00759115)
(-0.711023 0 0.00893822)
(-0.919027 0 0.00967784)
(-0.732419 0 0.0278015)
(-0.939894 0 0.0269964)
(-0.748434 0 0.0452452)
(-0.955366 0 0.0428984)
(-0.760601 0 0.0576527)
(-0.966465 0 0.0548987)
(-0.769699 0 0.0643739)
(-0.973316 0 0.0625157)
(-0.774183 0 0.0659843)
(-0.975517 0 0.0660028)
(-0.773565 0 0.0609501)
(-0.973432 0 0.0641112)
(-0.769899 0 0.0483125)
(-0.968494 0 0.0550336)
(-0.76565 0 0.0295264)
(-0.96306 0 0.038918)
(-0.762312 0 0.00762483)
(-0.959015 0 0.0179939)
(-0.75982 0 -0.0150766)
(-0.956569 0 -0.0046658)
(-0.75701 0 -0.0366355)
(-0.954205 0 -0.026237)
(-0.754532 0 -0.0545611)
(-0.955944 0 -0.0463362)
(-0.959577 0 -0.0620729)
(-0.0605588 0 -0.730465)
(-0.063987 0 -0.750254)
(-0.146875 0 -0.597356)
(-0.148286 0 -0.618436)
(-0.238025 0 -0.469802)
(-0.281527 0 -0.476157)
(-0.331507 0 -0.369318)
(-0.398261 0 -0.36598)
(-0.424159 0 -0.289802)
(-0.513485 0 -0.279572)
(-0.514741 0 -0.227481)
(-0.622177 0 -0.212696)
(-0.602021 0 -0.178778)
(-0.723728 0 -0.16145)
(-0.684919 0 -0.140625)
(-0.817492 0 -0.122438)
(-0.762586 0 -0.110379)
(-0.90307 0 -0.0926262)
(-0.83442 0 -0.0858882)
(-0.980394 0 -0.0694943)
(-0.899982 0 -0.0654334)
(-1.04959 0 -0.0510228)
(-0.958932 0 -0.047689)
(-1.11084 0 -0.0355964)
(-1.01104 0 -0.0317086)
(-1.16397 0 -0.0220929)
(-1.05645 0 -0.0167513)
(-1.20957 0 -0.00971425)
(-1.0949 0 -0.00222198)
(-1.24819 0 0.00193243)
(-1.12536 0 0.0122539)
(-1.27997 0 0.0132529)
(-1.14842 0 0.0267516)
(-1.30418 0 0.0250866)
(-1.16484 0 0.0406641)
(-1.32219 0 0.0377117)
(-1.17503 0 0.052495)
(-1.33409 0 0.0493847)
(-1.18022 0 0.0607639)
(-1.34049 0 0.0581306)
(-1.18131 0 0.0648511)
(-1.34207 0 0.0631738)
(-1.17829 0 0.0641889)
(-1.3393 0 0.0642156)
(-1.1718 0 0.0576548)
(-1.33302 0 0.0603523)
(-1.16388 0 0.0447061)
(-1.32496 0 0.0505576)
(-1.15686 0 0.0264477)
(-1.31734 0 0.0350405)
(-1.15224 0 0.00528941)
(-1.31201 0 0.0155068)
(-1.15043 0 -0.0163019)
(-1.30969 0 -0.0056185)
(-1.1507 0 -0.0368927)
(-1.31012 0 -0.0260957)
(-1.15249 0 -0.0544265)
(-1.3148 0 -0.0454389)
(-1.31954 0 -0.0603972)
(-0.130437 0 -0.621628)
(-0.111587 0 -0.622499)
(-0.280672 0 -0.480295)
(-0.255823 0 -0.474765)
(-0.431128 0 -0.35627)
(-0.446874 0 -0.335673)
(-0.574873 0 -0.262524)
(-0.614734 0 -0.234933)
(-0.707935 0 -0.191764)
(-0.769601 0 -0.161129)
(-0.829096 0 -0.13868)
(-0.907757 0 -0.107394)
(-0.937965 0 -0.0990326)
(-1.02812 0 -0.069065)
(-1.03479 0 -0.0696429)
(-1.1319 0 -0.0422181)
(-1.12017 0 -0.047882)
(-1.22126 0 -0.0235526)
(-1.19491 0 -0.0315237)
(-1.29812 0 -0.010458)
(-1.25983 0 -0.0187992)
(-1.36423 0 -0.000958577)
(-1.31535 0 -0.00839751)
(-1.42093 0 0.00620902)
(-1.36198 0 0.000719476)
(-1.46927 0 0.0121893)
(-1.40049 0 0.00936354)
(-1.51014 0 0.0179305)
(-1.432 0 0.0181378)
(-1.54416 0 0.0240181)
(-1.45782 0 0.027583)
(-1.5722 0 0.0309245)
(-1.4783 0 0.0377702)
(-1.59473 0 0.0387682)
(-1.49261 0 0.0477402)
(-1.61135 0 0.0470472)
(-1.50066 0 0.0559324)
(-1.62193 0 0.054514)
(-1.50336 0 0.0611682)
(-1.62692 0 0.059812)
(-1.5017 0 0.0628367)
(-1.62704 0 0.0621659)
(-1.49641 0 0.060345)
(-1.62314 0 0.0610758)
(-1.48859 0 0.0529233)
(-1.61637 0 0.0558248)
(-1.48011 0 0.0402911)
(-1.6084 0 0.0457691)
(-1.47304 0 0.0233276)
(-1.60122 0 0.0311341)
(-1.46888 0 0.00388064)
(-1.59661 0 0.0132667)
(-1.46831 0 -0.0161333)
(-1.5956 0 -0.00591914)
(-1.47086 0 -0.035424)
(-1.59868 0 -0.0247863)
(-1.47629 0 -0.0517323)
(-1.60567 0 -0.0427148)
(-1.611 0 -0.0558652)
(-0.204042 0 -0.452327)
(-0.167686 0 -0.422653)
(-0.41611 0 -0.313209)
(-0.376615 0 -0.271962)
(-0.619643 0 -0.203609)
(-0.621949 0 -0.145631)
(-0.804082 0 -0.125505)
(-0.823413 0 -0.0667866)
(-0.966239 0 -0.0699803)
(-0.996934 0 -0.0167877)
(-1.10482 0 -0.0325017)