/*--------------------------------*- C++ -*----------------------------------*\
  =========                 |
  \\      /  F ield         | OpenFOAM: The Open Source CFD Toolbox
   \\    /   O peration     | Website:  https://openfoam.org
    \\  /    A nd           | Version:  dev
     \\/     M anipulation  |
\*---------------------------------------------------------------------------*/
FoamFile
{
    version     2.0;
    format      ascii;
    class       volScalarField;
    location    "5.5";
    object      p;
}
// * * * * * * * * * * * * * * * * * * * * * * * * * * * * * * * * * * * * * //

dimensions      [0 2 -2 0 0 0 0];

internalField   nonuniform List<scalar> 
2790
(
146.945
146.852
147.119
147.691
148.471
149.428
150.56
151.867
153.343
154.984
156.784
158.735
160.829
163.053
165.394
167.83
170.334
172.873
175.405
177.879
180.237
182.415
184.345
185.966
187.225
188.1
188.536
188.591
188.642
188.855
146.742
146.76
147.052
147.62
148.396
149.351
150.479
151.779
153.248
154.881
156.671
158.612
160.695
162.908
165.238
167.663
170.159
172.693
175.223
177.701
180.069
182.264
184.219
185.867
187.152
188.026
188.423
188.478
188.61
188.895
146.543
146.631
146.942
147.5
148.263
149.205
150.318
151.6
153.048
154.656
156.418
158.327
160.375
162.551
164.839
167.221
169.673
172.164
174.656
177.103
179.453
181.646
183.618
185.308
186.659
187.635
188.228
188.583
188.898
189.197
146.319
146.437
146.761
147.31
148.059
148.984
150.077
151.335
152.754
154.329
156.052
157.918
159.916
162.037
164.265
166.583
168.967
171.39
173.818
176.208
178.515
180.687
182.669
184.409
185.863
187.015
187.883
188.554
189.107
189.626
146.058
146.19
146.522
147.064
147.796
148.7
149.768
150.995
152.377
153.908
155.582
157.391
159.327
161.378
163.529
165.765
168.063
170.398
172.74
175.053
177.298
179.433
181.415
183.206
184.776
186.119
187.249
188.212
189.023
189.77
145.757
145.895
146.23
146.761
147.474
148.351
149.387
150.577
151.914
153.394
155.009
156.751
158.612
160.58
162.641
164.779
166.974
169.203
171.44
173.656
175.818
177.896
179.858
181.678
183.341
184.843
186.189
187.395
188.415
189.333
145.414
145.553
145.885
146.404
147.093
147.941
148.94
150.085
151.371
152.791
154.338
156.004
157.779
159.651
161.608
163.634
165.71
167.816
169.929
172.025
174.08
176.071
177.979
179.789
181.495
183.096
184.59
185.969
187.133
188.18
145.03
145.167
145.491
145.993
146.657
147.471
148.428
149.524
150.751
152.104
153.575
155.154
156.833
158.599
160.439
162.338
164.279
166.243
168.211
170.163
172.08
173.948
175.755
177.497
179.175
180.794
182.349
183.821
185.071
186.222
144.604
144.737
145.05
145.533
146.168
146.944
147.855
148.896
150.059
151.338
152.724
154.208
155.781
157.429
159.14
160.898
162.688
164.491
166.29
168.069
169.813
171.511
173.159
174.759
176.321
177.856
179.364
180.835
182.106
183.344
144.137
144.265
144.565
145.026
145.628
146.363
147.224
148.205
149.299
150.497
151.792
153.173
154.63
156.15
157.72
159.324
160.945
162.568
164.174
165.747
167.276
168.75
170.168
171.536
172.869
174.188
175.508
176.846
178.046
179.351
143.632
143.753
144.039
144.474
145.042
145.733
146.539
147.456
148.475
149.588
150.785
152.056
153.39
154.772
156.19
157.626
159.063
160.484
161.871
163.206
164.474
165.663
166.771
167.799
168.763
169.692
170.622
171.621
172.584
173.902
143.09
143.204
143.472
143.881
144.412
145.055
145.805
146.654
147.594
148.616
149.71
150.865
152.068
153.305
154.56
155.817
157.055
158.256
159.398
160.46
161.422
162.264
162.972
163.538
163.965
164.275
164.518
164.826
165.208
166.382
142.513
142.619
142.869
143.249
143.741
144.335
145.025
145.803
146.66
147.588
148.574
149.608
150.674
151.759
152.844
153.91
154.937
155.901
156.776
157.535
158.148
158.583
158.805
158.78
158.477
157.879
157.005
156.014
155.067
155.573
141.903
142.002
142.232
142.581
143.032
143.575
144.203
144.908
145.68
146.51
147.386
148.293
149.219
150.145
151.054
151.923
152.728
153.442
154.033
154.465
154.695
154.672
154.334
153.602
152.379
150.55
147.988
144.689
140.743
138.71
141.264
141.354
141.564
141.881
142.29
142.78
143.344
143.974
144.659
145.389
146.151
146.931
147.712
148.478
149.205
149.872
150.45
150.906
151.202
151.292
151.119
150.609
149.663
148.149
145.87
142.538
137.697
130.683
120.227
108.015
1.02313
1.00446
0.941364
0.855148
0.766435
0.684876
0.61317
0.551152
0.497721
0.451466
0.410927
0.374764
0.34183
0.31119
0.282099
0.253994
0.226489
0.199395
0.172736
0.146746
0.121836
0.0985034
0.0772031
0.0583661
0.0423627
0.0291299
0.0184981
0.0102966
0.00438035
9.61312e-05
0.979542
0.958497
0.899123
0.819777
0.738359
0.663156
0.59658
0.538607
0.48833
0.444495
0.405793
0.371017
0.339124
0.30925
0.280699
0.252937
0.225601
0.198517
0.171732
0.145524
0.120372
0.096871
0.0756273
0.0570623
0.0412436
0.0281597
0.0176794
0.00964839
0.0040735
0.00127934
0.931269
0.906126
0.849099
0.776344
0.70293
0.635101
0.574695
0.521733
0.475468
0.434755
0.398439
0.365473
0.334941
0.306074
0.278245
0.250961
0.223881
0.196856
0.169968
0.143557
0.118188
0.0945489
0.0732756
0.0547599
0.0391047
0.0262102
0.0157847
0.00786591
0.00286975
0.00140806
0.884824
0.855459
0.800093
0.733089
0.667217
0.60645
0.552023
0.503979
0.46173
0.424163
0.390282
0.35918
0.330063
0.302261
0.275214
0.248473
0.221727
0.194846
0.167949
0.141426
0.115915
0.0921856
0.0709207
0.0525129
0.0370776
0.024461
0.0142794
0.00654892
0.00167827
-2.42835e-05
0.852752
0.819215
0.765395
0.70262
0.642324
0.58655
0.536257
0.491561
0.452149
0.416711
0.384508
0.354701
0.326563
0.299495
0.272987
0.246624
0.220114
0.193351
0.166479
0.139924
0.11437
0.0906459
0.0694592
0.0511509
0.0358449
0.023409
0.0132599
0.00565501
0.00141049
-0.000250079
0.846406
0.807621
0.754682
0.693355
0.635114
0.580875
0.531702
0.487727
0.44956
0.414486
0.382682
0.353192
0.325279
0.298363
0.271952
0.24564
0.219155
0.192419
0.165598
0.139121
0.113657
0.0900392
0.0689895
0.0507812
0.0355653
0.0234636
0.0137365
0.005829
0.000800558
-0.000603444
0.876139
0.829507
0.774186
0.709418
0.647701
0.590436
0.538816
0.493065
0.452937
0.416906
0.384273
0.35412
0.325647
0.298274
0.271501
0.24493
0.218314
0.191601
0.164963
0.138783
0.11363
0.0902712
0.0694916
0.0514891
0.0361223
0.0234362
0.0133737
0.00565779
0.000537991
-0.000650518
0.9479
0.890132
0.823845
0.748459
0.676968
0.611945
0.554287
0.503828
0.459954
0.421409
0.387064
0.3557
0.326188
0.297983
0.270598
0.243639
0.216912
0.190418
0.164302
0.138783
0.114149
0.0908826
0.0696593
0.0512797
0.0360858
0.0236911
0.0135918
0.00536735
-0.000178293
-0.000813472
1.06185
0.981843
0.894697
0.800935
0.714357
0.638653
0.573611
0.51731
0.46839
0.42597
0.388662
0.355307
0.324907
0.296259
0.268534
0.241309
0.214507
0.188248
0.162654
0.137786
0.11376
0.0908639
0.0696709
0.0510734
0.035733
0.0234868
0.0134725
0.00491891
-0.000920546
-0.000974024
1.19663
1.08271
0.967392
0.85306
0.749247
0.658926
0.583388
0.521379
0.469866
0.425852
0.387404
0.353176
0.322132
0.293127
0.265152
0.237716
0.210947
0.185236
0.160699
0.13699
0.113677
0.0907747
0.0690589
0.04989
0.0343852
0.0224781
0.0128346
0.00426372
-0.00160901
-0.0011031
1.30858
1.16435
1.01866
0.879886
0.761279
0.663336
0.582983
0.517611
0.464303
0.419631
0.380937
0.346709
0.31596
0.287417
0.2597
0.2322
0.205462
0.180464
0.157453
0.135521
0.113341
0.0903847
0.0676525
0.0473728
0.0315541
0.0203024
0.0115725
0.00348516
-0.0021329
-0.00117474
1.39354
1.19994
1.02501
0.868499
0.740473
0.63981
0.560406
0.497371
0.446985
0.405066
0.368225
0.335249
0.305904
0.278916
0.252146
0.224643
0.197717
0.173558
0.1528
0.133592
0.113093
0.0898797
0.0653181
0.043063
0.0266561
0.0165659
0.00961996
0.00269548
-0.00241702
-0.00116709
1.38751
1.12605
0.932244
0.780123
0.664288
0.577785
0.510626
0.457295
0.415765
0.381244
0.348834
0.318199
0.291369
0.267469
0.242697
0.215079
0.187239
0.163776
0.146296
0.131373
0.113499
0.0897446
0.0620736
0.0364411
0.018953
0.0108151
0.00700745
0.00211559
-0.00237925
-0.00106341
1.11827
0.801242
0.671119
0.587233
0.516538
0.469809
0.431922
0.39666
0.370266
0.348919
0.323565
0.295251
0.27167
0.253264
0.232407
0.20432
0.173827
0.150284
0.13749
0.129374
0.115658
0.0908951
0.0581011
0.0268448
0.00740326
0.00243418
0.00389952
0.00217876
-0.001895
-0.000852171
0.407462
0.0381572
0.145914
0.277981
0.291631
0.324135
0.33748
0.31949
0.308874
0.309555
0.295933
0.268031
0.247033
0.237434
0.223579
0.193647
0.156449
0.130654
0.124722
0.127875
0.121019
0.0945976
0.0536557
0.0133104
-0.0095683
-0.00952177
0.000652912
0.00370197
-0.000755105
-0.000531381
140.585
140.666
140.854
141.139
141.504
141.939
142.437
142.988
143.583
144.21
144.855
145.503
146.137
146.736
147.279
147.738
148.082
148.273
148.267
148.006
147.42
146.411
144.847
142.533
139.171
134.265
126.895
115.147
92.9955
33.2426
139.858
139.929
140.095
140.345
140.664
141.042
141.471
141.942
142.443
142.964
143.488
144
144.482
144.912
145.265
145.511
145.617
145.541
145.23
144.62
143.627
142.137
139.991
136.958
132.68
126.572
117.603
104.039
84.5145
56.0524
139.088
139.15
139.292
139.506
139.778
140.097
140.455
140.843
141.249
141.661
142.062
142.437
142.765
143.024
143.186
143.221
143.092
142.752
142.146
141.203
139.833
137.913
135.28
131.703
126.857
120.288
111.403
99.5643
85.3201
68.6788
138.278
138.329
138.448
138.625
138.848
139.107
139.393
139.697
140.007
140.308
140.586
140.823
140.998
141.086
141.062
140.89
140.532
139.941
139.059
137.813
136.112
133.838
130.84
126.92
121.832
115.283
106.976
96.5769
84.0229
68.874
137.428
137.469
137.563
137.703
137.876
138.075
138.289
138.508
138.721
138.913
139.068
139.168
139.192
139.115
138.908
138.539
137.966
137.142
136.01
134.5
132.525
129.98
126.734
122.632
117.494
111.119
103.306
93.8137
82.4731
69.4911
136.541
136.572
136.641
136.743
136.867
137.005
137.146
137.281
137.397
137.481
137.516
137.482
137.36
137.123
136.744
136.189
135.417
134.385
133.035
131.304
129.115
126.376
122.983
118.815
113.743
107.633
100.36
91.8264
82.0216
71.3586
135.62
135.64
135.685
135.749
135.824
135.901
135.97
136.022
136.044
136.022
135.939
135.777
135.514
135.127
134.586
133.86
132.911
131.695
130.163
128.256
125.909
123.046
119.587
115.445
110.53
104.766
98.0967
90.5115
82.0537
73.0589
134.668
134.678
134.698
134.725
134.751
134.768
134.767
134.737
134.667
134.542
134.347
134.063
133.668
133.14
132.452
131.572
130.467
129.096
127.415
125.375
122.922
119.996
116.538
112.487
107.791
102.409
96.3277
89.567
82.1768
74.4294
133.688
133.688
133.684
133.674
133.652
133.611
133.541
133.433
133.275
133.052
132.75
132.35
131.833
131.177
130.356
129.341
128.102
126.604
124.809
122.675
120.16
117.22
113.813
109.899
105.451
100.453
94.9117
88.8609
82.3545
75.6199
132.685
132.675
132.648
132.602
132.534
132.436
132.3
132.117
131.874
131.559
131.157
130.651
130.022
129.25
128.311
127.181
125.831
124.232
122.353
120.161
117.622
114.706
111.385
107.635
103.446
98.8173
93.7671
88.3346
82.573
76.6672
131.663
131.643
131.593
131.514
131.401
131.249
131.05
130.795
130.473
130.072
129.577
128.974
128.244
127.37
126.33
125.103
123.664
121.99
120.054
117.832
115.3
112.437
109.225
105.654
101.723
97.4411
92.8326
87.9364
82.8006
77.5736
130.628
130.598
130.527
130.414
130.259
130.056
129.798
129.476
129.08
128.599
128.02
127.329
126.511
125.548
124.423
123.116
121.609
119.881
117.913
115.686
113.183
110.392
107.304
103.917
100.235
96.274
92.0588
87.6258
83.0169
78.3513
129.583
129.545
129.453
129.309
129.114
128.863
128.549
128.166
127.702
127.149
126.495
125.726
124.83
123.792
122.596
121.227
119.67
117.908
115.927
113.714
111.258
108.553
105.596
102.39
98.9441
95.2754
91.4083
87.3754
83.2125
79.0158
128.536
128.489
128.378
128.205
127.973
127.677
127.313
126.872
126.347
125.729
125.008
124.172
123.209
122.108
120.857
119.441
117.849
116.069
114.092
111.908
109.511
106.9
104.076
101.045
97.8182
94.4135
90.8535
87.1665
83.3829
79.5805
127.492
127.437
127.309
127.109
126.842
126.506
126.095
125.603
125.023
124.347
123.567
122.673
121.655
120.504
119.209
117.759
116.147
114.364
112.402
110.258
107.929
105.415
102.721
99.8559
96.8311
93.6634
90.3736
86.9861
83.5264
80.0577
126.457
126.396
126.251
126.027
125.728
125.355
124.902
124.364
123.736
123.01
122.18
121.237
120.174
118.983
117.655
116.184
114.563
112.787
110.851
108.754
106.496
104.08
101.513
98.8021
95.9612
93.0054
89.9531
86.8251
83.6429
80.4582
125.439
125.371
125.211
124.965
124.638
124.232
123.742
123.163
122.493
121.724
120.851
119.868
118.769
117.548
116.199
114.716
113.096
111.335
109.432
107.386
105.202
102.881
100.433
97.8658
95.1914
92.4242
89.5803
86.6776
83.734
80.792
124.445
124.371
124.198
123.931
123.579
123.143
122.62
122.007
121.3
120.495
119.587
118.572
117.446
116.203
114.84
113.353
111.741
110.002
108.136
106.146
104.033
101.805
99.4684
97.0322
94.5078
91.908
89.2469
86.5397
83.8017
81.0678
123.48
123.401
123.216
122.932
122.558
122.096
121.545
120.902
120.164
119.329
118.393
117.353
116.206
114.949
113.579
112.096
110.497
108.785
106.959
105.023
102.981
100.84
98.6065
96.2894
93.8993
91.4475
88.9465
86.4092
83.8486
81.2935
122.554
122.47
122.275
121.975
121.582
121.098
120.523
119.854
119.091
118.231
117.272
116.214
115.052
113.787
112.417
110.942
109.361
107.677
105.893
104.011
102.037
99.9765
97.8373
95.6278
93.3573
91.036
88.6749
86.285
83.8775
81.4763
121.673
121.585
121.381
121.068
120.658
120.155
119.559
118.87
118.085
117.206
116.231
115.158
113.988
112.72
111.353
109.89
108.33
106.676
104.933
103.103
101.192
99.2062
97.1528
95.0395
92.875
90.6683
88.4291
86.167
83.8915
81.6225
120.845
120.754
120.542
120.217
119.793
119.274
118.661
117.955
117.154
116.26
115.272
114.19
113.016
111.748
110.388
108.939
107.401
105.778
104.074
102.293
100.441
98.5229
96.5465
94.5187
92.4475
90.3409
88.2075
86.0556
83.8937
81.7382
120.078
119.985
119.765
119.431
118.995
118.463
117.836
117.116
116.302
115.396
114.4
113.313
112.137
110.872
109.522
108.088
106.572
104.979
103.313
101.577
99.7781
97.9213
96.0132
94.0606
92.0708
90.051
88.0089
85.9517
83.8869
81.8283
119.381
119.285
119.06
118.717
118.27
117.727
117.089
116.358
115.535
114.621
113.619
112.529
111.354
110.095
108.755
107.337
105.844
104.279
102.647
100.952
99.2009
97.3981
95.5499
93.6628
91.7433
89.7981
87.8339
85.8575
83.8751
81.8987
118.762
118.663
118.432
118.082
117.627
117.075
116.428
115.688
114.858
113.938
112.932
111.842
110.67
109.417
108.088
106.686
105.213
103.674
102.073
100.415
98.7054
96.9494
95.1529
93.3218
91.4621
89.58
87.6816
85.7728
83.8595
81.9515
118.23
118.129
117.892
117.534
117.072
116.513
115.859
115.113
114.278
113.355
112.347
111.258
110.089
108.844
107.525
106.137
104.683
103.167
101.593
99.9667
98.2928
96.5767
94.8237
93.0395
91.2297
89.4001
87.5562
85.7035
83.8473
81.996
117.796
117.69
117.447
117.081
116.612
116.047
115.388
114.637
113.797
112.872
111.864
110.776
109.611
108.373
107.064
105.689
104.25
102.754
101.203
99.6029
97.9584
96.2747
94.557
92.8107
91.0409
89.2532
87.4526
85.6442
83.833
82.0257
117.47
117.359
117.106
116.734
116.26
115.69
115.027
114.272
113.43
112.504
111.496
110.41
109.249
108.016
106.716
105.351
103.926
102.445
100.912
99.3328
97.7116
96.0534
94.3633
92.6464
90.9078
89.1525
87.3855
85.6117
83.8357
82.0636
117.268
117.133
116.863
116.485
116.009
115.437
114.771
114.014
113.171
112.245
111.238
110.154
108.996
107.768
106.474
105.117
103.701
102.231
100.711
99.1461
97.5406
95.8996
94.2279
92.5306
90.8125
89.0786
87.3335
85.5818
83.828
82.0771
117.249
117.05
116.752
116.368
115.889
115.313
114.645
113.887
113.043
112.116
111.11
110.028
108.873
107.649
106.359
105.007
103.598
102.136
100.624
99.0688
97.4737
95.8438
94.1839
92.499
90.7938
89.073
87.3414
85.6033
83.8632
82.1252
-50.5497
-30.3111
-11.1086
35.6904
28.2691
16.2828
51.1803
39.101
27.9026
52.6019
42.1825
34.1442
56.9399
48.6548
41.9007
61.3264
54.4198
48.5306
64.5984
58.7188
53.6713
67.1934
62.1698
57.8619
69.3809
65.0496
61.3416
71.2273
67.4493
64.2229
72.7798
69.45
66.6136
74.0877
71.1257
68.6076
75.1916
72.5342
70.2783
76.1239
73.721
71.6833
76.9108
74.7227
72.8683
77.5745
75.5688
73.8695
78.1331
76.2833
74.716
78.6018
76.8859
75.4315
78.9935
77.3931
76.0355
79.3195
77.8185
76.5441
79.589
78.174
76.971
79.8108
78.4698
77.328
79.9916
78.7139
77.6245
80.1395
78.9157
77.8704
80.2568
79.0783
78.0701
80.3555
79.2143
78.2362
80.4268
79.3155
78.3621
80.4992
79.4107
78.4745
80.5331
79.4608
78.5387
80.6021
79.5439
78.6282
-2.68911
-2.57288
-1.09959
0.0419877
0.0700039
0.158885
0.223537
0.203857
0.216639
0.273569
0.281725
0.240105
0.211805
0.214899
0.216342
0.183782
0.133587
0.102054
0.107071
0.12946
0.133902
0.104117
0.0497809
-0.00544321
-0.0345661
-0.0267951
-0.00208473
0.00833177
0.00152707
-0.000109902
2.5224
-0.439412
1.13474
0.617769
-0.703668
-0.482938
0.12885
0.179007
0.190646
0.292277
0.278942
0.180882
0.13682
0.183461
0.232282
0.193311
0.112307
0.0616178
0.0787599
0.132333
0.156094
0.120194
0.044717
-0.0337671
-0.0733673
-0.053293
-0.00335352
0.0193186
0.00606979
0.000356817
13.6481
5.27036
2.49217
0.0586898
-0.292941
1.0272
1.21865
-0.00437698
-0.399156
-0.0572928
0.296115
0.191669
0.117666
0.214288
0.287467
0.20186
0.0534502
-0.0360531
0.0103299
0.137216
0.207911
0.158186
0.0482719
-0.0671004
-0.126496
-0.0909217
0.000283705
0.0437019
0.0157971
0.000716755
23.3973
13.5242
7.66359
3.89107
2.13748
1.54748
0.393982
-0.286128
0.018227
1.19256
1.14582
0.0697767
-0.328863
-0.162565
0.241108
0.282933
0.0431313
-0.107453
-0.00835591
0.213955
0.303197
0.204486
0.0374349
-0.134684
-0.227577
-0.167297
0.00635001
0.0880324
0.0358614
0.000456912
32.5599
22.7974
15.4818
10.19
6.55182
4.07743
2.22261
1.21148
0.922007
0.952747
0.464432
-0.113576
-0.235646
0.517205
1.05571
0.539011
-0.094308
-0.464971
-0.418062
0.100069
0.407801
0.291123
0.0519695
-0.186
-0.316391
-0.199275
0.0438908
0.174471
0.0759014
-0.00127196
40.5322
31.6066
23.7212
17.2911
12.3669
8.72355
6.05369
4.17398
2.90637
2.01643
1.2554
0.658383
0.391671
0.579692
0.579448
0.325905
-0.17005
-0.499752
-0.187403
0.680659
0.844257
0.356747
0.00381738
-0.31927
-0.556249
-0.514327
-0.00286878
0.293916
0.13976
-0.00705875
47.0378
39.232
31.4567
24.5675
18.9442
14.4873
10.9684
8.21944
6.12803
4.55929
3.33899
2.36943
1.69949
1.33461
1.04092
0.686922
0.20156
-0.110471
0.0384596
0.433152
0.57141
0.368109
0.0364495
-0.335321
-0.597094
-0.385187
0.348533
0.567197
0.217595
-0.0208699
52.3362
45.6042
38.3463
31.5172
25.6361
20.6935
16.5568
13.1381
10.3706
8.15716
6.36675
4.91265
3.78933
2.97287
2.33383
1.72773
1.13347
0.722418
0.628279
0.730748
0.751153
0.529491
0.157701
-0.214064
-0.426611
-0.265821
0.173351
0.395089
0.306731
-0.063798
56.6582
50.8406
44.2558
37.7826
31.9661
26.8566
22.3899
18.5307
15.2493
12.4892
10.1733
8.2405
6.66012
5.39258
4.34894
3.43583
2.63872
2.0316
1.67246
1.48993
1.29616
0.962454
0.542904
0.163366
-0.0518543
0.00337325
0.251059
0.390561
0.263048
-0.302089
60.1851
55.1167
49.2135
43.2287
37.6757
32.6323
28.0696
23.9832
20.3743
17.2238
14.4937
12.1445
10.1434
8.4526
7.01497
5.77381
4.7084
3.84003
3.18519
2.6928
2.24631
1.76128
1.25807
0.816527
0.520889
0.42457
0.465537
0.438216
0.176351
-0.517393
63.0816
58.6214
53.3407
47.8723
42.6765
37.8365
33.3396
29.1971
25.4298
22.0428
19.0237
16.3517
14.0041
11.954
10.1659
8.60327
7.24434
6.0869
5.12699
4.32728
3.61748
2.94134
2.29846
1.73237
1.29413
1.00695
0.81826
0.587063
0.176308
-0.593291
65.4805
61.5162
56.7776
51.7984
46.984
42.4128
38.0781
33.9968
30.1984
26.7015
23.5093
20.616
18.0107
15.6781
13.5973
11.7449
10.1029
8.66117
7.40819
6.31642
5.3418
4.4457
3.619
2.88123
2.25833
1.75537
1.32902
0.882547
0.314175
-0.522714
67.4814
63.9255
59.6499
55.1107
50.6644
46.3816
42.2561
38.305
34.5599
31.0453
27.7737
24.749
21.9699
19.4303
17.1196
15.0245
13.1322
11.4319
9.91119
8.54981
7.31892
6.19171
5.15646
4.21801
3.38535
2.65363
1.98813
1.32239
0.585822
-0.331248
69.1596
65.9435
62.0615
57.9087
53.8007
49.7999
45.8987
42.1118
38.4694
34.9979
31.7141
28.6278
25.7439
23.0632
20.5825
18.2955
16.1946
14.2715
12.5158
10.9129
9.4436
8.0889
6.83711
5.68514
4.63205
3.66829
2.7665
1.88114
0.965685
-0.0550495
70.573
67.6421
64.0951
60.2784
56.4738
52.7361
49.0561
45.445
41.9304
38.5379
35.286
32.1874
29.2509
26.4817
23.8817
21.4496
19.1821
17.0741
15.1183
13.3047
11.6202
10.0513
8.58744
7.22203
5.94913
4.75756
3.62588
2.52275
1.41817
0.26577
71.7666
69.0767
65.8158
62.2905
58.7546
55.2566
51.7853
48.3489
44.9714
41.6768
38.4834
35.4053
32.4531
29.6348
26.9555
24.4175
22.0207
19.7631
17.6404
15.6461
13.7716
12.0071
10.3437
8.77368
7.28923
5.87916
4.52643
3.20893
1.90674
0.595524
72.7762
70.2908
67.275
64.0023
60.7029
57.42
54.1412
50.8713
47.6311
44.4423
41.3222
38.285
35.3421
32.5029
29.7746
27.1617
24.6667
22.2899
20.0298
17.8825
15.8425
13.9029
12.0564
10.2956
8.61231
6.99597
5.43267
3.90583
2.40078
0.90845
73.6305
71.3192
68.5137
65.46
62.3681
59.2768
56.1727
53.0578
49.9498
46.8678
43.828
40.8436
37.9263
35.0861
32.331
29.6673
27.099
24.6284
22.2559
19.9799
17.7971
15.7027
13.691
11.7554
9.88795
8.07907
6.31678
4.58748
2.87846
1.19
74.3527
72.19
69.5655
66.7015
63.7911
60.8694
57.9222
54.9493
51.9654
48.9873
46.0295
43.1042
40.2226
37.3948
34.6292
31.9329
29.3111
26.7674
24.3036
21.9198
19.6144
17.3844
15.2253
13.1312
11.0951
9.10804
7.1592
5.23628
3.32659
1.43511
74.9623
72.9264
70.4575
67.7579
65.0058
62.2334
59.426
56.5816
53.7121
50.8323
47.9549
45.091
42.2509
39.4444
36.6799
33.9648
31.305
28.7049
26.1674
23.6939
21.284
18.9358
16.6461
14.4098
12.2204
10.0697
7.94748
5.84165
3.73868
1.64509
75.4754
73.5476
71.2124
68.6548
66.0403
63.3987
60.7149
57.9855
55.2201
52.4314
49.6306
46.8275
44.0316
41.2517
38.4963
35.7727
33.0869
30.4441
27.8476
25.2998
22.8011
20.3508
17.9462
15.5832
13.2558
10.9561
8.67418
6.39785
4.11244
1.82414
75.9057
74.0699
71.8492
69.414
66.9186
64.3907
61.8155
59.1879
56.5159
53.8103
51.0807
48.3359
45.5842
42.834
40.0928
37.368
34.6656
31.9908
29.3476
26.7387
24.1653
21.6272
19.1225
16.6476
14.1969
11.7628
9.33556
6.90256
4.44817
1.97725
76.2645
74.5066
72.3836
70.0531
67.66
65.2304
62.7495
60.2112
57.6218
54.9906
52.326
49.6355
46.9266
44.2065
41.4827
38.7617
36.0496
33.3515
30.6717
28.0129
25.3771
22.7643
20.1731
17.6003
15.0407
12.4869
9.92897
7.35419
4.74614
2.10787
76.5626
74.8701
72.8297
70.5882
68.2822
65.9367
63.5367
61.0757
58.5583
55.9928
53.3862
50.745
48.0758
45.3852
42.6799
39.9659
37.2491
34.5345
31.8262
29.1273
26.4397
23.764
21.099
18.4417
15.7872
13.1282
10.4547
7.75379
5.00855
2.21979
76.8062
75.1681
73.1967
71.0297
68.7969
66.522
64.1906
61.7952
59.3395
56.8306
54.2745
51.677
49.0436
46.3804
43.6932
40.9879
38.2698
35.5436
32.8136
30.0826
27.3529
24.6249
21.8978
19.1687
16.4329
13.6831
10.9093
8.09846
5.23338
2.31261
77.0071
75.4131
73.4985
71.3928
69.2201
67.0036
64.7288
62.388
59.9839
57.5225
55.0093
52.4491
49.8469
47.208
44.5377
41.8414
39.1241
36.3903
33.6438
30.8878
28.1242
25.3537
22.5754
19.7868
16.9829
14.1567
11.298
8.39359
5.42628
2.39148
77.1622
75.6031
73.7332
71.6761
69.5512
67.3811
65.1516
62.8545
60.4918
58.0688
55.5904
53.0608
50.4844
47.8658
45.2101
42.5222
39.8066
37.0677
34.3091
31.5339
28.7439
25.9398
23.1208
20.2843
17.4255
14.5372
11.6092
8.62833
5.57733
2.4494
77.2936
75.7602
73.9244
71.9041
69.8154
67.6804
65.4852
63.2212
60.8901
58.4965
56.0448
53.5387
50.9822
48.3797
45.7356
43.0545
40.3408
37.5985
34.8313
32.0418
29.232
26.4026
23.5526
20.6795
17.7785
14.8422
11.8605
8.81983
5.70285
2.49893
77.3744
75.8571
74.0437
72.0485
69.9842
67.8726
65.7003
63.4586
61.1486
58.7748
56.341
53.8508
51.3079
48.7162
46.0801
43.4039
40.6917
37.9474
35.1745
32.3757
29.5528
26.7064
23.8357
20.9379
18.0082
15.0392
12.0205
8.93831
5.77516
2.51882
77.4633
75.9471
74.1459
72.1657
70.1151
68.0161
65.8559
63.6259
61.327
58.9632
56.5385
54.0561
51.5196
48.9329
46.3001
43.6254
40.9129
38.1665
35.3895
32.5846
29.7536
26.8971
24.0142
21.1023
18.1564
15.1691
12.1295
9.02293
5.82951
2.5253
)
;

boundaryField
{
    inlet
    {
        type            zeroGradient;
    }
    outlet
    {
        type            fixedValue;
        value           uniform 0;
    }
    flap
    {
        type            zeroGradient;
    }
    upperWall
    {
        type            zeroGradient;
    }
    lowerWall
    {
        type            zeroGradient;
    }
    frontAndBack
    {
        type            empty;
    }
}


// ************************************************************************* //
