/*--------------------------------*- C++ -*----------------------------------*\
  =========                 |
  \\      /  F ield         | OpenFOAM: The Open Source CFD Toolbox
   \\    /   O peration     | Website:  https://openfoam.org
    \\  /    A nd           | Version:  dev
     \\/     M anipulation  |
\*---------------------------------------------------------------------------*/
FoamFile
{
    version     2.0;
    format      ascii;
    class       surfaceScalarField;
    location    "5.5";
    object      phi;
}
// * * * * * * * * * * * * * * * * * * * * * * * * * * * * * * * * * * * * * //

dimensions      [0 3 -1 0 0 0 0];

internalField   nonuniform List<scalar> 
5457
(
0.198418
0.00158236
0.19648
0.00193734
0.194192
0.00228804
0.191509
0.00268352
0.188428
0.00308112
0.184951
0.00347668
0.181072
0.00387848
0.176779
0.00429391
0.17205
0.00472811
0.166865
0.0051851
0.161197
0.00566838
0.155016
0.0061809
0.148291
0.00672483
0.14099
0.0073012
0.133081
0.00790936
0.124534
0.00854631
0.115329
0.00920576
0.105452
0.00987707
0.0949076
0.010544
0.0837241
0.0111834
0.0719595
0.0117646
0.0597112
0.0122483
0.0471225
0.0125887
0.0343823
0.0127403
0.0216871
0.0126951
0.00903687
0.0126502
-0.00291668
0.0119536
-0.00847238
0.00555569
-0.00804312
-0.00042926
-0.00804312
0.199928
0.00165419
0.199176
0.00268975
0.197965
0.00349893
0.196332
0.00431664
0.194272
0.0051411
0.191782
0.00596667
0.188855
0.00680537
0.185478
0.00767067
0.181633
0.00857291
0.177298
0.00952039
0.172446
0.0105204
0.167048
0.0115791
0.161071
0.0127015
0.154482
0.01389
0.147247
0.0151443
0.139334
0.0164593
0.130717
0.0178236
0.121377
0.0192171
0.111312
0.0206087
0.100542
0.0219532
0.0891176
0.023189
0.07713
0.0242359
0.064724
0.0249947
0.0521164
0.0253478
0.039656
0.0251556
0.0281058
0.0242005
0.0185951
0.0214642
0.00879721
0.0153536
0.0011835
0.00718446
-0.00685962
0.199781
0.00187362
0.199087
0.00338356
0.197946
0.00463982
0.196409
0.00585321
0.194483
0.00706717
0.192164
0.00828564
0.189447
0.00952272
0.186322
0.0107961
0.182774
0.0121207
0.178785
0.0135092
0.174333
0.0149724
0.169392
0.01652
0.163934
0.0181599
0.157926
0.0198971
0.151338
0.0217324
0.144137
0.0236609
0.136291
0.0256689
0.127778
0.0277309
0.118581
0.0298055
0.108703
0.0318311
0.098171
0.0337208
0.0870487
0.0353582
0.075452
0.0365915
0.0635747
0.037225
0.0517328
0.0369975
0.0403974
0.0355358
0.0297391
0.0321226
0.0191661
0.0259266
0.00959765
0.0167529
0.00273803
0.199703
0.00217053
0.199008
0.00407884
0.197887
0.00576031
0.196376
0.00736407
0.194488
0.00895523
0.192222
0.0105516
0.189575
0.0121703
0.186539
0.013832
0.183105
0.0155551
0.179258
0.0173555
0.174983
0.0192473
0.170261
0.0212426
0.165069
0.0233515
0.159385
0.0255812
0.153184
0.0279341
0.146438
0.030406
0.139124
0.0329832
0.131217
0.0356381
0.122698
0.0383247
0.113557
0.0409719
0.1038
0.0434777
0.0934574
0.0457008
0.0825961
0.0474528
0.0713333
0.0484879
0.0598412
0.0484896
0.0483171
0.04706
0.036811
0.0436286
0.0251879
0.0375498
0.0133356
0.0286052
0.0160736
0.199667
0.00250311
0.198964
0.00478208
0.197863
0.00686159
0.196381
0.0088457
0.194533
0.0108039
0.192318
0.0127661
0.189734
0.0147541
0.186776
0.0167905
0.183434
0.0188967
0.179699
0.0210912
0.175556
0.0233901
0.170991
0.0258076
0.165987
0.0283552
0.160527
0.0310413
0.154591
0.0338695
0.148161
0.0368365
0.141215
0.039929
0.133734
0.0431196
0.125697
0.0463615
0.117088
0.0495813
0.107894
0.0526712
0.0981151
0.0554799
0.0877651
0.0578028
0.076879
0.059374
0.0655089
0.0598597
0.053708
0.0588608
0.041454
0.0558827
0.0285877
0.050416
0.0148523
0.0423406
0.0309259
0.199653
0.0028503
0.198949
0.00548612
0.197871
0.00793949
0.196427
0.0102898
0.194627
0.0126039
0.192473
0.0149196
0.189964
0.0172636
0.187093
0.0196612
0.183854
0.0221359
0.180237
0.0247083
0.17623
0.0273965
0.171822
0.0302161
0.166997
0.0331799
0.161741
0.0362971
0.156038
0.0395723
0.149872
0.043003
0.143224
0.0465771
0.136074
0.0502689
0.128402
0.0540337
0.120182
0.0578009
0.111388
0.0614656
0.101989
0.0648788
0.0919549
0.0678371
0.081254
0.0700749
0.0698541
0.0712596
0.0577166
0.0709982
0.0447604
0.0688389
0.0308489
0.0643275
0.015873
0.0573165
0.0467989
0.19965
0.00320023
0.198954
0.00618208
0.197905
0.00898908
0.196505
0.0116895
0.194763
0.0143461
0.192681
0.0170015
0.190257
0.0196872
0.187488
0.0224307
0.184366
0.0252579
0.180883
0.0281911
0.177029
0.0312504
0.172793
0.0344526
0.168161
0.0378119
0.163119
0.0413386
0.157653
0.0450385
0.151745
0.0489105
0.145378
0.0529446
0.138528
0.0571184
0.13117
0.061392
0.123269
0.0657018
0.114783
0.0699524
0.105655
0.0740067
0.0958166
0.0776751
0.085186
0.0807056
0.0736679
0.0827777
0.061161
0.0835051
0.0475548
0.0824452
0.0327582
0.0791241
0.0167826
0.0732921
0.0635816
0.199655
0.00354557
0.198975
0.00686217
0.197959
0.0100048
0.19661
0.0130382
0.194934
0.016022
0.192934
0.019002
0.190608
0.0220132
0.187953
0.0250859
0.184963
0.0282477
0.181631
0.0315232
0.177947
0.0349337
0.173902
0.0384979
0.169483
0.0422313
0.164675
0.0461459
0.159465
0.0502492
0.153832
0.0545427
0.147757
0.0590198
0.141212
0.0636631
0.134164
0.0684403
0.126567
0.0732986
0.118362
0.0781577
0.109469
0.0828996
0.0997862
0.087358
0.0891868
0.091305
0.0775245
0.09444
0.0646467
0.0963829
0.0504167
0.0966751
0.0347675
0.0947732
0.0177895
0.0902701
0.081371
0.199664
0.00388138
0.199006
0.00751995
0.19803
0.010981
0.196739
0.0143296
0.195137
0.017624
0.193227
0.0209118
0.191009
0.0242309
0.188481
0.0276144
0.185637
0.0310916
0.182471
0.0346888
0.178976
0.038429
0.175141
0.0423327
0.170955
0.0464171
0.166405
0.0506962
0.161474
0.0551802
0.156143
0.059874
0.150387
0.064776
0.144174
0.069876
0.137462
0.0751518
0.130196
0.0805652
0.122298
0.0860555
0.113666
0.0915309
0.104168
0.0968567
0.0936332
0.10184
0.0818638
0.106209
0.0686484
0.109598
0.0538009
0.111523
0.0372357
0.111338
0.0190829
0.108423
0.100454
0.199677
0.00420415
0.199047
0.00815017
0.198116
0.0119123
0.196887
0.0155578
0.195367
0.0191449
0.193556
0.0227223
0.191456
0.0263307
0.189066
0.0300051
0.18638
0.0337768
0.183396
0.0376735
0.180105
0.0417201
0.176499
0.0459387
0.172567
0.0503486
0.168297
0.0549662
0.163672
0.0598049
0.158672
0.0648741
0.15327
0.0701786
0.147429
0.0757168
0.141101
0.0814795
0.13422
0.0874459
0.126696
0.0935799
0.118405
0.0998221
0.109183
0.106079
0.0988185
0.112204
0.0870513
0.117977
0.0735884
0.123061
0.058147
0.126964
0.0405507
0.128935
0.0209006
0.128073
0.121355
0.199693
0.00451121
0.199095
0.00874854
0.198213
0.0127939
0.197053
0.0167174
0.19562
0.0205782
0.193916
0.0244261
0.191943
0.0283037
0.189701
0.0322479
0.187186
0.0362917
0.184395
0.0404643
0.181323
0.0447922
0.177962
0.0492991
0.174304
0.0540065
0.170337
0.0589334
0.166045
0.0640969
0.161408
0.0695114
0.156398
0.0751888
0.150977
0.0811378
0.145093
0.0873634
0.138674
0.0938652
0.131619
0.100635
0.123789
0.107652
0.114995
0.114873
0.104981
0.122218
0.0934174
0.129541
0.0798961
0.136582
0.0639659
0.142894
0.045233
0.147668
0.0236105
0.149695
0.144965
0.199711
0.00480052
0.199148
0.00931153
0.19832
0.0136215
0.197234
0.0178037
0.195894
0.0219183
0.194303
0.0260164
0.192465
0.0301421
0.190379
0.034334
0.188044
0.0386263
0.185459
0.0430498
0.182619
0.0476321
0.179519
0.0523987
0.176153
0.057373
0.172509
0.0625768
0.168576
0.0680308
0.164332
0.0737545
0.159754
0.0797672
0.154804
0.0860882
0.14943
0.0927372
0.14356
0.0997351
0.137091
0.107104
0.129878
0.114865
0.121715
0.123036
0.112313
0.131619
0.101271
0.140583
0.0880428
0.149811
0.0719202
0.159017
0.0520836
0.167504
0.0278838
0.173895
0.172849
0.19973
0.00507044
0.199205
0.00983629
0.198435
0.0143914
0.197427
0.0188123
0.196185
0.0231603
0.194714
0.0274876
0.193016
0.0318394
0.191094
0.0362558
0.188949
0.0407721
0.186578
0.0454201
0.183982
0.0502286
0.181156
0.0552245
0.178096
0.0604328
0.174795
0.0658779
0.171242
0.0715837
0.167422
0.0775745
0.163313
0.0838764
0.158883
0.0905183
0.154086
0.097534
0.148857
0.104964
0.143101
0.11286
0.136679
0.121286
0.129391
0.130323
0.12094
0.14007
0.110881
0.150642
0.0985399
0.162151
0.0828972
0.174659
0.0624314
0.18797
0.0351216
0.201205
0.20797
0.199751
0.00531972
0.199266
0.0103205
0.198557
0.0151008
0.19763
0.0197398
0.19649
0.0243001
0.195143
0.0288348
0.193592
0.0333902
0.19184
0.0380072
0.18989
0.042722
0.187743
0.0475672
0.185399
0.0525725
0.182858
0.0577657
0.180118
0.0631733
0.177174
0.0688213
0.174022
0.0747363
0.17065
0.0809465
0.167043
0.0874834
0.163177
0.0943838
0.159019
0.101693
0.154516
0.109467
0.149594
0.117782
0.144142
0.126739
0.137991
0.136474
0.130884
0.147178
0.122403
0.159122
0.111856
0.172699
0.0980117
0.188504
0.0785302
0.207452
0.0486576
0.231078
0.256628
0.199772
0.00554741
0.19933
0.0107624
0.198684
0.0157473
0.19784
0.0205833
0.196806
0.0253345
0.195586
0.0300544
0.194186
0.0347903
0.19261
0.0395834
0.190862
0.0444707
0.188944
0.0494852
0.186859
0.0546569
0.184611
0.0600144
0.182199
0.0655847
0.179625
0.0713951
0.176888
0.0774738
0.173983
0.0838514
0.170903
0.0905628
0.167637
0.0976498
0.164166
0.105164
0.160459
0.113174
0.156474
0.121767
0.152145
0.131068
0.14737
0.141248
0.141993
0.152556
0.135748
0.165367
0.128165
0.180281
0.118304
0.198365
0.103912
0.221844
0.0776766
0.257313
0.334305
0.00365131
-0.00365131
0.00711648
-0.00346517
0.00995147
-0.00283498
0.0121553
-0.00220384
0.0138295
-0.00167418
0.0150826
-0.00125315
0.0160092
-0.000926532
0.0166878
-0.000678671
0.0171831
-0.000495217
0.0175461
-0.000363043
0.0178171
-0.000271011
0.0180274
-0.000210263
0.0182012
-0.000173785
0.0183569
-0.000155763
0.0185079
-0.000150924
0.0186618
-0.000153931
0.0188208
-0.000159028
0.018981
-0.000160181
0.0191328
-0.000151761
0.0192625
-0.000129712
0.0193554
-9.2957e-05
0.0194003
-4.48835e-05
0.0193946
5.74261e-06
0.019337
5.75518e-05
0.0192331
0.000103893
0.0190851
0.000148061
0.0188945
0.000190536
0.0186613
0.000233244
0.0183986
0.000262645
0.000209406
0.00339305
-0.00704436
0.00662598
-0.0066981
0.00932357
-0.00553257
0.0114935
-0.0043738
0.0132322
-0.00341285
0.014635
-0.00265599
0.0157807
-0.00207223
0.0167323
-0.00163028
0.0175398
-0.0013027
0.0182416
-0.00106483
0.0188669
-0.000896263
0.0194377
-0.000781081
0.0199708
-0.00070691
0.0204789
-0.00066385
0.0209714
-0.000643393
0.0214548
-0.000637388
0.0219331
-0.000637315
0.0224071
-0.000634205
0.0228748
-0.000619437
0.0233315
-0.000586358
0.0237707
-0.000532235
0.0241854
-0.000459559
0.0245656
-0.000374492
0.0249077
-0.000284477
0.0252105
-0.00019895
0.0254763
-0.00011775
0.0257018
-3.49533e-05
0.0258784
5.66849e-05
0.0260083
0.000132763
0.000136018
0.00287156
-0.00991593
0.00550704
-0.00933358
0.00765789
-0.00768342
0.00936889
-0.0060848
0.0107385
-0.00478248
0.0118496
-0.0037671
0.0127657
-0.00298827
0.0135353
-0.00239991
0.0141969
-0.00196435
0.0147791
-0.00164694
0.0153029
-0.00142009
0.0157844
-0.00126255
0.0162353
-0.00115788
0.0166647
-0.00109326
0.0170794
-0.00105805
0.0174844
-0.00104236
0.017883
-0.00103593
0.0182767
-0.00102788
0.0186647
-0.00100753
0.0190447
-0.000966359
0.0194129
-0.000900385
0.0197653
-0.000811998
0.0201
-0.000709197
0.0204176
-0.000601996
0.0207191
-0.0005005
0.0210104
-0.000409035
0.0212978
-0.0003224
0.0215854
-0.000230863
0.0218581
-0.000139908
-5.25871e-05
0.00228957
-0.0122055
0.00421776
-0.0112618
0.00570507
-0.00917073
0.00685293
-0.00723266
0.00775745
-0.005687
0.00848432
-0.00449398
0.00907775
-0.00358169
0.00956862
-0.00289078
0.00998387
-0.0023796
0.0103412
-0.00200428
0.0106538
-0.00173267
0.0109313
-0.00154003
0.0111808
-0.00140735
0.0114078
-0.00132028
0.0116171
-0.00126733
0.0118127
-0.00123799
0.0119981
-0.00122136
0.0121758
-0.00120556
0.0123468
-0.00117853
0.0125107
-0.0011303
0.0126659
-0.00105552
0.0128099
-0.000956005
0.0129414
-0.000840703
0.01306
-0.000720603
0.0131659
-0.000606445
0.013265
-0.000508137
0.013359
-0.000416354
0.0134469
-0.000318737
0.0135335
-0.000226544
-0.000100772
0.00160781
-0.0138133
0.00274722
-0.0124012
0.00350668
-0.00993019
0.00403773
-0.00776371
0.00442131
-0.00607058
0.00470313
-0.00477581
0.00490739
-0.00378595
0.00504608
-0.00302946
0.00513886
-0.00247238
0.00519224
-0.00205767
0.00521362
-0.00175405
0.00520791
-0.00153432
0.00517854
-0.00137799
0.00512876
-0.0012705
0.00506224
-0.00120081
0.00498318
-0.00115893
0.00489608
-0.00113427
0.00480493
-0.0011144
0.00471231
-0.00108592
0.00461897
-0.00103696
0.00452337
-0.000959911
0.00442239
-0.000855034
0.00431425
-0.000732555
0.00419603
-0.000602388
0.00406011
-0.000470524
0.00390962
-0.000357652
0.00374253
-0.000249264
0.00353032
-0.000106524
0.00325163
5.21472e-05
0.000114747
0.000820346
-0.0146337
0.00108979
-0.0126706
0.00107986
-0.00992026
0.000964991
-0.00764884
0.000776694
-0.00588228
0.000549041
-0.00454815
0.000294393
-0.0035313
1.72611e-05
-0.00275233
-0.000291634
-0.00216349
-0.000611035
-0.00173827
-0.000938897
-0.00142619
-0.00127221
-0.001201
-0.00160897
-0.00104123
-0.0019467
-0.000932766
-0.00228201
-0.000865499
-0.00261082
-0.000830127
-0.00292934
-0.000815741
-0.00323567
-0.000808076
-0.00353076
-0.000790828
-0.00381846
-0.000749264
-0.00410471
-0.00067366
-0.00439525
-0.000564489
-0.00469049
-0.000437315
-0.00498819
-0.000304695
-0.00529771
-0.000161001
-0.00565149
-3.87559e-06
-0.0060358
0.000135046
-0.00637258
0.000230263
-0.00659404
0.000273609
0.000253
-0.000136613
-0.014497
-0.000757018
-0.0120502
-0.00154984
-0.00912744
-0.00237225
-0.00682643
-0.00319507
-0.00505946
-0.00399276
-0.00375046
-0.00475317
-0.00277089
-0.00547548
-0.00203002
-0.00615861
-0.00148036
-0.00680926
-0.00108762
-0.00742174
-0.000813707
-0.00799424
-0.000628497
-0.00852956
-0.000505912
-0.0090317
-0.00043063
-0.00950506
-0.00039214
-0.00995369
-0.000381497
-0.0103808
-0.000388612
-0.0107899
-0.000398986
-0.011186
-0.000394766
-0.0115752
-0.000359988
-0.0119648
-0.000284135
-0.0123627
-0.000166598
-0.0127768
-2.31878e-05
-0.013192
0.000110517
-0.0135629
0.000209894
-0.0138511
0.000284293
-0.0140721
0.000356097
-0.0142608
0.000418924
-0.014427
0.000439826
0.000410493
-0.00114313
-0.0133539
-0.00277789
-0.0104155
-0.00441772
-0.00748761
-0.0059968
-0.00524735
-0.00746901
-0.00358726
-0.00880874
-0.00241073
-0.010002
-0.00157763
-0.0110593
-0.000972756
-0.0119989
-0.000540768
-0.0128445
-0.000241981
-0.0136158
-4.24444e-05
-0.0143194
7.5184e-05
-0.0149565
0.000131175
-0.0155344
0.000147234
-0.016068
0.000141446
-0.0165708
0.000121301
-0.0170523
9.288e-05
-0.0175192
6.8e-05
-0.0179787
6.47118e-05
-0.0184362
9.74949e-05
-0.0188869
0.000166591
-0.019311
0.000257425
-0.0196821
0.000347959
-0.0199926
0.000420974
-0.0202555
0.000472802
-0.0204817
0.000510542
-0.0206744
0.000548816
-0.0208394
0.000583872
-0.0209891
0.000589576
0.000567263
-0.00234243
-0.0110115
-0.00510009
-0.0076578
-0.00770572
-0.00488198
-0.0100786
-0.00287447
-0.0122061
-0.00145973
-0.0140951
-0.000521752
-0.0157399
6.71457e-05
-0.017117
0.000404342
-0.0182364
0.000578663
-0.0191511
0.000672761
-0.0199111
0.00071746
-0.0205622
0.000726343
-0.0211431
0.00071204
-0.0216792
0.000683398
-0.022184
0.000646217
-0.0226638
0.00060111
-0.0231186
0.000547706
-0.0235446
0.000493959
-0.0239386
0.000458693
-0.0243031
0.000462018
-0.0246473
0.000510804
-0.0249799
0.000590029
-0.0253002
0.000668237
-0.0255966
0.000717347
-0.0258544
0.000730597
-0.0260683
0.000724512
-0.0262431
0.000723545
-0.0263904
0.000731165
-0.0265287
0.000727927
0.000717812
-0.00386971
-0.00714178
-0.00802664
-0.00350086
-0.011843
-0.00106561
-0.0150654
0.000347911
-0.0176167
0.00109158
-0.0195798
0.00144135
-0.0210948
0.00158216
-0.022302
0.00161148
-0.0233078
0.00158455
-0.0241622
0.00152715
-0.0249006
0.00145581
-0.0255486
0.0013744
-0.0261239
0.00128725
-0.0266431
0.00120269
-0.0271226
0.00112564
-0.0275718
0.00105039
-0.027992
0.000967848
-0.0283798
0.000881772
-0.0287364
0.000815268
-0.0290716
0.00079723
-0.029399
0.000838184
-0.0297259
0.000916937
-0.0300469
0.000989278
-0.0303446
0.00101502
-0.0305988
0.00098483
-0.030801
0.000926706
-0.0309587
0.000881276
-0.0310905
0.000862887
-0.0312183
0.000855753
0.000857579
-0.00604435
-0.00109743
-0.011527
0.00198178
-0.0158378
0.00324524
-0.019108
0.00361811
-0.021616
0.00359959
-0.0235897
0.00341504
-0.025164
0.00315642
-0.0264313
0.00287876
-0.027461
0.00261425
-0.0283175
0.00238364
-0.0290503
0.00218861
-0.0296893
0.00201344
-0.0302517
0.00184968
-0.0307553
0.00170623
-0.0312202
0.00159062
-0.0316597
0.00148982
-0.0320721
0.00138027
-0.0324483
0.00125796
-0.0327863
0.00115327
-0.0330996
0.00111059
-0.0334098
0.00114835
-0.0337301
0.00123721
-0.0340542
0.00131344
-0.0343573
0.0013181
-0.0346101
0.00123763
-0.0347996
0.00111614
-0.034938
0.00101972
-0.0350528
0.00097771
-0.0351689
0.00097177
0.000985307
-0.00787448
0.00677705
-0.0141988
0.00830607
-0.0189339
0.00798035
-0.0225172
0.00720139
-0.0252258
0.00630823
-0.0272735
0.0054627
-0.0288547
0.00473761
-0.0301009
0.00412495
-0.0310946
0.00360804
-0.0319099
0.00319895
-0.032609
0.00288769
-0.0332233
0.0026277
-0.0337619
0.00238831
-0.0342395
0.00218376
-0.0346826
0.00203379
-0.0351103
0.00191744
-0.0355163
0.00178628
-0.0358798
0.00162148
-0.0361923
0.00146577
-0.0364735
0.00139177
-0.0367585
0.00143335
-0.0370703
0.00154902
-0.0374016
0.00164474
-0.0377164
0.00163293
-0.0379711
0.00149237
-0.0381453
0.00129036
-0.0382586
0.00113298
-0.038352
0.00107113
-0.0384542
0.00107397
0.00109998
-0.00953536
0.0163124
-0.0172328
0.0160035
-0.0225563
0.0133038
-0.0262516
0.0108967
-0.0289124
0.00896909
-0.0308395
0.00738974
-0.0322898
0.00618796
-0.033426
0.00526108
-0.0343155
0.00449758
-0.0350335
0.00391699
-0.0356629
0.00351702
-0.0362353
0.00320012
-0.0367372
0.0028902
-0.0371715
0.00261807
-0.0375773
0.0024396
-0.0379872
0.00232728
-0.0383885
0.00218765
-0.0387393
0.00197225
-0.0390172
0.00174371
-0.0392512
0.00162577
-0.0394997
0.0016818
-0.0398014
0.00185068
-0.0401468
0.00199022
-0.0404835
0.00196958
-0.0407455
0.00175435
-0.0409001
0.001445
-0.0409776
0.00121047
-0.0410418
0.00113536
-0.0411287
0.00116081
0.0012017
-0.0126586
0.028971
-0.0219993
0.0253443
-0.0272986
0.0186032
-0.0305016
0.0140997
-0.0328128
0.0112803
-0.0343726
0.00894951
-0.035505
0.00732033
-0.0364368
0.00619289
-0.0371602
0.00522099
-0.037718
0.00447486
-0.0382384
0.00403742
-0.0387616
0.00372331
-0.0392209
0.00334943
-0.0395902
0.00298741
-0.0399348
0.00278424
-0.0403204
0.0027128
-0.0407261
0.00259337
-0.0410705
0.00231669
-0.041304
0.00197718
-0.0414689
0.00179063
-0.041664
0.00187696
-0.0419543
0.00214092
-0.0423253
0.00236129
-0.0426993
0.00234354
-0.0429771
0.00203211
-0.0431053
0.00157327
-0.0431294
0.00123455
-0.0431519
0.00115789
-0.0432238
0.00123263
0.00129395
-0.018051
0.047022
-0.0293452
0.0366384
-0.0338821
0.0231402
-0.0353263
0.0155438
-0.036978
0.012932
-0.0378371
0.00980859
-0.0383877
0.00787101
-0.0390864
0.00689154
-0.0396555
0.00579014
-0.0399746
0.00479389
-0.0403208
0.00438365
-0.0407996
0.00420212
-0.0412268
0.00377665
-0.0415071
0.0032677
-0.0417545
0.00303162
-0.0421128
0.00307109
-0.0425485
0.00302911
-0.0429069
0.00267508
-0.0430837
0.002154
-0.0431423
0.00184922
-0.0432561
0.00199071
-0.0435332
0.00241802
-0.043947
0.00277508
-0.0443811
0.00277764
-0.0446878
0.00233885
-0.0447797
0.00166519
-0.0447215
0.00117636
-0.0446819
0.00111829
-0.0447432
0.00129387
0.00138806
0.207447
0.00576017
0.207034
0.011175
0.206432
0.0163498
0.205647
0.0213678
0.204688
0.0262937
0.203561
0.0311818
0.202271
0.0360797
0.200826
0.0410291
0.199229
0.046067
0.197488
0.0512264
0.195607
0.0565377
0.193593
0.0620291
0.191449
0.0677281
0.189182
0.073662
0.186797
0.0798593
0.184297
0.0863515
0.181686
0.0931743
0.178964
0.100371
0.176134
0.107995
0.173192
0.116116
0.170134
0.124825
0.166957
0.134246
0.163654
0.144551
0.160227
0.155983
0.156699
0.168895
0.153163
0.183817
0.149985
0.201544
0.148838
0.222991
0.160509
0.245642
0.258824
0.23599
0.21249
0.00595259
0.212118
0.0115478
0.211574
0.0168934
0.210868
0.0220736
0.210008
0.0271541
0.209
0.0321893
0.207853
0.0372268
0.206574
0.0423082
0.205171
0.0474705
0.203651
0.0527464
0.202023
0.0581656
0.200296
0.0637559
0.19848
0.069544
0.196585
0.0755565
0.194624
0.0818209
0.192608
0.0883672
0.190553
0.0952295
0.188475
0.102448
0.186397
0.110073
0.184347
0.118166
0.182364
0.126807
0.18051
0.1361
0.178884
0.146177
0.177657
0.15721
0.177151
0.169401
0.178019
0.182949
0.181676
0.197887
0.190724
0.213943
0.20617
0.230196
0.245725
0.219269
0.217658
0.00612252
0.217329
0.0118768
0.21685
0.017372
0.21623
0.0226933
0.215478
0.0279065
0.214601
0.0330659
0.213609
0.0382189
0.212511
0.0434068
0.211315
0.0486658
0.210034
0.0540279
0.208678
0.0595217
0.20726
0.0651739
0.205794
0.0710096
0.204297
0.0770534
0.202787
0.0833306
0.201287
0.0898678
0.199821
0.0966949
0.198424
0.103846
0.197136
0.111361
0.196014
0.119288
0.195136
0.127685
0.194615
0.136621
0.194621
0.146171
0.195417
0.156413
0.197414
0.167404
0.201223
0.179141
0.207612
0.191497
0.217244
0.204311
0.229842
0.217599
0.228784
0.246782
0.222951
0.00626797
0.22267
0.0121581
0.222262
0.0177802
0.221736
0.0232196
0.2211
0.028542
0.220364
0.0338014
0.219539
0.0390445
0.218634
0.0443118
0.217661
0.0496385
0.216634
0.0550551
0.215567
0.0605891
0.214476
0.066265
0.21338
0.0721056
0.2123
0.0781327
0.211263
0.0843678
0.210298
0.0908328
0.209442
0.0975509
0.208741
0.104547
0.208253
0.111849
0.208054
0.119486
0.208248
0.127491
0.208975
0.135894
0.210428
0.144718
0.212869
0.153972
0.216647
0.163627
0.222179
0.173608
0.229917
0.183759
0.240432
0.193796
0.254642
0.203389
0.210286
0.27314
0.228374
0.00638708
0.228144
0.0123881
0.227812
0.0181127
0.227385
0.0236459
0.226875
0.0290528
0.22629
0.0343866
0.225641
0.039693
0.224941
0.0450115
0.224204
0.0503757
0.223444
0.0558147
0.22268
0.0613536
0.22193
0.0670146
0.221219
0.0728175
0.220571
0.0787804
0.220019
0.0849201
0.219599
0.0912524
0.219357
0.0977928
0.219348
0.104556
0.219642
0.111555
0.220327
0.118802
0.221516
0.126303
0.223352
0.134057
0.226023
0.142048
0.229758
0.150237
0.234836
0.158548
0.241589
0.166856
0.250392
0.174955
0.261695
0.182493
0.275969
0.189115
0.193734
0.292521
0.233929
0.00647817
0.233754
0.0125636
0.233502
0.0183649
0.233181
0.0239662
0.232803
0.0294315
0.232376
0.0348131
0.231914
0.0401553
0.231429
0.0454961
0.230938
0.0508672
0.230457
0.0562957
0.230006
0.0618044
0.229608
0.0674124
0.229289
0.0731361
0.22908
0.0789894
0.229017
0.0849836
0.229141
0.0911282
0.229504
0.0974301
0.230166
0.103893
0.231203
0.110518
0.232705
0.1173
0.234784
0.124224
0.237577
0.131264
0.241246
0.138379
0.245986
0.145498
0.252015
0.152519
0.259576
0.159294
0.268912
0.16562
0.280201
0.171204
0.29354
0.175776
0.178822
0.308452
0.23962
0.00653975
0.239502
0.0126817
0.239334
0.0185327
0.239125
0.0241753
0.238884
0.0296722
0.238623
0.0350742
0.238354
0.040424
0.238093
0.0457576
0.237855
0.0511049
0.23766
0.0564905
0.23753
0.0619345
0.23749
0.0674528
0.237568
0.0730581
0.237798
0.0787595
0.238218
0.0845632
0.238874
0.0904719
0.23982
0.0964847
0.241117
0.102596
0.242841
0.108795
0.245079
0.115062
0.247934
0.121368
0.251526
0.127673
0.25599
0.133914
0.261476
0.140012
0.26814
0.145855
0.276132
0.151302
0.285572
0.156179
0.296506
0.16027
0.308923
0.163359
0.16518
0.322565
0.245448
0.00657056
0.24539
0.01274
0.24531
0.0186126
0.245217
0.0242689
0.245119
0.0297698
0.245029
0.0351642
0.24496
0.0404931
0.244927
0.0457904
0.244948
0.0510836
0.245044
0.0563947
0.245238
0.0617409
0.245555
0.067135
0.246028
0.0725856
0.24669
0.0780975
0.247581
0.0836717
0.248748
0.0893049
0.250244
0.0949889
0.25213
0.10071
0.254475
0.106449
0.25736
0.112177
0.260873
0.117855
0.265113
0.123432
0.270186
0.128842
0.276196
0.134001
0.283245
0.138806
0.291413
0.143134
0.300747
0.146845
0.311237
0.14978
0.322815
0.151781
0.152716
0.335278
0.251418
0.00656957
0.251422
0.0127365
0.251432
0.0186019
0.251458
0.0242436
0.251507
0.0297205
0.251592
0.0350795
0.251726
0.0403591
0.251925
0.0455912
0.252208
0.0508007
0.252595
0.0560072
0.253111
0.0612247
0.253784
0.0664628
0.254643
0.0717265
0.255724
0.0770165
0.257066
0.0823291
0.258715
0.0876557
0.260722
0.0929828
0.263141
0.0982909
0.266037
0.103554
0.269477
0.108737
0.273534
0.113797
0.278286
0.118681
0.283806
0.123322
0.290166
0.127642
0.29742
0.131552
0.305604
0.134951
0.314718
0.13773
0.324718
0.139781
0.335504
0.140995
0.141316
0.346905
0.257532
0.00653603
0.257599
0.0126698
0.257702
0.0184986
0.257849
0.0240973
0.258047
0.0295221
0.258309
0.0348176
0.258648
0.0400201
0.25908
0.045159
0.259624
0.0502569
0.260301
0.0553303
0.261135
0.0603908
0.262153
0.0654447
0.263386
0.0704938
0.264867
0.075535
0.266635
0.0805609
0.268732
0.085559
0.271203
0.0905117
0.274099
0.0953954
0.277472
0.10018
0.281379
0.10483
0.285876
0.1093
0.291019
0.113538
0.296856
0.117484
0.303429
0.121069
0.310761
0.12422
0.318854
0.126857
0.327682
0.128903
0.33718
0.130283
0.347243
0.130932
0.13083
0.357728
0.263794
0.00646949
0.263925
0.0125391
0.264122
0.0183017
0.26439
0.0238286
0.264739
0.0291734
0.265179
0.034378
0.265722
0.0394765
0.266386
0.0444955
0.267188
0.0494552
0.268148
0.0543697
0.269291
0.0592478
0.270643
0.0640931
0.272232
0.0689044
0.274091
0.073676
0.276255
0.0783974
0.27876
0.0830534
0.281648
0.0876236
0.284961
0.0920828
0.288741
0.0964001
0.293032
0.100539
0.297876
0.104457
0.303307
0.108107
0.309356
0.111435
0.316039
0.114386
0.323358
0.116901
0.331293
0.118922
0.339803
0.120393
0.348816
0.121269
0.358235
0.121513
0.121125
0.36794
0.270207
0.00636976
0.270402
0.0123441
0.270693
0.0180108
0.271084
0.0234376
0.271582
0.0286748
0.272198
0.033762
0.272944
0.0387304
0.273836
0.0436044
0.274889
0.0484016
0.276125
0.0531339
0.277565
0.0578075
0.279235
0.0624237
0.28116
0.0669793
0.28337
0.0714661
0.285895
0.0758718
0.288769
0.0801795
0.292025
0.0843678
0.295697
0.0884112
0.299818
0.0922794
0.304418
0.0959381
0.309526
0.099349
0.315162
0.102471
0.321338
0.105259
0.328055
0.10767
0.335298
0.109658
0.343037
0.111183
0.351222
0.112208
0.359783
0.112708
0.368632
0.112664
0.112089
0.377668
0.276774
0.00623694
0.277033
0.0120849
0.277417
0.0176265
0.27793
0.0229251
0.278576
0.0280281
0.279366
0.0329722
0.28031
0.0377861
0.281423
0.0424917
0.28272
0.0471044
0.28422
0.0516339
0.285943
0.0560843
0.287912
0.0604553
0.290149
0.0647416
0.292682
0.0689339
0.295535
0.0730187
0.298735
0.0769787
0.302311
0.0807925
0.306287
0.0844355
0.310686
0.0878796
0.31553
0.091094
0.320834
0.0940455
0.326605
0.0966993
0.332844
0.0990205
0.339539
0.100975
0.346667
0.10253
0.35419
0.10366
0.362057
0.104341
0.370202
0.104562
0.378549
0.104318
0.103626
0.387012
0.283498
0.00607142
0.283821
0.0117625
0.284297
0.01715
0.284929
0.0222933
0.285721
0.0272363
0.28668
0.032013
0.287816
0.0366495
0.289143
0.0411654
0.290673
0.045574
0.292424
0.049883
0.294413
0.0540951
0.29666
0.0582083
0.299185
0.0622165
0.30201
0.0661095
0.305155
0.0698736
0.308642
0.0734916
0.312491
0.0769435
0.31672
0.0802065
0.321344
0.0832556
0.326374
0.0860639
0.331816
0.0886038
0.337667
0.0908476
0.34392
0.0927681
0.350554
0.0943405
0.357541
0.0955431
0.364842
0.0963592
0.372405
0.0967777
0.380173
0.096795
0.388076
0.0964143
0.0956562
0.396046
0.290384
0.00587383
0.290768
0.011378
0.291335
0.0165835
0.292083
0.0215451
0.293016
0.0263036
0.294139
0.0308899
0.29546
0.0353279
0.296991
0.0396349
0.298743
0.0438222
0.300729
0.0478962
0.302967
0.051858
0.30547
0.0557049
0.308257
0.05943
0.311343
0.0630231
0.314746
0.0664709
0.31848
0.0697573
0.32256
0.0728638
0.326996
0.0757704
0.331796
0.0784553
0.336964
0.0808964
0.342496
0.0830713
0.348385
0.0849584
0.354615
0.0865381
0.361163
0.0877931
0.367996
0.08871
0.375075
0.0892799
0.382354
0.089499
0.389779
0.0893699
0.397292
0.0889009
0.0881131
0.404835
0.297435
0.00564503
0.297879
0.0109332
0.298533
0.0159296
0.299394
0.0206844
0.300463
0.025235
0.301743
0.0296098
0.303241
0.03383
0.304965
0.037911
0.306924
0.0418626
0.309131
0.0456895
0.311597
0.0493923
0.314334
0.0529674
0.317356
0.0564081
0.320675
0.0597043
0.324302
0.0628437
0.328247
0.0658118
0.332519
0.0685922
0.337122
0.0711677
0.342057
0.0735202
0.347321
0.0756319
0.352907
0.0774854
0.358801
0.0790648
0.364982
0.0803565
0.371426
0.0813495
0.3781
0.0820366
0.384965
0.0824145
0.391979
0.0824848
0.399095
0.0822537
0.406264
0.0817322
0.080941
0.413436
0.304654
0.0053861
0.305157
0.0104302
0.305895
0.0151914
0.306864
0.0197156
0.308062
0.0240366
0.309492
0.0281802
0.311157
0.0321653
0.313062
0.0360054
0.315216
0.039709
0.317626
0.0432797
0.320301
0.0467173
0.32325
0.0500183
0.326482
0.053176
0.330005
0.0561813
0.333826
0.0590229
0.337949
0.0616882
0.342378
0.0641632
0.347112
0.0664336
0.352148
0.0684849
0.357476
0.0703031
0.363086
0.0718756
0.36896
0.0731911
0.375075
0.0742409
0.381406
0.075019
0.38792
0.0755227
0.394582
0.0757528
0.401352
0.0757141
0.408191
0.0754153
0.415055
0.0748684
0.074093
0.421903
0.312046
0.00509825
0.312605
0.00987142
0.313424
0.0143728
0.314495
0.0186437
0.315817
0.0227149
0.317388
0.0266093
0.319209
0.0303439
0.321284
0.0339304
0.323617
0.0373759
0.326214
0.0406834
0.329079
0.0438524
0.332218
0.0468793
0.335636
0.049758
0.339337
0.0524803
0.343323
0.0550365
0.347596
0.0574158
0.352152
0.0596067
0.356988
0.0615977
0.362095
0.0633776
0.367462
0.064936
0.373074
0.0662639
0.378911
0.0673543
0.38495
0.0682021
0.391164
0.0688051
0.397522
0.0691638
0.403993
0.0692819
0.410542
0.069166
0.417131
0.0688261
0.423725
0.0682743
0.0675289
0.430289
0.319615
0.0047828
0.320227
0.00925944
0.321122
0.0134775
0.322292
0.0174742
0.32373
0.0212768
0.325433
0.0249059
0.327401
0.0283762
0.329633
0.0316982
0.332131
0.0348777
0.334898
0.0379172
0.337934
0.0408159
0.341243
0.0435707
0.344825
0.0461761
0.34868
0.0486249
0.352807
0.0509092
0.357203
0.0530199
0.361862
0.0549479
0.366775
0.0566843
0.371932
0.0582208
0.377318
0.05955
0.382916
0.0606662
0.388705
0.0615653
0.394662
0.0622453
0.40076
0.0627067
0.406972
0.0629523
0.413266
0.0629873
0.419613
0.0628196
0.425979
0.0624593
0.432335
0.0619183
0.0612133
0.438651
0.327365
0.0044411
0.328027
0.00859696
0.328995
0.0125098
0.330257
0.0162125
0.331804
0.0197294
0.333632
0.0230785
0.335735
0.0262727
0.338113
0.0293209
0.340762
0.0322282
0.343683
0.0349965
0.346873
0.0376252
0.350333
0.0401113
0.354059
0.0424502
0.358048
0.0446361
0.362294
0.0466623
0.366793
0.0485217
0.371533
0.0502073
0.376505
0.0517124
0.381695