/*--------------------------------*- C++ -*----------------------------------*\
  =========                 |
  \\      /  F ield         | OpenFOAM: The Open Source CFD Toolbox
   \\    /   O peration     | Website:  https://openfoam.org
    \\  /    A nd           | Version:  dev
     \\/     M anipulation  |
\*---------------------------------------------------------------------------*/
FoamFile
{
    version     2.0;
    format      ascii;
    class       volVectorField;
    location    "5.5";
    object      U;
}
// * * * * * * * * * * * * * * * * * * * * * * * * * * * * * * * * * * * * * //

dimensions      [0 1 -1 0 0 0 0];

internalField   nonuniform List<vector> 
2790
(
(9.94399 0 0.0205231)
(9.87572 0 0.0295876)
(9.77521 0 0.0359894)
(9.64944 0 0.0425561)
(9.50409 0 0.0493853)
(9.34007 0 0.0564282)
(9.15655 0 0.0638158)
(8.95263 0 0.0717116)
(8.72747 0 0.0802554)
(8.48009 0 0.0895738)
(8.20928 0 0.0997941)
(7.91365 0 0.111046)
(7.59169 0 0.123462)
(7.24179 0 0.137167)
(6.86233 0 0.152275)
(6.4518 0 0.168874)
(6.00888 0 0.187001)
(5.53268 0 0.206624)
(5.02296 0 0.227596)
(4.48044 0 0.249617)
(3.90714 0 0.272182)
(3.30682 0 0.294531)
(2.68527 0 0.315625)
(2.05061 0 0.334293)
(1.41178 0 0.35061)
(0.798026 0 0.372888)
(0.110695 0 0.325055)
(-0.469563 0 -0.114863)
(-0.453779 0 -0.297151)
(-0.231163 0 -0.423857)
(9.9985 0 0.0407029)
(9.98145 0 0.0623826)
(9.93575 0 0.0791398)
(9.86416 0 0.0966244)
(9.77098 0 0.115123)
(9.65715 0 0.134488)
(9.52206 0 0.154974)
(9.36486 0 0.176943)
(9.18472 0 0.200708)
(8.98068 0 0.22655)
(8.75154 0 0.254745)
(8.4959 0 0.285562)
(8.21221 0 0.319252)
(7.89883 0 0.356027)
(7.55405 0 0.396025)
(7.1762 0 0.439269)
(6.76379 0 0.4856)
(6.31566 0 0.534596)
(5.83125 0 0.585471)
(5.31088 0 0.636964)
(4.75615 0 0.687213)
(4.17041 0 0.733655)
(3.55929 0 0.772961)
(2.93155 0 0.8011)
(2.29995 0 0.813755)
(1.69295 0 0.807258)
(1.10716 0 0.747255)
(0.658896 0 0.547932)
(0.186447 0 0.224615)
(-0.00819892 0 -0.453731)
(9.99559 0 0.0432068)
(9.97556 0 0.0752713)
(9.9318 0 0.103346)
(9.8649 0 0.13237)
(9.77778 0 0.163058)
(9.67155 0 0.195398)
(9.54588 0 0.229742)
(9.40014 0 0.266602)
(9.23366 0 0.30647)
(9.04564 0 0.349807)
(8.8351 0 0.397073)
(8.60082 0 0.448723)
(8.34146 0 0.505195)
(8.05551 0 0.566867)
(7.74139 0 0.634016)
(7.39745 0 0.706737)
(7.02211 0 0.784844)
(6.61396 0 0.867732)
(6.17194 0 0.954203)
(5.69564 0 1.04226)
(5.18563 0 1.12889)
(4.64396 0 1.2098)
(4.07479 0 1.27916)
(3.48537 0 1.32934)
(2.88685 0 1.35009)
(2.29947 0 1.32643)
(1.73185 0 1.22078)
(1.21626 0 0.973012)
(0.701146 0 0.570153)
(0.358041 0 -0.156553)
(9.99403 0 0.049499)
(9.97181 0 0.0932058)
(9.92788 0 0.133571)
(9.86225 0 0.174208)
(9.77694 0 0.216432)
(9.67299 0 0.26066)
(9.55032 0 0.307429)
(9.4085 0 0.357414)
(9.24703 0 0.41129)
(9.06534 0 0.469705)
(8.86269 0 0.533302)
(8.6382 0 0.602724)
(8.39085 0 0.678594)
(8.11953 0 0.761477)
(7.82301 0 0.851824)
(7.50002 0 0.94988)
(7.14925 0 1.05555)
(6.76945 0 1.16825)
(6.3595 0 1.28661)
(5.9186 0 1.40827)
(5.44653 0 1.52948)
(4.944 0 1.64469)
(4.41317 0 1.74615)
(3.85827 0 1.82322)
(3.28582 0 1.86137)
(2.7064 0 1.84033)
(2.12565 0 1.72601)
(1.55426 0 1.47787)
(0.95795 0 1.0837)
(0.509426 0 0.502332)
(9.99331 0 0.0572133)
(9.96994 0 0.110958)
(9.92593 0 0.162103)
(9.86146 0 0.213346)
(9.77799 0 0.266355)
(9.67635 0 0.321913)
(9.55654 0 0.3807)
(9.41822 0 0.443487)
(9.26098 0 0.511055)
(9.08434 0 0.584169)
(8.88771 0 0.663587)
(8.67039 0 0.750063)
(8.4316 0 0.844336)
(8.17047 0 0.947086)
(7.88608 0 1.05888)
(7.57748 0 1.18008)
(7.24367 0 1.31069)
(6.88361 0 1.45019)
(6.49629 0 1.59723)
(6.08073 0 1.74933)
(5.63616 0 1.90242)
(5.16212 0 2.05032)
(4.65877 0 2.18418)
(4.12721 0 2.29175)
(3.5694 0 2.35657)
(2.98889 0 2.35733)
(2.38683 0 2.26496)
(1.76639 0 2.04765)
(1.08999 0 1.69141)
(0.536651 0 1.15416)
(9.99302 0 0.0655382)
(9.96923 0 0.128701)
(9.92556 0 0.190112)
(9.86253 0 0.251842)
(9.78129 0 0.315577)
(9.68245 0 0.382317)
(9.56601 0 0.452873)
(9.43172 0 0.528099)
(9.27921 0 0.608878)
(9.10807 0 0.696083)
(8.91778 0 0.790578)
(8.70775 0 0.893224)
(8.47729 0 1.00486)
(8.22568 0 1.12626)
(7.95215 0 1.25809)
(7.65589 0 1.40081)
(7.33603 0 1.55455)
(6.99164 0 1.71887)
(6.62169 0 1.89256)
(6.22501 0 2.07323)
(5.80028 0 2.25685)
(5.34604 0 2.43721)
(4.8607 0 2.6052)
(4.34269 0 2.74823)
(3.79039 0 2.84955)
(3.20257 0 2.8882)
(2.57656 0 2.83823)
(1.91346 0 2.67162)
(1.17275 0 2.37401)
(0.549965 0 1.89441)
(9.99297 0 0.0740744)
(9.96927 0 0.146313)
(9.92637 0 0.217482)
(9.86509 0 0.28929)
(9.78643 0 0.363353)
(9.69085 0 0.440825)
(9.57835 0 0.522658)
(9.44872 0 0.609808)
(9.30165 0 0.703253)
(9.13678 0 0.803963)
(8.95365 0 0.912898)
(8.75171 0 1.03101)
(8.53034 0 1.15922)
(8.28888 0 1.2984)
(8.0266 0 1.4493)
(7.74269 0 1.61248)
(7.4363 0 1.78819)
(7.1064 0 1.97617)
(6.75181 0 2.17541)
(6.37101 0 2.38382)
(5.9621 0 2.59774)
(5.52264 0 2.81139)
(5.04952 0 3.01616)
(4.539 0 3.19997)
(3.98665 0 3.34668)
(3.3879 0 3.43597)
(2.73724 0 3.44331)
(2.03623 0 3.3415)
(1.24174 0 3.11358)
(0.56351 0 2.69315)
(9.99306 0 0.0825875)
(9.96981 0 0.163605)
(9.92807 0 0.244048)
(9.86885 0 0.325478)
(9.79313 0 0.409444)
(9.70126 0 0.497204)
(9.59323 0 0.589836)
(9.46888 0 0.688393)
(9.32796 0 0.793937)
(9.17015 0 0.907527)
(8.99503 0 1.03021)
(8.80211 0 1.16303)
(8.59082 0 1.30701)
(8.36051 0 1.46309)
(8.11045 0 1.63215)
(7.83981 0 1.81487)
(7.54761 0 2.01167)
(7.23267 0 2.22252)
(6.8935 0 2.44674)
(6.52817 0 2.6827)
(6.13409 0 2.92736)
(5.70785 0 3.17578)
(5.24496 0 3.42037)
(4.73977 0 3.6502)
(4.18547 0 3.85024)
(3.57474 0 4.00089)
(2.8995 0 4.0779)
(2.16209 0 4.05238)
(1.3161 0 3.90169)
(0.583212 0 3.54014)
(9.99326 0 0.0909276)
(9.97072 0 0.180407)
(9.93046 0 0.269666)
(9.87362 0 0.360239)
(9.80118 0 0.453644)
(9.71344 0 0.551206)
(9.61038 0 0.654108)
(9.49189 0 0.763492)
(9.35776 0 0.880501)
(9.20774 0 1.00628)
(9.04146 0 1.14195)
(8.85848 0 1.28866)
(8.65828 0 1.44752)
(8.44022 0 1.61959)
(8.20358 0 1.80587)
(7.94747 0 2.00721)
(7.67079 0 2.22425)
(7.37217 0 2.45728)
(7.0498 0 2.70606)
(6.70127 0 2.96958)
(6.32335 0 3.24567)
(5.91164 0 3.53054)
(5.46035 0 3.81808)
(4.96199 0 4.099)
(4.40739 0 4.35987)
(3.78637 0 4.5821)
(3.08753 0 4.74107)
(2.31267 0 4.80445)
(1.41062 0 4.74107)
(0.614295 0 4.4419)
(9.99352 0 0.0989914)
(9.97191 0 0.196577)
(9.9334 0 0.294193)
(9.87924 0 0.393414)
(9.8104 0 0.495752)
(9.72717 0 0.602584)
(9.62954 0 0.715178)
(9.51742 0 0.834757)
(9.39069 0 0.96254)
(9.24914 0 1.09974)
(9.09246 0 1.24759)
(8.92029 0 1.40729)
(8.73214 0 1.58006)
(8.52743 0 1.7671)
(8.30544 0 1.96956)
(8.06527 0 2.18848)
(7.80573 0 2.4248)
(7.5253 0 2.67917)
(7.22191 0 2.95193)
(6.89277 0 3.24283)
(6.53402 0 3.5508)
(6.14046 0 3.87351)
(5.70503 0 4.20672)
(5.21846 0 4.5434)
(4.66896 0 4.87245)
(4.04282 0 5.17697)
(3.32363 0 5.4323)
(2.50971 0 5.60195)
(1.54182 0 5.64346)
(0.664033 0 5.418)
(9.99384 0 0.106703)
(9.9733 0 0.211998)
(9.9368 0 0.3175)
(9.88558 0 0.424852)
(9.82064 0 0.535585)
(9.74226 0 0.651116)
(9.65045 0 0.772782)
(9.54518 0 0.90188)
(9.42638 0 1.03969)
(9.29391 0 1.18751)
(9.14753 0 1.34663)
(8.98695 0 1.51835)
(8.81176 0 1.70399)
(8.62144 0 1.90487)
(8.41533 0 2.12231)
(8.19253 0 2.3576)
(7.95189 0 2.61197)
(7.69179 0 2.88655)
(7.41005 0 3.18229)
(7.10364 0 3.49988)
(6.76834 0 3.83949)
(6.39832 0 4.20056)
(5.98553 0 4.58121)
(5.51904 0 4.97735)
(4.98432 0 5.38134)
(4.36319 0 5.77957)
(3.63181 0 6.14913)
(2.78002 0 6.45064)
(1.73337 0 6.62845)
(0.744791 0 6.50301)
(9.9942 0 0.114005)
(9.97487 0 0.226573)
(9.94056 0 0.33947)
(9.89252 0 0.454419)
(9.83174 0 0.572978)
(9.75851 0 0.696604)
(9.67289 0 0.826688)
(9.57489 0 0.964586)
(9.46449 0 1.11164)
(9.34163 0 1.26921)
(9.20617 0 1.43864)
(9.05788 0 1.62133)
(8.89645 0 1.81868)
(8.72148 0 2.03216)
(8.53238 0 2.26323)
(8.32837 0 2.51344)
(8.10836 0 2.78435)
(7.87082 0 3.07757)
(7.61361 0 3.39474)
(7.33373 0 3.73751)
(7.02691 0 4.10748)
(6.68712 0 4.50606)
(6.30584 0 4.93415)
(5.87102 0 5.39149)
(5.36569 0 5.87539)
(4.76678 0 6.37827)
(4.04057 0 6.88322)
(3.1613 0 7.35347)
(2.02461 0 7.72312)
(0.880658 0 7.75695)
(9.99459 0 0.120852)
(9.97657 0 0.240222)
(9.94461 0 0.360004)
(9.89995 0 0.481996)
(9.84356 0 0.60779)
(9.77576 0 0.738876)
(9.69663 0 0.87669)
(9.60624 0 1.02264)
(9.50464 0 1.17811)
(9.39186 0 1.34451)
(9.26783 0 1.52324)
(9.13243 0 1.71578)
(8.98549 0 1.9236)
(8.8267 0 2.14829)
(8.65564 0 2.39148)
(8.47169 0 2.65493)
(8.27393 0 2.94053)
(8.06108 0 3.25035)
(7.83126 0 3.5867)
(7.58178 0 3.9522)
(7.30876 0 4.34987)
(7.00661 0 4.7832)
(6.66715 0 5.25615)
(6.27838 0 5.77301)
(5.82232 0 6.33775)
(5.2723 0 6.95246)
(4.5843 0 7.61366)
(3.7097 0 8.30089)
(2.48794 0 8.95809)
(1.12433 0 9.29297)
(9.99501 0 0.127209)
(9.97838 0 0.252882)
(9.94891 0 0.379017)
(9.9078 0 0.507482)
(9.85599 0 0.639902)
(9.79382 0 0.777794)
(9.72143 0 0.92263)
(9.63894 0 1.07585)
(9.54648 0 1.23888)
(9.44414 0 1.41316)
(9.33196 0 1.60015)
(9.20996 0 1.80135)
(9.07807 0 2.01833)
(8.93616 0 2.25275)
(8.78399 0 2.50638)
(8.62118 0 2.78118)
(8.4471 0 3.0793)
(8.26082 0 3.40321)
(8.06095 0 3.75579)
(7.84544 0 4.14054)
(7.61127 0 4.56173)
(7.35402 0 5.02477)
(7.06705 0 5.53661)
(6.74027 0 6.10624)
(6.35773 0 6.74535)
(5.89382 0 7.46902)
(5.30044 0 8.29639)
(4.50845 0 9.24797)
(3.26839 0 10.3417)
(1.60472 0 11.3587)
(9.99545 0 0.133049)
(9.98026 0 0.264501)
(9.95339 0 0.396438)
(9.91596 0 0.530783)
(9.86888 0 0.669192)
(9.81253 0 0.813204)
(9.74708 0 0.964313)
(9.67272 0 1.12398)
(9.58964 0 1.29367)
(9.49803 0 1.47483)
(9.39804 0 1.66895)
(9.28979 0 1.87756)
(9.17339 0 2.10228)
(9.04888 0 2.34484)
(8.91625 0 2.60709)
(8.7754 0 2.89112)
(8.62608 0 3.19928)
(8.46784 0 3.53433)
(8.29994 0 3.89957)
(8.12127 0 4.29911)
(7.9301 0 4.73815)
(7.72389 0 5.22355)
(7.49878 0 5.76452)
(7.24889 0 6.37388)
(6.96471 0 7.07008)
(6.63071 0 7.88094)
(6.21408 0 8.85186)
(5.66538 0 10.0658)
(4.68955 0 11.7308)
(2.68692 0 14.5913)
(0.114538 0 -0.11329)
(0.269548 0 -0.102692)
(0.426167 0 -0.0801278)
(0.555873 0 -0.0588736)
(0.654725 0 -0.041668)
(0.727882 0 -0.0284249)
(0.781568 0 -0.01848)
(0.820808 0 -0.0111799)
(0.849377 0 -0.0059623)
(0.87018 0 -0.00234861)
(0.88549 0 4.98912e-05)
(0.897086 0 0.00153639)
(0.906344 0 0.00234694)
(0.91432 0 0.00267134)
(0.921799 0 0.00267031)
(0.929303 0 0.0024886)
(0.937085 0 0.00226393)
(0.945099 0 0.00212936)
(0.953001 0 0.00220349)
(0.960194 0 0.00256721)
(0.965934 0 0.00323501)
(0.96951 0 0.00412829)
(0.970441 0 0.00503636)
(0.968919 0 0.00570414)
(0.964878 0 0.00620241)
(0.958523 0 0.00658897)
(0.95003 0 0.00689497)
(0.939438 0 0.00711553)
(0.92694 0 0.00704434)
(0.91157 0 0.0055294)
(0.099703 0 -0.268963)
(0.251881 0 -0.250567)
(0.398896 0 -0.20179)
(0.523266 0 -0.154856)
(0.622316 0 -0.116704)
(0.700779 0 -0.0872569)
(0.763877 0 -0.0650332)
(0.815642 0 -0.0485734)
(0.859033 0 -0.0366285)
(0.896271 0 -0.0281321)
(0.929044 0 -0.0222278)
(0.958626 0 -0.0182594)
(0.985973 0 -0.0157265)
(1.01181 0 -0.0142377)
(1.03667 0 -0.0134698)
(1.06095 0 -0.0131351)
(1.08491 0 -0.012959)
(1.10868 0 -0.0126763)
(1.13222 0 -0.0120509)
(1.15537 0 -0.010919)
(1.17785 0 -0.00923767)
(1.19931 0 -0.00711916)
(1.21939 0 -0.00482712)
(1.23747 0 -0.00261815)
(1.25358 0 -0.000558988)
(1.26776 0 0.00136195)
(1.28013 0 0.00328245)
(1.29023 0 0.00517044)
(1.29765 0 0.00650154)
(1.30423 0 0.00567363)
(0.0799953 0 -0.427002)
(0.21195 0 -0.396208)
(0.329432 0 -0.320884)
(0.428108 0 -0.249254)
(0.505935 0 -0.191522)
(0.567821 0 -0.1471)
(0.618078 0 -0.113549)
(0.659763 0 -0.0885876)
(0.695111 0 -0.0703296)
(0.725828 0 -0.0571546)
(0.753171 0 -0.047779)
(0.778059 0 -0.0412263)
(0.801176 0 -0.0367607)
(0.823029 0 -0.03382)
(0.844003 0 -0.0319547)
(0.864384 0 -0.0307736)
(0.88438 0 -0.0299086)
(0.904116 0 -0.0290072)
(0.923622 0 -0.0277584)
(0.942832 0 -0.0259454)
(0.961593 0 -0.0235025)
(0.9797 0 -0.0205454)
(0.996969 0 -0.0173097)
(1.01332 0 -0.0140354)
(1.02878 0 -0.0109814)
(1.04351 0 -0.00820844)
(1.05773 0 -0.00549398)
(1.0721 0 -0.00273031)
(1.08646 0 -0.000281212)
(1.10175 0 0.00129103)
(0.0604884 0 -0.553397)
(0.166397 0 -0.504958)
(0.247517 0 -0.405311)
(0.315891 0 -0.313788)
(0.367495 0 -0.24153)
(0.408146 0 -0.186529)
(0.440984 0 -0.145196)
(0.467882 0 -0.114476)
(0.490258 0 -0.0920088)
(0.509313 0 -0.0757005)
(0.525851 0 -0.0639936)
(0.540431 0 -0.0556911)
(0.553459 0 -0.0498939)
(0.565246 0 -0.0459285)
(0.576036 0 -0.0432684)
(0.586038 0 -0.0414633)
(0.595437 0 -0.0400939)
(0.604389 0 -0.0387564)
(0.613011 0 -0.0370878)
(0.621351 0 -0.034824)
(0.629376 0 -0.0318652)
(0.63698 0 -0.028323)
(0.644016 0 -0.024483)
(0.650361 0 -0.0206694)
(0.655986 0 -0.017206)
(0.660968 0 -0.0142686)
(0.665599 0 -0.0116384)
(0.670186 0 -0.0091779)
(0.674499 0 -0.00724421)
(0.680218 0 -0.00450967)
(0.0400431 0 -0.649462)
(0.114563 0 -0.578714)
(0.153892 0 -0.457766)
(0.190088 0 -0.351967)
(0.212553 0 -0.270261)
(0.229208 0 -0.208753)
(0.241502 0 -0.162637)
(0.250147 0 -0.12824)
(0.255816 0 -0.103175)
(0.259332 0 -0.0847196)
(0.261074 0 -0.0712753)
(0.261345 0 -0.0615362)
(0.260348 0 -0.0545258)
(0.258248 0 -0.0495336)
(0.255198 0 -0.0460202)
(0.251373 0 -0.0435336)
(0.246981 0 -0.041656)
(0.242269 0 -0.0399697)
(0.237476 0 -0.0380686)
(0.232761 0 -0.0356206)
(0.228155 0 -0.0324443)
(0.223553 0 -0.0285963)
(0.218689 0 -0.0243959)
(0.213224 0 -0.02023)
(0.206981 0 -0.0164355)
(0.199537 0 -0.0134246)
(0.190927 0 -0.011051)
(0.182598 0 -0.00770336)
(0.172297 0 -0.00324174)
(0.154159 0 0.000198065)
(0.0180198 0 -0.709794)
(0.0557615 0 -0.61315)
(0.0496578 0 -0.474393)
(0.0523777 0 -0.359773)
(0.0433716 0 -0.272567)
(0.0333068 0 -0.20771)
(0.0215756 0 -0.159165)
(0.00820026 0 -0.122625)
(-0.00646607 0 -0.09597)
(-0.0218156 0 -0.0768976)
(-0.038021 0 -0.0629989)
(-0.0546394 0 -0.0529273)
(-0.0715177 0 -0.0456668)
(-0.0885289 0 -0.0405256)
(-0.10554 0 -0.0370077)
(-0.122378 0 -0.0346878)
(-0.138829 0 -0.0331365)
(-0.154685 0 -0.0318684)
(-0.169845 0 -0.030385)
(-0.184384 0 -0.0282876)
(-0.19855 0 -0.0253673)
(-0.212667 0 -0.0217062)
(-0.227016 0 -0.0177379)
(-0.241766 0 -0.0137797)
(-0.256834 0 -0.009544)
(-0.272614 0 -0.0049482)
(-0.292234 0 -0.000734761)
(-0.312043 0 0.00295165)
(-0.325579 0 0.00554103)
(-0.332108 0 0.00504302)
(-0.00725951 0 -0.727162)
(-0.0120269 0 -0.602242)
(-0.0641036 0 -0.451636)
(-0.0983872 0 -0.334706)
(-0.140375 0 -0.24695)
(-0.180476 0 -0.18301)
(-0.219051 0 -0.13587)
(-0.255776 0 -0.100874)
(-0.290837 0 -0.0751804)
(-0.324269 0 -0.0569614)
(-0.355943 0 -0.0441114)
(-0.38565 0 -0.0351769)
(-0.413389 0 -0.0289926)
(-0.439329 0 -0.0248697)
(-0.463727 0 -0.0223475)
(-0.486811 0 -0.0210084)
(-0.508759 0 -0.0204209)
(-0.529712 0 -0.0200731)
(-0.549839 0 -0.0193998)
(-0.569407 0 -0.0178855)
(-0.588776 0 -0.0151732)
(-0.608297 0 -0.0112481)
(-0.628291 0 -0.00662907)
(-0.64937 0 -0.00220994)
(-0.66979 0 0.00151856)
(-0.686563 0 0.00472877)
(-0.698551 0 0.00718311)
(-0.708858 0 0.00854899)
(-0.717882 0 0.00876391)
(-0.723105 0 0.00785133)
(-0.0391662 0 -0.692809)
(-0.0910212 0 -0.544597)
(-0.187867 0 -0.393323)
(-0.263192 0 -0.279447)
(-0.339011 0 -0.195848)
(-0.408994 0 -0.13685)
(-0.472068 0 -0.0950043)
(-0.527931 0 -0.064544)
(-0.577476 0 -0.042467)
(-0.621902 0 -0.0271654)
(-0.662107 0 -0.016931)
(-0.699101 0 -0.0104791)
(-0.732723 0 -0.00686891)
(-0.762928 0 -0.00513061)
(-0.790571 0 -0.00453454)
(-0.816392 0 -0.00466329)
(-0.840949 0 -0.00515535)
(-0.864621 0 -0.00552656)
(-0.887708 0 -0.00519656)
(-0.910589 0 -0.0037543)
(-0.933475 0 -0.00121649)
(-0.955693 0 0.00203659)
(-0.975872 0 0.00540341)
(-0.992614 0 0.00809843)
(-1.00658 0 0.00978239)
(-1.01877 0 0.0109508)
(-1.02929 0 0.0121287)
(-1.03856 0 0.0130668)
(-1.04629 0 0.0129719)
(-1.05042 0 0.0119806)
(-0.0792614 0 -0.602135)
(-0.181881 0 -0.43727)
(-0.330492 0 -0.293056)
(-0.450285 0 -0.189847)
(-0.560782 0 -0.116632)
(-0.660255 0 -0.0658783)
(-0.74868 0 -0.0321182)
(-0.82511 0 -0.010657)
(-0.886591 0 0.00216332)
(-0.936733 0 0.00987545)
(-0.978127 0 0.0142153)
(-1.01281 0 0.0161125)
(-1.0432 0 0.0163199)
(-1.07101 0 0.015614)
(-1.097 0 0.0144646)
(-1.12164 0 0.0130365)
(-1.14505 0 0.0114319)
(-1.1671 0 0.00995482)
(-1.1876 0 0.00913826)
(-1.20651 0 0.00942508)
(-1.22412 0 0.010805)
(-1.24099 0 0.012816)
(-1.25742 0 0.014791)
(-1.27294 0 0.0161717)
(-1.28676 0 0.0167544)
(-1.29844 0 0.0168167)
(-1.3082 0 0.0168773)
(-1.31661 0 0.0169579)
(-1.32347 0 0.0165355)
(-1.32689 0 0.0157086)
(-0.133678 0 -0.449852)
(-0.297528 0 -0.277295)
(-0.508971 0 -0.149037)
(-0.682944 0 -0.0598493)
(-0.826428 0 -0.00486253)
(-0.936535 0 0.0239857)
(-1.02131 0 0.0379774)
(-1.08723 0 0.0433035)
(-1.14213 0 0.0445683)
(-1.18826 0 0.0438403)
(-1.22778 0 0.0420836)
(-1.2622 0 0.0396939)
(-1.29256 0 0.0369305)
(-1.31976 0 0.0340451)
(-1.34466 0 0.0312338)
(-1.3679 0 0.0284404)
(-1.38965 0 0.0255174)
(-1.40979 0 0.0226376)
(-1.42826 0 0.0204385)
(-1.44541 0 0.019656)
(-1.46193 0 0.0205068)
(-1.47838 0 0.0223541)
(-1.49477 0 0.0240271)
(-1.51038 0 0.024572)
(-1.52415 0 0.0238234)
(-1.5354 0 0.0224252)
(-1.54442 0 0.0212513)
(-1.55201 0 0.0205467)
(-1.55812 0 0.0199004)
(-1.56102 0 0.0192654)
(-0.213006 0 -0.246474)
(-0.455426 0 -0.0427107)
(-0.705586 0 0.058155)
(-0.886342 0 0.0953302)
(-1.02544 0 0.105874)
(-1.13561 0 0.10585)
(-1.22295 0 0.100761)
(-1.29289 0 0.0934975)
(-1.3495 0 0.0854652)
(-1.39611 0 0.0776773)
(-1.4355 0 0.0705929)
(-1.46953 0 0.064032)
(-1.4993 0 0.0578711)
(-1.52574 0 0.0523479)
(-1.54988 0 0.0476578)
(-1.57256 0 0.0434984)
(-1.59392 0 0.0393268)
(-1.61355 0 0.0350989)
(-1.63118 0 0.0315893)
(-1.64724 0 0.029844)
(-1.66276 0 0.0302237)
(-1.67868 0 0.0319083)
(-1.69509 0 0.0332992)
(-1.71099 0 0.0330153)
(-1.72485 0 0.0308053)
(-1.73568 0 0.0277044)
(-1.74384 0 0.0251488)
(-1.75051 0 0.0237186)
(-1.75586 0 0.022978)
(-1.75833 0 0.0225598)
(-0.299126 0 0.158161)
(-0.572816 0 0.253331)
(-0.849173 0 0.263884)
(-1.04965 0 0.247935)
(-1.20262 0 0.22223)
(-1.31874 0 0.194479)
(-1.40772 0 0.168693)
(-1.47715 0 0.146084)
(-1.53216 0 0.126693)
(-1.57673 0 0.110855)
(-1.61427 0 0.0982992)
(-1.64688 0 0.0877618)
(-1.67539 0 0.0783148)
(-1.70051 0 0.0701703)
(-1.72347 0 0.0637278)
(-1.74541 0 0.0584228)
(-1.76641 0 0.0530689)
(-1.78555 0 0.047251)
(-1.80209 0 0.0420437)
(-1.81657 0 0.0391534)
(-1.83061 0 0.0392693)
(-1.84579 0 0.0412353)
(-1.86233 0 0.0427211)
(-1.87882 0 0.0417066)
(-1.893 0 0.0378157)
(-1.90338 0 0.0326412)
(-1.91045 0 0.028486)
(-1.91592 0 0.0263996)
(-1.9204 0 0.0257204)
(-1.92247 0 0.0255369)
(-0.356421 0 0.568617)
(-0.696288 0 0.586646)
(-1.02027 0 0.502469)
(-1.23527 0 0.416545)
(-1.38904 0 0.34384)
(-1.50034 0 0.282304)
(-1.58281 0 0.233659)
(-1.64616 0 0.19577)
(-1.69562 0 0.165214)
(-1.73506 0 0.141504)
(-1.76856 0 0.124085)
(-1.79854 0 0.110169)
(-1.82504 0 0.0974843)
(-1.84801 0 0.0865081)
(-1.86894 0 0.0784367)
(-1.8897 0 0.0724954)
(-1.91034 0 0.0663521)
(-1.92903 0 0.058836)
(-1.94418 0 0.051489)
(-1.95637 0 0.0472051)
(-1.96826 0 0.0473429)
(-1.98241 0 0.0502433)
(-1.99931 0 0.0524131)
(-2.0169 0 0.0508512)
(-2.03177 0 0.0449626)
(-2.04165 0 0.0371459)
(-2.04717 0 0.0310517)
(-2.05099 0 0.028433)
(-2.05444 0 0.0280872)
(-2.05613 0 0.0281911)
(-0.474666 0 1.08281)
(-0.905989 0 0.98974)
(-1.26305 0 0.762501)
(-1.46091 0 0.578824)
(-1.59304 0 0.455349)
(-1.6856 0 0.357281)
(-1.7509 0 0.287562)
(-1.80155 0 0.238831)
(-1.8416 0 0.199015)
(-1.87266 0 0.167386)
(-1.89975 0 0.146034)
(-1.92617 0 0.130248)
(-1.95031 0 0.114902)
(-1.97025 0 0.101047)
(-1.98797 0 0.0917952)
(-2.00692 0 0.0863383)
(-2.02744 0 0.0801734)
(-2.0461 0 0.0706626)
(-2.05961 0 0.060168)
(-2.06858 0 0.0538091)
(-2.07731 0 0.0542596)
(-2.09006 0 0.0590175)
(-2.10771 0 0.0627012)
(-2.12717 0 0.0608343)
(-2.14334 0 0.0524519)
(-2.15261 0 0.0410898)
(-2.15586 0 0.0324904)
(-2.15732 0 0.0295538)
(-2.15951 0 0.0300433)
(-2.16089 0 0.0305538)
(-0.705798 0 2.08036)
(-1.24042 0 1.65417)
(-1.61912 0 1.0542)
(-1.74425 0 0.664937)
(-1.81667 0 0.529168)
(-1.87411 0 0.415152)
(-1.90776 0 0.333985)
(-1.93977 0 0.279313)
(-1.96996 0 0.226843)
(-1.9903 0 0.183023)
(-2.00755 0 0.160921)
(-2.02946 0 0.148925)
(-2.05163 0 0.132827)
(-2.06781 0 0.114819)
(-2.08063 0 0.10329)
(-2.0971 0 0.0990351)
(-2.11842 0 0.0934647)
(-2.13824 0 0.0812201)
(-2.15004 0 0.0659645)
(-2.15427 0 0.0566849)
(-2.15816 0 0.058334)
(-2.16891 0 0.0668421)
(-2.1879 0 0.0735847)
(-2.21042 0 0.0719543)
(-2.22877 0 0.0604635)
(-2.23728 0 0.0442194)
(-2.2371 0 0.032194)
(-2.23505 0 0.0293218)
(-2.23572 0 0.0315971)
(-2.23695 0 0.0327845)
(9.9959 0 0.138444)
(9.98225 0 0.275235)
(9.95811 0 0.41252)
(9.92453 0 0.552267)
(9.88242 0 0.696153)
(9.83216 0 0.84573)
(9.77399 0 1.00251)
(9.70815 0 1.16796)
(9.63493 0 1.34354)
(9.55459 0 1.53073)
(9.4674 0 1.73101)
(9.37364 0 1.94594)
(9.27357 0 2.17713)
(9.16744 0 2.42634)
(9.0555 0 2.69548)
(8.93797 0 2.98668)
(8.81505 0 3.30239)
(8.68687 0 3.64551)
(8.5535 0 4.01955)
(8.41494 0 4.42889)
(8.27112 0 4.87917)
(8.12192 0 5.37785)
(7.96729 0 5.93511)
(7.80748 0 6.56529)
(7.6437 0 7.28949)
(7.48092 0 8.14027)
(7.33237 0 9.17161)
(7.28806 0 10.4771)
(7.74574 0 12.2014)
(7.92653 0 14.9199)
(9.99638 0 0.143404)
(9.98434 0 0.28509)
(9.96305 0 0.427248)
(9.93352 0 0.571876)
(9.89657 0 0.720667)
(9.85262 0 0.875178)
(9.80197 0 1.03692)
(9.74492 0 1.20736)
(9.68184 0 1.38796)
(9.6131 0 1.58018)
(9.53908 0 1.7855)
(9.46019 0 2.00544)
(9.37689 0 2.24162)
(9.28964 0 2.49576)
(9.19897 0 2.76976)
(9.10546 0 3.06571)
(9.00976 0 3.38606)
(8.91262 0 3.73365)
(8.81495 0 4.11193)
(8.71792 0 4.52517)
(8.62316 0 4.97878)
(8.53302 0 5.4798)
(8.45121 0 6.03754)
(8.384 0 6.6646)
(8.34255 0 7.3782)
(8.34892 0 8.20177)
(8.44194 0 9.16544)
(8.67749 0 10.3025)
(9.32432 0 11.5578)
(9.81417 0 12.6471)
(9.99688 0 0.147841)
(9.98651 0 0.293901)
(9.96819 0 0.440398)
(9.94283 0 0.589346)
(9.91121 0 0.74244)
(9.87377 0 0.901231)
(9.83086 0 1.06722)
(9.78283 0 1.24186)
(9.73013 0 1.42658)
(9.67323 0 1.62282)
(9.61263 0 1.83201)
(9.54888 0 2.05565)
(9.48262 0 2.29528)
(9.41452 0 2.55256)
(9.3454 0 2.8293)
(9.27617 0 3.12749)
(9.20794 0 3.44941)
(9.14203 0 3.79769)
(9.08014 0 4.17546)
(9.02448 0 4.58647)
(8.97807 0 5.03532)
(8.94519 0 5.5277)
(8.93211 0 6.07059)
(8.94838 0 6.67238)
(9.00847 0 7.34253)
(9.13453 0 8.08967)
(9.35755 0 8.91571)
(9.68706 0 9.80957)
(10.2529 0 10.7199)
(10.9408 0 11.4368)
(9.9974 0 0.151702)
(9.98874 0 0.301563)
(9.97347 0 0.451804)
(9.95239 0 0.604445)
(9.92623 0 0.76117)
(9.89544 0 0.923516)
(9.86041 0 1.09295)
(9.82157 0 1.27091)
(9.77942 0 1.45878)
(9.73451 0 1.65794)
(9.68747 0 1.86978)
(9.63898 0 2.09569)
(9.58982 0 2.33715)
(9.54091 0 2.59569)
(9.49328 0 2.87297)
(9.44817 0 3.17079)
(9.40706 0 3.49115)
(9.37178 0 3.83632)
(9.34464 0 4.20888)
(9.32859 0 4.61179)
(9.32758 0 5.04847)
(9.3469 0 5.52276)
(9.3938 0 6.03879)
(9.47819 0 6.60052)
(9.61327 0 7.21073)
(9.81587 0 7.8691)
(10.1088 0 8.56854)
(10.5007 0 9.2944)
(11.0585 0 10.0365)
(11.852 0 10.6818)
(9.99792 0 0.154942)
(9.99101 0 0.307981)
(9.97884 0 0.461331)
(9.96212 0 0.616995)
(9.9415 0 0.776639)
(9.91745 0 0.94177)
(9.89039 0 1.11382)
(9.86081 0 1.29418)
(9.82927 0 1.48417)
(9.7964 0 1.68512)
(9.76291 0 1.89831)
(9.72962 0 2.12505)
(9.69745 0 2.36668)
(9.66747 0 2.62457)
(9.64093 0 2.90018)
(9.61933 0 3.19504)
(9.60444 0 3.51079)
(9.59844 0 3.84923)
(9.60402 0 4.21226)
(9.62457 0 4.60194)
(9.66441 0 5.02037)
(9.72906 0 5.46957)
(9.82562 0 5.95114)
(9.96302 0 6.46579)
(10.1523 0 7.01244)
(10.4066 0 7.58722)
(10.7433 0 8.182)
(11.1739 0 8.78209)
(11.7214 0 9.37592)
(12.4749 0 9.88856)
(9.99845 0 0.157515)
(9.9933 0 0.313072)
(9.98427 0 0.468853)
(9.97194 0 0.626832)
(9.95689 0 0.788644)
(9.93961 0 0.955755)
(9.92054 0 1.12955)
(9.90021 0 1.31135)
(9.87923 0 1.50242)
(9.85831 0 1.70398)
(9.83823 0 1.91723)
(9.8199 0 2.14334)
(9.80435 0 2.38349)
(9.7928 0 2.63886)
(9.78664 0 2.91066)
(9.78752 0 3.20011)
(9.79743 0 3.50844)
(9.81872 0 3.83692)
(9.85425 0 4.18676)
(9.90753 0 4.55908)
(9.98283 0 4.95479)
(10.0854 0 5.37436)
(10.2215 0 5.81752)
(10.3988 0 6.28283)
(10.626 0 6.76702)
(10.9129 0 7.26432)
(11.2706 0 7.76551)
(11.7072 0 8.25502)
(12.2235 0 8.71615)
(12.8997 0 9.10737)
(9.99898 0 0.159385)
(9.9956 0 0.316758)
(9.98971 0 0.474255)
(9.98176 0 0.633808)
(9.97228 0 0.797005)
(9.96173 0 0.965259)
(9.95058 0 1.1399)
(9.9394 0 1.32216)
(9.92885 0 1.51324)
(9.91966 0 1.71425)
(9.91268 0 1.92626)
(9.90889 0 2.1503)
(9.9094 0 2.38738)
(9.91551 0 2.63845)
(9.92869 0 2.90444)
(9.95069 0 3.18625)
(9.98355 0 3.4847)
(10.0297 0 3.8005)
(10.0919 0 4.13421)
(10.1736 0 4.48614)
(10.2787 0 4.85619)
(10.4117 0 5.24365)
(10.5781 0 5.64694)
(10.7837 0 6.06327)
(11.035 0 6.48813)
(11.3384 0 6.91484)
(11.7 0 7.33404)
(12.1239 0 7.73231)
(12.604 0 8.09507)
(13.2098 0 8.40177)
(9.99951 0 0.160516)
(9.99789 0 0.318972)
(9.9951 0 0.477441)
(9.9915 0 0.637797)
(9.98752 0 0.80157)
(9.98361 0 0.970112)
(9.98025 0 1.14467)
(9.97805 0 1.32642)
(9.97765 0 1.51644)
(9.97985 0 1.71574)
(9.98553 0 1.92525)
(9.99569 0 2.14584)
(10.0115 0 2.37832)
(10.0342 0 2.62343)
(10.0655 0 2.88182)
(10.1069 0 3.15405)
(10.1606 0 3.44053)
(10.2288 0 3.74151)
(10.3142 0 4.05695)
(10.4198 0 4.38649)
(10.5491 0 4.72926)
(10.7058 0 5.08374)
(10.8942 0 5.44754)
(11.1184 0 5.81714)
(11.3829 0 6.18763)
(11.6914 0 6.55246)
(12.0468 0 6.90333)
(12.4505 0 7.22993)
(12.895 0 7.5211)
(13.4383 0 7.76552)
(10 0 0.160881)
(10.0001 0 0.31966)
(10.0004 0 0.478332)
(10.0011 0 0.638697)
(10.0025 0 0.802221)
(10.0051 0 0.970183)
(10.0093 0 1.14375)
(10.0158 0 1.324)
(10.0252 0 1.51191)
(10.0383 0 1.70836)
(10.0561 0 1.91415)
(10.0794 0 2.12999)
(10.1096 0 2.35648)
(10.1478 0 2.59414)
(10.1956 0 2.84337)
(10.2546 0 3.10439)
(10.3268 0 3.37728)
(10.4141 0 3.66184)
(10.5191 0 3.95759)
(10.6443 0 4.26364)
(10.7925 0 4.57862)
(10.9668 0 4.9005)
(11.17 0 5.22649)
(11.4052 0 5.55288)
(11.675 0 5.87491)
(11.9813 0 6.18673)
(12.3248 0 6.48147)
(12.7053 0 6.75128)
(13.1151 0 6.98781)
(13.6031 0 7.1842)
(10.0005 0 0.160458)
(10.0023 0 0.318779)
(10.0056 0 0.476866)
(10.0104 0 0.636436)
(10.017 0 0.798877)
(10.0259 0 0.965387)
(10.0374 0 1.13705)
(10.0523 0 1.31484)
(10.071 0 1.49962)
(10.0945 0 1.69214)
(10.1236 0 1.89308)
(10.1593 0 2.10295)
(10.2027 0 2.32221)
(10.2551 0 2.55113)
(10.3178 0 2.78988)
(10.3924 0 3.03841)
(10.4805 0 3.29648)
(10.5842 0 3.56357)
(10.7053 0 3.83886)
(10.846 0 4.12112)
(11.0084 0 4.40865)
(11.1949 0 4.69919)
(11.4073 0 4.98988)
(11.6476 0 5.27711)
(11.9171 0 5.55661)
(12.2162 0 5.82339)
(12.5447 0 6.07191)
(12.9011 0 6.29627)
(13.2785 0 6.49042)
(13.7185 0 6.6502)
(10.001 0 0.159232)
(10.0044 0 0.316301)
(10.0106 0 0.473005)
(10.0194 0 0.630967)
(10.0311 0 0.79149)
(10.0459 0 0.955687)
(10.0644 0 1.12454)
(10.0872 0 1.29893)
(10.1148 0 1.47961)
(10.148 0 1.6672)
(10.1876 0 1.86223)
(10.2347 0 2.06507)
(10.2901 0 2.27599)
(10.3551 0 2.49509)
(10.431 0 2.72231)
(10.5191 0 2.95738)
(10.6209 0 3.19983)
(10.738 0 3.44889)
(10.872 0 3.7035)
(11.0244 0 3.96224)
(11.1971 0 4.22327)
(11.3913 0 4.48431)
(11.6085 0 4.74258)
(11.8494 0 4.99483)
(12.1146 0 5.23733)
(12.4038 0 5.46599)
(12.7157 0 5.67647)
(13.0486 0 5.86442)
(13.3962 0 6.02559)
(13.7951 0 6.15746)
(10.0015 0 0.157196)
(10.0065 0 0.312212)
(10.0154 0 0.46673)
(10.028 0 0.622274)
(10.0445 0 0.780054)
(10.065 0 0.941091)
(10.0901 0 1.10628)
(10.1202 0 1.27638)
(10.1561 0 1.45203)
(10.1982 0 1.63376)
(10.2476 0 1.82193)
(10.3049 0 2.0168)
(10.3711 0 2.21846)
(10.4474 0 2.42686)
(10.5347 0 2.64176)
(10.6343 0 2.86273)
(10.7473 0 3.0891)
(10.8752 0 3.31996)
(11.019 0 3.55412)
(11.18 0 3.79007)
(11.3593 0 4.02596)
(11.5578 0 4.25962)
(11.7762 0 4.48851)
(12.0146 0 4.70977)
(12.273 0 4.92028)
(12.5504 0 5.11677)
(12.8454 0 5.29593)
(13.1561 0 5.45457)
(13.477 0 5.58978)
(13.8405 0 5.70006)
(10.0019 0 0.154349)
(10.0084 0 0.30651)
(10.0199 0 0.458045)
(10.0361 0 0.610369)
(10.0571 0 0.764596)
(10.083 0 0.921653)
(10.1142 0 1.08233)
(10.1512 0 1.2473)
(10.1946 0 1.41709)
(10.245 0 1.5921)
(10.303 0 1.77259)
(10.3695 0 1.95868)
(10.4453 0 2.15034)
(10.5312 0 2.34737)
(10.6282 0 2.54941)
(10.7373 0 2.75589)
(10.8595 0 2.96604)
(10.9956 0 3.17887)
(11.1467 0 3.39313)
(11.3134 0 3.60732)
(11.4966 0 3.81968)
(11.6965 0 4.02822)
(11.9134 0 4.23069)
(12.1471 0 4.42467)
(12.397 0 4.60761)
(12.662 0 4.77695)
(12.9405 0 4.93018)
(13.2305 0 5.06504)
(13.5275 0 5.17955)
(13.8606 0 5.27284)
(10.0024 0 0.150696)
(10.0102 0 0.299208)
(10.0241 0 0.446974)
(10.0438 0 0.595292)
(10.0689 0 0.745181)
(10.0997 0 0.897473)
(10.1366 0 1.05286)
(10.1799 0 1.21192)
(10.2302 0 1.37508)
(10.2879 0 1.54262)
(10.3537 0 1.71471)
(10.4283 0 1.89136)
(10.5123 0 2.07242)
(10.6064 0 2.25761)
(10.7115 0 2.44646)
(10.8283 0 2.63832)
(10.9575 0 2.83237)
(11.0998 0 3.02758)
(11.2558 0 3.22272)
(11.4259 0 3.41638)
(11.6105 0 3.60693)
(11.8097 0 3.79259)
(12.0233 0 3.97145)
(12.2507 0 4.14149)
(12.4912 0 4.30067)
(12.7436 0 4.44702)
(13.0062 0 4.57869)
(13.2773 0 4.69406)
(13.553 0 4.79181)
(13.8597 0 4.87152)
(10.0027 0 0.14625)
(10.0119 0 0.290334)
(10.0281 0 0.433559)
(10.0508 0 0.57711)
(10.0798 0 0.721907)
(10.1152 0 0.868687)
(10.1572 0 1.01805)
(10.2062 0 1.17048)
(10.2626 0 1.32631)
(10.3269 0 1.48574)
(10.3995 0 1.64883)
(10.481 0 1.81551)
(10.572 0 1.98555)
(10.6729 0 2.1586)
(10.7845 0 2.33411)
(10.9073 0 2.51142)
(11.0417 0 2.68968)
(11.1883 0 2.86787)
(11.3473 0 3.04485)
(11.5189 0 3.21929)
(11.7032 0 3.38975)
(11.8999 0 3.5547)
(12.1088 0 3.71252)
(12.329 0 3.86157)
(12.5597 0 4.00026)
(12.7997 0 4.12706)
(13.0474 0 4.24064)
(13.3012 0 4.33988)
(13.5579 0 4.4239)
(13.8417 0 4.49256)
(10.0031 0 0.141029)
(10.0134 0 0.279924)
(10.0317 0 0.417863)
(10.0573 0 0.555914)
(10.0898 0 0.694899)
(10.1293 0 0.835468)
(10.1759 0 0.978134)
(10.23 0 1.12329)
(10.2919 0 1.27118)
(10.3618 0 1.42193)
(10.4403 0 1.57553)
(10.5277 0 1.73184)
(10.6244 0 1.89058)
(10.7309 0 2.05133)
(10.8476 0 2.21354)
(10.9748 0 2.37652)
(11.1129 0 2.53944)
(11.2621 0 2.70135)
(11.4224 0 2.86118)
(11.594 0 3.01776)
(11.7765 0 3.16983)
(11.9696 0 3.31607)
(12.1728 0 3.45517)
(12.3854 0 3.58581)
(12.6062 0 3.70674)
(12.8343 0 3.81684)
(13.0681 0 3.91514)
(13.3062 0 4.00087)
(13.546 0 4.07349)
(13.8095 0 4.13299)
(10.0034 0 0.135057)
(10.0148 0 0.268027)