/*--------------------------------*- C++ -*----------------------------------*\
  =========                 |
  \\      /  F ield         | OpenFOAM: The Open Source CFD Toolbox
   \\    /   O peration     | Website:  https://openfoam.org
    \\  /    A nd           | Version:  dev
     \\/     M anipulation  |
\*---------------------------------------------------------------------------*/
FoamFile
{
    version     2.0;
    format      ascii;
    class       surfaceVectorField;
    location    "5.5";
    object      Uf;
}
// * * * * * * * * * * * * * * * * * * * * * * * * * * * * * * * * * * * * * //

dimensions      [0 1 -1 0 0 0 0];

internalField   nonuniform List<vector> 
5457
(
(9.92088 0 0.0251095)
(9.97125 0 0.0387457)
(9.82401 0 0.0328268)
(9.92859 0 0.048585)
(9.70961 0 0.039312)
(9.85548 0 0.058768)
(9.57544 0 0.0460115)
(9.7568 0 0.0705932)
(9.42138 0 0.0529489)
(9.63753 0 0.0830133)
(9.24755 0 0.0601662)
(9.49861 0 0.0959364)
(9.05362 0 0.0678109)
(9.33931 0 0.109613)
(8.83893 0 0.0760345)
(9.15874 0 0.124289)
(8.60252 0 0.0849703)
(8.9561 0 0.140167)
(8.34327 0 0.094745)
(8.73038 0 0.157434)
(8.05985 0 0.105487)
(8.48041 0 0.17627)
(7.7508 0 0.117328)
(8.20477 0 0.196858)
(7.41456 0 0.130396)
(7.90195 0 0.219363)
(7.0495 0 0.144811)
(7.57031 0 0.243925)
(6.65403 0 0.160674)
(7.20819 0 0.270635)
(6.22672 0 0.178046)
(6.814 0 0.299503)
(5.76643 0 0.19693)
(6.38633 0 0.330417)
(5.27258 0 0.217235)
(5.92417 0 0.363087)
(4.74538 0 0.238738)
(5.42711 0 0.396979)
(4.18621 0 0.261034)
(4.89566 0 0.43124)
(3.59798 0 0.28349)
(4.33165 0 0.464623)
(2.98556 0 0.305204)
(3.73861 0 0.495428)
(2.35613 0 0.32507)
(3.12228 0 0.521515)
(1.71911 0 0.342549)
(2.49108 0 0.540559)
(1.08436 0 0.361882)
(1.85587 0 0.551675)
(0.451844 0 0.348685)
(1.24549 0 0.563021)
(-0.145834 0 0.102467)
(0.608926 0 0.544883)
(-0.423619 0 -0.207096)
(0.0946665 0 0.259373)
(-0.402156 0 -0.361261)
(-0.133666 0 -0.0205252)
(-0.119681 0 -0.393887)
(9.99641 0 0.0516723)
(9.99705 0 0.0405045)
(9.95879 0 0.0708613)
(9.97851 0 0.0674542)
(9.89824 0 0.0879866)
(9.93377 0 0.0898696)
(9.81659 0 0.105984)
(9.86453 0 0.113554)
(9.71359 0 0.124921)
(9.77438 0 0.138514)
(9.58909 0 0.144853)
(9.66435 0 0.164646)
(9.44274 0 0.16609)
(9.53397 0 0.192332)
(9.27391 0 0.188967)
(9.3825 0 0.222031)
(9.08167 0 0.213783)
(9.20919 0 0.254149)
(8.8649 0 0.240816)
(9.01316 0 0.289065)
(8.6223 0 0.270338)
(8.79332 0 0.327154)
(8.35239 0 0.302609)
(8.54836 0 0.368788)
(8.05356 0 0.337859)
(8.27683 0 0.414319)
(7.72412 0 0.376265)
(7.97717 0 0.464049)
(7.36237 0 0.417906)
(7.64772 0 0.518193)
(6.96672 0 0.462712)
(7.28683 0 0.576811)
(6.53583 0 0.510391)
(6.89295 0 0.639731)
(6.06883 0 0.560337)
(6.46481 0 0.706433)
(5.56559 0 0.611525)
(6.0016 0 0.775915)
(5.0271 0 0.662389)
(5.50326 0 0.84653)
(4.45588 0 0.710712)
(4.97089 0 0.915812)
(3.8565 0 0.753543)
(4.40719 0 0.980311)
(3.2362 0 0.787198)
(3.81704 0 1.03546)
(2.60582 0 0.807503)
(3.20846 0 1.07549)
(1.9828 0 0.810468)
(2.5934 0 1.09315)
(1.40529 0 0.776898)
(1.99621 0 1.07708)
(0.929757 0 0.646402)
(1.4195 0 0.978411)
(0.439861 0 0.384341)
(0.937576 0 0.716799)
(0.0591748 0 -0.118611)
(0.443797 0 0.343527)
(0.174921 0 -0.335929)
(9.98903 0 0.0594306)
(9.99481 0 0.0458773)
(9.95434 0 0.0894762)
(9.97368 0 0.0848538)
(9.89729 0 0.118031)
(9.92984 0 0.119173)
(9.82047 0 0.147898)
(9.86357 0 0.153976)
(9.72416 0 0.179421)
(9.77736 0 0.190408)
(9.60821 0 0.212775)
(9.67227 0 0.228636)
(9.47235 0 0.248392)
(9.5481 0 0.269129)
(9.31608 0 0.286774)
(9.40432 0 0.312496)
(9.13869 0 0.328397)
(9.24034 0 0.359325)
(8.93925 0 0.373722)
(9.05549 0 0.410174)
(8.71665 0 0.423207)
(8.84889 0 0.465599)
(8.4696 0 0.477296)
(8.61951 0 0.526153)
(8.19668 0 0.536399)
(8.36616 0 0.592373)
(7.89632 0 0.600843)
(8.08752 0 0.664739)
(7.56692 0 0.670811)
(7.7822 0 0.743619)
(7.20684 0 0.746257)
(7.44873 0 0.82919)
(6.81457 0 0.826783)
(7.08568 0 0.92132)
(6.38888 0 0.911484)
(6.6917 0 1.01941)
(5.92904 0 0.998759)
(6.26572 0 1.12217)
(5.43514 0 1.0861)
(5.80712 0 1.22743)
(4.90855 0 1.16983)
(5.31608 0 1.33175)
(4.35244 0 1.24489)
(4.79398 0 1.43019)
(3.7726 0 1.30455)
(4.24398 0 1.51588)
(3.17874 0 1.33984)
(3.67182 0 1.57943)
(2.58664 0 1.33812)
(3.08633 0 1.60775)
(2.01987 0 1.27298)
(2.50293 0 1.58158)
(1.48695 0 1.09542)
(1.92875 0 1.46425)
(0.958305 0 0.769175)
(1.38526 0 1.21041)
(0.479883 0 0.202458)
(0.829548 0 0.801045)
(0.433733 0 0.134087)
(9.98515 0 0.0716135)
(9.99367 0 0.0531476)
(9.95039 0 0.11363)
(9.97087 0 0.10229)
(9.89437 0 0.154133)
(9.92691 0 0.147953)
(9.81882 0 0.195572)
(9.86185 0 0.193721)
(9.72442 0 0.23881)
(9.77746 0 0.241277)
(9.61112 0 0.284324)
(9.67467 0 0.291163)
(9.47874 0 0.33272)
(9.55343 0 0.343955)
(9.32695 0 0.384674)
(9.41336 0 0.400371)
(9.15523 0 0.440846)
(9.254 0 0.461139)
(8.96291 0 0.501883)
(9.07484 0 0.526961)
(8.74917 0 0.568428)
(8.8752 0 0.598536)
(8.51304 0 0.641112)
(8.6543 0 0.676562)
(8.25346 0 0.720531)
(8.41123 0 0.761721)
(7.96926 0 0.807191)
(8.145 0 0.854637)
(7.65918 0 0.901438)
(7.85454 0 0.95582)
(7.32192 0 1.00335)
(7.53875 0 1.06557)
(6.95621 0 1.11257)
(7.19646 0 1.18385)
(6.56085 0 1.22814)
(6.82653 0 1.31008)
(6.13489 0 1.34817)
(6.42789 0 1.44292)
(5.67785 0 1.4696)
(5.99967 0 1.5799)
(5.19 0 1.58777)
(5.54134 0 1.71708)
(4.67287 0 1.69603)
(5.05306 0 1.84854)
(4.12981 0 1.78515)
(4.53597 0 1.96583)
(3.56666 0 1.84253)
(3.99274 0 2.0573)
(2.99206 0 1.85073)
(3.42761 0 2.10714)
(2.41585 0 1.78249)
(2.84764 0 2.09448)
(1.84055 0 1.60046)
(2.25624 0 1.98874)
(1.25939 0 1.27843)
(1.66032 0 1.75305)
(0.666778 0 0.789544)
(1.02397 0 1.36777)
(0.523039 0 0.787155)
(9.98337 0 0.0844069)
(9.99316 0 0.061291)
(9.94821 0 0.136836)
(9.96958 0 0.119926)
(9.89315 0 0.188031)
(9.92575 0 0.176239)
(9.81906 0 0.240168)
(9.86199 0 0.232697)
(9.72663 0 0.294466)
(9.77964 0 0.291086)
(9.6159 0 0.351658)
(9.6794 0 0.352272)
(9.48671 0 0.412469)
(9.56128 0 0.416975)
(9.33879 0 0.477675)
(9.42497 0 0.486007)
(9.17171 0 0.548049)
(9.27009 0 0.560203)
(8.98493 0 0.624353)
(9.0962 0 0.640385)
(8.77779 0 0.707342)
(8.90274 0 0.727366)
(8.54954 0 0.797763)
(8.68907 0 0.821955)
(8.29935 0 0.896325)
(8.45444 0 0.92494)
(8.02635 0 1.00365)
(8.19807 0 1.03705)
(7.72957 0 1.1202)
(7.91912 0 1.15891)
(7.40805 0 1.24616)
(7.61669 0 1.29092)
(7.06076 0 1.38127)
(7.28985 0 1.43315)
(6.68669 0 1.52459)
(6.93763 0 1.5851)
(6.28485 0 1.67419)
(6.55899 0 1.7455)
(5.85438 0 1.82679)
(6.15287 0 1.91188)
(5.39471 0 1.97725)
(5.71822 0 2.08016)
(4.90575 0 2.11805)
(5.25408 0 2.24409)
(4.38825 0 2.23861)
(4.75974 0 2.3946)
(3.84395 0 2.32454)
(4.23495 0 2.51919)
(3.27544 0 2.35695)
(3.6799 0 2.60124)
(2.6854 0 2.31059)
(3.09573 0 2.6197)
(2.0727 0 2.15501)
(2.4817 0 2.54732)
(1.42938 0 1.8674)
(1.83992 0 2.35372)
(0.742615 0 1.41957)
(1.13137 0 2.02453)
(0.543308 0 1.5145)
(9.98264 0 0.0974969)
(9.99299 0 0.0697923)
(9.94744 0 0.159774)
(9.96925 0 0.137582)
(9.89354 0 0.221346)
(9.92597 0 0.203925)
(9.82134 0 0.28409)
(9.86381 0 0.270686)
(9.73134 0 0.349346)
(9.78386 0 0.33958)
(9.62367 0 0.418016)
(9.68665 0 0.411695)
(9.49819 0 0.490936)
(9.57218 0 0.4879)
(9.35465 0 0.568972)
(9.44022 0 0.569102)
(9.19269 0 0.653002)
(9.29043 0 0.656231)
(9.01183 0 0.743895)
(9.12243 0 0.750211)
(8.81151 0 0.842514)
(8.93572 0 0.851955)
(8.59109 0 0.949707)
(8.72973 0 0.962364)
(8.34985 0 1.06628)
(8.50382 0 1.08232)
(8.08706 0 1.19296)
(8.25728 0 1.21265)
(7.80192 0 1.33031)
(7.98937 0 1.35405)
(7.49359 0 1.4786)
(7.69929 0 1.50703)
(7.16119 0 1.63769)
(7.38617 0 1.67177)
(6.80372 0 1.80675)
(7.04902 0 1.84792)
(6.42011 0 1.98397)
(6.68675 0 2.03436)
(6.00912 0 2.16614)
(6.29801 0 2.22884)
(5.5694 0 2.34811)
(5.88119 0 2.42748)
(5.09946 0 2.52221)
(5.43434 0 2.62426)
(4.59775 0 2.67757)
(4.95511 0 2.8103)
(4.0627 0 2.79949)
(4.44085 0 2.97322)
(3.4927 0 2.86911)
(3.88852 0 3.09663)
(2.88583 0 2.86292)
(3.29523 0 3.1599)
(2.23802 0 2.75393)
(2.6569 0 3.13791)
(1.54244 0 2.52103)
(1.97484 0 3.00319)
(0.79365 0 2.13134)
(1.20724 0 2.7406)
(0.556738 0 2.29183)
(9.9825 0 0.110625)
(9.99302 0 0.0783607)
(9.94771 0 0.182323)
(9.96954 0 0.155036)
(9.89523 0 0.253815)
(9.92722 0 0.230884)
(9.82524 0 0.326764)
(9.86697 0 0.307506)
(9.73813 0 0.402552)
(9.78978 0 0.386519)
(9.63403 0 0.48223)
(9.69606 0 0.469145)
(9.51286 0 0.566754)
(9.58579 0 0.556394)
(9.37438 0 0.657089)
(9.4588 0 0.649267)
(9.21828 0 0.75421)
(9.31481 0 0.748783)
(9.04414 0 0.859082)
(9.15347 0 0.855959)
(8.85145 0 0.97266)
(8.97434 0 0.971798)
(8.63963 0 1.09588)
(8.77691 0 1.09729)
(8.40803 0 1.22964)
(8.56058 0 1.23342)
(8.15595 0 1.37475)
(8.3247 0 1.38108)
(7.88264 0 1.53187)
(8.06852 0 1.54108)
(7.58727 0 1.70139)
(7.79125 0 1.71405)
(7.26889 0 1.8833)
(7.49196 0 1.90031)
(6.92642 0 2.07698)
(7.16954 0 2.09971)
(6.55851 0 2.28086)
(6.82266 0 2.3114)
(6.16347 0 2.49206)
(6.44959 0 2.5335)
(5.73913 0 2.70584)
(6.04809 0 2.76266)
(5.28273 0 2.915)
(5.61524 0 2.99347)
(4.79083 0 3.10916)
(5.14724 0 3.21785)
(4.2593 0 3.2742)
(4.63938 0 3.42428)
(3.68339 0 3.39186)
(4.08606 0 3.59715)
(3.05805 0 3.43968)
(3.48132 0 3.71654)
(2.37774 0 3.3918)
(2.81837 0 3.75813)
(1.63791 0 3.22618)
(2.09916 0 3.69398)
(0.839132 0 2.90085)
(1.27892 0 3.50448)
(0.573361 0 3.11371)
(9.98273 0 0.12358)
(9.99316 0 0.0868166)
(9.94873 0 0.204307)
(9.97027 0 0.172091)
(9.89794 0 0.28525)
(9.92927 0 0.256973)
(9.83051 0 0.367962)
(9.87124 0 0.342985)
(9.74671 0 0.453848)
(9.79715 0 0.431675)
(9.64668 0 0.544073)
(9.70735 0 0.524347)
(9.53038 0 0.639703)
(9.60181 0 0.622131)
(9.39763 0 0.741796)
(9.48039 0 0.726121)
(9.24813 0 0.851411)
(9.34286 0 0.83742)
(9.08153 0 0.969603)
(9.18894 0 0.957128)
(8.89737 0 1.09742)
(9.01825 0 1.08634)
(8.6951 0 1.23588)
(8.8303 0 1.22613)
(8.47413 0 1.38598)
(8.62455 0 1.37758)
(8.23377 0 1.54863)
(8.40037 0 1.54168)
(7.97323 0 1.7246)
(8.15702 0 1.71938)
(7.69161 0 1.91445)
(7.89364 0 1.91143)
(7.38785 0 2.11835)
(7.6092 0 2.11836)
(7.06062 0 2.33597)
(7.30242 0 2.3403)
(6.70821 0 2.56613)
(6.97165 0 2.57677)
(6.32836 0 2.80649)
(6.61472 0 2.82644)
(5.9181 0 3.05305)
(6.22872 0 3.08671)
(5.47346 0 3.29954)
(5.80974 0 3.35318)
(4.98931 0 3.53666)
(5.35266 0 3.61899)
(4.45934 0 3.75142)
(4.85088 0 3.874)
(3.87622 0 3.92647)
(4.29643 0 4.10394)
(3.23233 0 4.03986)
(3.68056 0 4.28969)
(2.52084 0 4.06499)
(2.99351 0 4.40678)
(1.73838 0 3.97613)
(2.23738 0 4.42458)
(0.889474 0 3.71876)
(1.36336 0 4.31629)
(0.598753 0 3.9849)
(9.98321 0 0.136202)
(9.99339 0 0.0950394)
(9.95032 0 0.22557)
(9.97131 0 0.188587)
(9.90151 0 0.315494)
(9.93193 0 0.282046)
(9.83694 0 0.4075)
(9.87643 0 0.376957)
(9.75684 0 0.503008)
(9.80579 0 0.474836)
(9.66135 0 0.603272)
(9.7203 0 0.577045)
(9.55046 0 0.709454)
(9.61996 0 0.684809)
(9.42404 0 0.822696)
(9.50465 0 0.799311)
(9.28184 0 0.94414)
(9.37423 0 0.921729)
(9.12356 0 1.07493)
(9.22844 0 1.05324)
(8.9488 0 1.21619)
(9.06696 0 1.19503)
(8.75706 0 1.36904)
(8.88939 0 1.34827)
(8.54777 0 1.53458)
(8.69521 0 1.51412)
(8.32025 0 1.71384)
(8.48383 0 1.6937)
(8.07371 0 1.90774)
(8.25451 0 1.8881)
(7.80714 0 2.11703)
(8.00637 0 2.09827)
(7.51933 0 2.34216)
(7.73826 0 2.32497)
(7.20869 0 2.58316)
(7.44874 0 2.56869)
(6.87311 0 2.83939)
(7.13586 0 2.82945)
(6.50978 0 3.10927)
(6.79702 0 3.10664)
(6.11489 0 3.38981)
(6.42868 0 3.39862)
(5.68332 0 3.67603)
(6.02605 0 3.70231)
(5.20839 0 3.96021)
(5.58269 0 4.01249)
(4.68166 0 4.23099)
(5.09022 0 4.32097)
(4.09319 0 4.47232)
(4.53817 0 4.61539)
(3.43242 0 4.66254)
(3.91459 0 4.87786)
(2.69005 0 4.77314)
(3.20558 0 5.08357)
(1.86178 0 4.77238)
(2.41119 0 5.19795)
(0.954145 0 4.5897)
(1.47622 0 5.18427)
(0.639164 0 4.91942)
(9.98386 0 0.148368)
(9.99368 0 0.102943)
(9.95235 0 0.245968)
(9.9726 0 0.204392)
(9.90579 0 0.344396)
(9.9351 0 0.305967)
(9.84437 0 0.445194)
(9.88241 0 0.409267)
(9.76833 0 0.549807)
(9.81552 0 0.515812)
(9.6778 0 0.659554)
(9.73471 0 0.627006)
(9.57282 0 0.775682)
(9.63999 0 0.744152)
(9.45328 0 0.899412)
(9.5313 0 0.86851)
(9.31902 0 1.03196)
(9.40854 0 1.00133)
(9.16979 0 1.17455)
(9.27152 0 1.14387)
(9.00523 0 1.32839)
(9.12 0 1.29738)
(8.82493 0 1.49471)
(8.95362 0 1.46312)
(8.62835 0 1.6747)
(8.77195 0 1.64236)
(8.41485 0 1.86954)
(8.57443 0 1.83636)
(8.18362 0 2.08033)
(8.36038 0 2.04635)
(7.93361 0 2.30805)
(8.1289 0 2.27349)
(7.66348 0 2.5535)
(7.87881 0 2.51888)
(7.37144 0 2.81718)
(7.60855 0 2.7834)
(7.05506 0 3.09912)
(7.31598 0 3.06769)
(6.71102 0 3.39866)
(6.9982 0 3.37197)
(6.3348 0 3.71408)
(6.65118 0 3.69579)
(5.92024 0 4.0421)
(6.26939 0 4.03767)
(5.45915 0 4.37707)
(5.84528 0 4.39453)
(4.94092 0 4.70989)
(5.36875 0 4.76073)
(4.35256 0 5.02653)
(4.82664 0 5.12674)
(3.67942 0 5.30616)
(4.203 0 5.47705)
(2.90735 0 5.51814)
(3.47772 0 5.78744)
(2.02753 0 5.62295)
(2.64487 0 6.01945)
(1.04503 0 5.52938)
(1.6376 0 6.12385)
(0.704412 0 5.94297)
(9.98465 0 0.15998)
(9.99402 0 0.110461)
(9.95473 0 0.265379)
(9.97409 0 0.219398)
(9.91065 0 0.371817)
(9.93868 0 0.328609)
(9.85267 0 0.48088)
(9.88905 0 0.439773)
(9.781 0 0.594041)
(9.82619 0 0.554429)
(9.69581 0 0.712676)
(9.75038 0 0.67402)
(9.59717 0 0.838102)
(9.66167 0 0.799911)
(9.48503 0 0.97161)
(9.56003 0 0.933429)
(9.35928 0 1.11449)
(9.44544 0 1.07589)
(9.21974 0 1.26802)
(9.31777 0 1.22861)
(9.06613 0 1.43351)
(9.17685 0 1.39291)
(8.89811 0 1.61228)
(9.02241 0 1.57015)
(8.71522 0 1.80563)
(8.85411 0 1.76168)
(8.51686 0 2.01489)
(8.67146 0 1.9689)
(8.30226 0 2.24136)
(8.47385 0 2.1932)
(8.0704 0 2.4863)
(8.26045 0 2.43601)
(7.81989 0 2.7509)
(8.03012 0 2.69871)
(7.54884 0 3.03619)
(7.7813 0 2.98268)
(7.25464 0 3.34298)
(7.51183 0 3.28922)
(6.93368 0 3.67171)
(7.21868 0 3.6195)
(6.58093 0 4.02219)
(6.89762 0 3.97441)
(6.18945 0 4.39316)
(6.54272 0 4.35437)
(5.74975 0 4.78165)
(6.14569 0 4.75884)
(5.24907 0 5.18176)
(5.69503 0 5.1856)
(4.67087 0 5.58283)
(5.175 0 5.62926)
(3.99481 0 5.96656)
(4.56498 0 6.07884)
(3.1983 0 6.30169)
(3.83619 0 6.51359)
(2.26165 0 6.54061)
(2.97066 0 6.89401)
(1.18053 0 6.56498)
(1.87899 0 7.15773)
(0.812725 0 7.09922)
(9.98553 0 0.170962)
(9.9944 0 0.117545)
(9.95739 0 0.283696)
(9.97572 0 0.233517)
(9.91601 0 0.397632)
(9.94258 0 0.349866)
(9.86169 0 0.514407)
(9.89624 0 0.468347)
(9.79469 0 0.63553)
(9.83765 0 0.590535)
(9.71517 0 0.762423)
(9.76714 0 0.717904)
(9.62325 0 0.896461)
(9.68476 0 0.851869)
(9.51895 0 1.03899)
(9.59056 0 0.993811)
(9.40222 0 1.19137)
(9.48457 0 1.1451)
(9.27294 0 1.35494)
(9.36674 0 1.30711)
(9.13095 0 1.53108)
(9.237 0 1.48122)
(8.97597 0 1.72119)
(9.09515 0 1.66887)
(8.80764 0 1.9267)
(8.94097 0 1.8715)
(8.62547 0 2.14907)
(8.77409 0 2.09062)
(8.42878 0 2.38983)
(8.59401 0 2.32781)
(8.21662 0 2.65052)
(8.40003 0 2.5847)
(7.9877 0 2.93271)
(8.19115 0 2.86304)
(7.74018 0 3.23805)
(7.96595 0 3.16466)
(7.47149 0 3.56817)
(7.72244 0 3.49154)
(7.17799 0 3.9247)
(7.45775 0 3.84585)
(6.85455 0 4.30915)
(7.16783 0 4.22989)
(6.49389 0 4.72266)
(6.84686 0 4.64613)
(6.08573 0 5.16555)
(6.4865 0 5.09701)
(5.61565 0 5.63633)
(6.0747 0 5.5845)
(5.06356 0 6.12983)
(5.594 0 6.1091)
(4.40214 0 6.63376)
(5.01954 0 6.66759)
(3.59601 0 7.12116)
(4.31243 0 7.24851)
(2.60418 0 7.5405)
(3.4355 0 7.82011)
(1.39419 0 7.74024)
(2.25627 0 8.31485)
(1.0025 0 8.46474)
(9.9865 0 0.18125)
(9.9948 0 0.124155)
(9.96027 0 0.300829)
(9.97747 0 0.246677)
(9.92177 0 0.421729)
(9.94676 0 0.369643)
(9.87134 0 0.545645)
(9.90388 0 0.49488)
(9.80924 0 0.674116)
(9.84977 0 0.623998)
(9.73568 0 0.808607)
(9.78479 0 0.758499)
(9.65081 0 0.950536)
(9.70903 0 0.899838)
(9.55472 0 1.1013)
(9.62259 0 1.04944)
(9.44743 0 1.2623)
(9.52556 0 1.20871)
(9.32892 0 1.43494)
(9.418 0 1.37908)
(9.19909 0 1.62066)
(9.29989 0 1.56197)
(9.05781 0 1.82093)
(9.1712 0 1.75886)
(8.90481 0 2.03729)
(9.03178 0 1.97131)
(8.73976 0 2.27134)
(8.88143 0 2.20091)
(8.56211 0 2.52478)
(8.71982 0 2.44938)
(8.37112 0 2.79944)
(8.54643 0 2.71857)
(8.16566 0 3.0973)
(8.36051 0 3.01053)
(7.94415 0 3.42054)
(8.16095 0 3.32751)
(7.70432 0 3.77164)
(7.9461 0 3.67214)
(7.44286 0 4.15341)
(7.71361 0 4.04749)
(7.15503 0 4.56912)
(7.46002 0 4.45723)
(6.83395 0 5.0225)
(7.18031 0 4.90587)
(6.46957 0 5.51767)
(6.8671 0 5.39892)
(6.04701 0 6.05875)
(6.50932 0 5.94308)
(5.54403 0 6.64878)
(6.09003 0 6.54624)
(4.927 0 7.28701)
(5.58306 0 7.21683)
(4.14486 0 7.96138)
(4.94237 0 7.96156)
(3.12157 0 8.63342)
(4.10907 0 8.77557)
(1.75608 0 9.12753)
(2.87816 0 9.62068)
(1.36453 0 10.1847)
(9.98754 0 0.190797)
(9.99523 0 0.130259)
(9.96332 0 0.316703)
(9.97932 0 0.258821)
(9.92785 0 0.444017)
(9.95115 0 0.387863)
(9.88148 0 0.574483)
(9.91188 0 0.519279)
(9.82449 0 0.709672)
(9.86243 0 0.654707)
(9.75713 0 0.851078)
(9.80318 0 0.795675)
(9.67959 0 1.00016)
(9.73426 0 0.943666)
(9.59202 0 1.15834)
(9.65583 0 1.10013)
(9.49452 0 1.32706)
(9.56806 0 1.26652)
(9.38716 0 1.50777)
(9.47108 0 1.44427)
(9.26997 0 1.70195)
(9.365 0 1.63486)
(9.14291 0 1.91113)
(9.24987 0 1.8398)
(9.00588 0 2.13694)
(9.12573 0 2.0607)
(8.85872 0 2.38108)
(8.99252 0 2.29924)
(8.70109 0 2.64542)
(8.85012 0 2.55725)
(8.53249 0 2.93202)
(8.69829 0 2.83675)
(8.35213 0 3.24319)
(8.53659 0 3.13999)
(8.15886 0 3.58161)
(8.36433 0 3.46961)
(7.95093 0 3.95046)
(8.18045 0 3.82871)
(7.72579 0 4.35365)
(7.98335 0 4.22112)
(7.4797 0 4.79601)
(7.77069 0 4.65162)
(7.20708 0 5.28375)
(7.53895 0 5.12641)
(6.89957 0 5.82483)
(7.28292 0 5.65371)
(6.54418 0 6.42962)
(6.99458 0 6.24465)
(6.12017 0 7.11151)
(6.66122 0 6.91475)
(5.59281 0 7.88765)
(6.26226 0 7.68625)
(4.90059 0 8.77787)
(5.75726 0 8.59264)
(3.92651 0 9.80136)
(5.08692 0 9.68509)
(2.43288 0 10.8562)
(3.97897 0 11.049)
(2.14582 0 12.5676)
(9.98862 0 0.19956)
(9.99567 0 0.135834)
(9.96652 0 0.331258)
(9.98124 0 0.269903)
(9.9342 0 0.464413)
(9.9557 0 0.404467)
(9.89202 0 0.600815)
(9.92017 0 0.541469)
(9.8403 0 0.742059)
(9.87553 0 0.682575)
(9.77932 0 0.889661)
(9.82216 0 0.82933)
(9.70932 0 1.0451)
(9.76028 0 0.983234)
(9.63051 0 1.20984)
(9.6901 0 1.14576)
(9.54308 0 1.38533)
(9.61186 0 1.31836)
(9.44718 0 1.57305)
(9.52578 0 1.5025)
(9.34296 0 1.7745)
(9.43207 0 1.69967)
(9.23053 0 1.99126)
(9.33093 0 1.91142)
(9.10995 0 2.22501)
(9.22254 0 2.13936)
(8.98126 0 2.47753)
(9.10704 0 2.38523)
(8.84438 0 2.7508)
(8.98457 0 2.65092)
(8.69913 0 3.04704)
(8.85516 0 2.93855)
(8.54516 0 3.36881)
(8.71879 0 3.25052)
(8.38186 0 3.71913)
(8.5753 0 3.58967)
(8.20828 0 4.10173)
(8.42434 0 3.95942)
(8.02296 0 4.52125)
(8.26535 0 4.36404)
(7.82371 0 4.98375)
(8.09741 0 4.809)
(7.60724 0 5.49726)
(7.91917 0 5.30153)
(7.36852 0 6.07284)
(7.72863 0 5.8515)
(7.09963 0 6.72614)
(7.52294 0 6.47284)
(6.78739 0 7.48035)
(7.29783 0 7.18612)
(6.40826 0 8.3722)
(7.04783 0 8.02373)
(5.91519 0 9.46611)
(6.76272 0 9.04215)
(5.19558 0 10.9083)
(6.46148 0 10.357)
(3.88383 0 13.1782)
(6.18894 0 12.3035)
(5.2575 0 16.3715)
(0.182565 0 -0.108054)
(0.107121 0 -0.178812)
(0.355824 0 -0.0915448)
(0.260715 0 -0.165688)
(0.497573 0 -0.0696277)
(0.412531 0 -0.132354)
(0.607765 0 -0.0503736)
(0.539569 0 -0.100459)
(0.691475 0 -0.0351256)
(0.63852 0 -0.0745123)
(0.754132 0 -0.0235119)
(0.71433 0 -0.0544565)
(0.800459 0 -0.0148736)
(0.772722 0 -0.039312)
(0.834392 0 -0.00860228)
(0.818225 0 -0.0281154)
(0.859153 0 -0.00417705)
(0.854205 0 -0.0200309)
(0.877305 0 -0.00116369)
(0.883225 0 -0.0143378)
(0.890856 0 0.00078426)
(0.907267 0 -0.0104503)
(0.901369 0 0.00193682)
(0.927856 0 -0.00791636)
(0.910058 0 0.0025072)
(0.946158 0 -0.00638846)
(0.917846 0 0.00267083)
(0.963063 0 -0.00559072)
(0.925393 0 0.00258054)
(0.979233 0 -0.0052891)
(0.933089 0 0.00237761)
(0.995127 0 -0.00526704)
(0.941041 0 0.00219745)
(1.011 0 -0.00531294)
(0.94905 0 0.00216598)
(1.02689 0 -0.00522506)
(0.956638 0 0.00238318)
(1.04261 0 -0.00483349)
(0.963123 0 0.00289712)
(1.05778 0 -0.00403366)
(0.967771 0 0.00367631)
(1.07189 0 -0.00282242)
(0.970015 0 0.0045769)
(1.08441 0 -0.0013306)
(0.969728 0 0.00536626)
(1.09491 0 0.000166222)
(0.966851 0 0.0059503)
(1.1032 0 0.00162651)
(0.961656 0 0.00639338)
(1.10923 0 0.00286684)
(0.954253 0 0.00674014)
(1.11314 0 0.00398913)
(0.944726 0 0.00700393)
(1.11508 0 0.00501229)
(0.933064 0 0.00708036)
(1.11483 0 0.00599085)
(0.919932 0 0.00629592)
(1.1123 0 0.00658669)
(1.1079 0 0.00512751)
(0.169653 0 -0.259875)
(0.0898492 0 -0.344976)
(0.331299 0 -0.22647)
(0.231916 0 -0.320272)
(0.466178 0 -0.178604)
(0.364164 0 -0.258293)
(0.574676 0 -0.136008)
(0.475687 0 -0.199373)
(0.66161 0 -0.102157)
(0.564125 0 -0.151895)
(0.731752 0 -0.0762778)
(0.6343 0 -0.115418)
(0.789037 0 -0.0569017)
(0.690977 0 -0.0879232)
(0.836617 0 -0.0426723)
(0.737703 0 -0.0675376)
(0.876991 0 -0.0324311)
(0.777072 0 -0.0526925)
(0.91208 0 -0.0252152)
(0.81105 0 -0.0420536)
(0.943343 0 -0.0202673)
(0.841107 0 -0.0345604)
(0.971884 0 -0.0170081)
(0.868342 0 -0.0294076)
(0.99854 0 -0.014991)
(0.893574 0 -0.0259865)
(1.02394 0 -0.0138583)
(0.917418 0 -0.0238272)
(1.04857 0 -0.0133044)
(0.940335 0 -0.0225475)
(1.07274 0 -0.0130481)
(0.962667 0 -0.0218095)
(1.09666 0 -0.0128194)
(0.984646 0 -0.021292)
(1.12036 0 -0.0123674)
(1.0064 0 -0.0206876)
(1.14374 0 -0.0114917)
(1.02792 0 -0.0197287)
(1.16657 0 -0.0100884)
(1.0491 0 -0.0182341)
(1.18854 0 -0.00819108)
(1.06972 0 -0.0161601)
(1.20927 0 -0.00598684)
(1.0895 0 -0.0136239)
(1.22828 0 -0.00373584)
(1.10818 0 -0.0108398)
(1.24538 0 -0.00160087)
(1.1254 0 -0.00803981)
(1.26053 0 0.000390002)
(1.14118 0 -0.00548987)
(1.27382 0 0.00231072)
(1.15563 0 -0.00317249)
(1.28509 0 0.00421516)
(1.16893 0 -0.000919488)
(1.29392 0 0.00582804)
(1.18117 0 0.00145595)
(1.30041 0 0.00609253)
(1.19205 0 0.00332946)
(1.20299 0 0.00333053)
(0.143578 0 -0.411789)
(0.0702419 0 -0.485602)
(0.275352 0 -0.358996)
(0.189174 0 -0.446288)
(0.382894 0 -0.285497)
(0.288474 0 -0.358708)
(0.468444 0 -0.220733)
(0.371999 0 -0.277366)
(0.536926 0 -0.169576)
(0.436715 0 -0.212853)
(0.592482 0 -0.130525)
(0.487983 0 -0.163702)
(0.638283 0 -0.101217)
(0.529531 0 -0.12679)
(0.676765 0 -0.0795677)
(0.563822 0 -0.0994213)
(0.709847 0 -0.0638208)
(0.592684 0 -0.0794552)
(0.738953 0 -0.0525228)
(0.61757 0 -0.065043)
(0.765144 0 -0.0445418)
(0.639511 0 -0.0547596)
(0.789218 0 -0.0390202)
(0.659245 0 -0.0475348)
(0.811766 0 -0.0353079)
(0.677317 0 -0.0425643)
(0.833236 0 -0.0328985)
(0.694138 0 -0.0392396)
(0.853969 0 -0.0313712)
(0.710019 0 -0.0370791)
(0.874218 0 -0.0303463)
(0.725211 0 -0.0356664)
(0.894149 0 -0.0294633)
(0.739908 0 -0.0346093)
(0.913833 0 -0.0283903)
(0.754252 0 -0.0335294)
(0.933237 0 -0.0268627)
(0.768316 0 -0.0320892)
(0.952237 0 -0.0247386)
(0.782092 0 -0.030051)
(0.970645 0 -0.0220416)
(0.795485 0 -0.0273381)
(0.988267 0 -0.0189469)
(0.80834 0 -0.0240722)
(1.005 0 -0.0156921)
(0.820493 0 -0.020528)
(1.02088 0 -0.0125266)
(0.831841 0 -0.0170135)
(1.03596 0 -0.00961148)
(0.842381 0 -0.0138109)
(1.05052 0 -0.00686743)
(0.852238 0 -0.0110205)
(1.06489 0 -0.00412866)
(0.861664 0 -0.00848113)
(1.07927 0 -0.0015204)
(0.871145 0 -0.00592969)
(1.0929 0 0.000495515)
(0.880478 0 -0.00350864)
(0.890986 0 -0.00128765)
(0.114478 0 -0.529467)
(0.0502658 0 -0.597726)
(0.210888 0 -0.45573)
(0.14048 0 -0.538485)
(0.285254 0 -0.360096)
(0.200704 0 -0.428144)
(0.342646 0 -0.27809)
(0.252989 0 -0.329689)
(0.387872 0 -0.214358)
(0.290024 0 -0.25311)
(0.424216 0 -0.166109)
(0.318677 0 -0.195288)
(0.453887 0 -0.13002)
(0.341243 0 -0.151968)
(0.478431 0 -0.103377)
(0.359015 0 -0.119757)
(0.499194 0 -0.0839521)
(0.373037 0 -0.0962516)
(0.517061 0 -0.069917)
(0.384322 0 -0.0791559)
(0.53269 0 -0.059892)
(0.393463 0 -0.0668127)
(0.546564 0 -0.0528271)
(0.400888 0 -0.057982)
(0.559038 0 -0.0479349)
(0.406904 0 -0.0517351)
(0.570389 0 -0.0446143)
(0.411747 0 -0.047388)
(0.580853 0 -0.0423766)
(0.415617 0 -0.0444133)
(0.590635 0 -0.0407868)
(0.418706 0 -0.0423605)
(0.599906 0 -0.0394331)
(0.421209 0 -0.0408043)
(0.60879 0 -0.0379321)
(0.423329 0 -0.0393251)
(0.61734 0 -0.0359694)
(0.425243 0 -0.0375356)
(0.625537 0 -0.0333623)
(0.427056 0 -0.035149)
(0.633294 0 -0.0301153)
(0.428765 0 -0.0320484)
(0.640494 0 -0.026426)
(0.430266 0 -0.0283413)
(0.647069 0 -0.022599)
(0.431352 0 -0.0243345)
(0.653 0 -0.0189584)
(0.431793 0 -0.0203655)
(0.658297 0 -0.0157548)
(0.431484 0 -0.0167344)
(0.663252 0 -0.0129692)
(0.430252 0 -0.0136905)
(0.66795 0 -0.0104228)
(0.428263 0 -0.0109527)
(0.672344 0 -0.00822261)
(0.426392 0 -0.00818672)
(0.676675 0 -0.00589328)
(0.423398 0 -0.00568132)
(0.417189 0 -0.00246749)
(0.0803907 0 -0.614511)
(0.0290314 0 -0.676464)
(0.137361 0 -0.518963)
(0.0851623 0 -0.592966)
(0.175334 0 -0.405499)
(0.101775 0 -0.463601)
(0.201886 0 -0.311602)
(0.121233 0 -0.353896)
(0.221065 0 -0.239874)
(0.127962 0 -0.270182)
(0.235157 0 -0.18597)
(0.131258 0 -0.207535)
(0.24537 0 -0.145644)
(0.131539 0 -0.160635)
(0.252304 0 -0.115857)
(0.129174 0 -0.125502)
(0.256943 0 -0.0940575)
(0.124675 0 -0.100005)
(0.259612 0 -0.0780778)
(0.118758 0 -0.0812642)
(0.260681 0 -0.066464)
(0.111527 0 -0.0676372)
(0.260395 0 -0.0580729)
(0.103353 0 -0.0577668)
(0.258927 0 -0.0520595)
(0.0944152 0 -0.0506557)
(0.256438 0 -0.0477979)
(0.0848594 0 -0.0456013)
(0.253112 0 -0.0447918)
(0.0748291 0 -0.042082)
(0.249159 0 -0.042606)
(0.0644974 0 -0.0396552)
(0.244804 0 -0.0408229)
(0.0540758 0 -0.0378946)
(0.240246 0 -0.0390305)
(0.0437919 0 -0.0363516)
(0.235615 0 -0.0368592)
(0.0338154 0 -0.0345857)
(0.230949 0 -0.0340514)
(0.0241882 0 -0.0322466)
(0.226168 0 -0.0305433)
(0.0148022 0 -0.0291455)
(0.22112 0 -0.0265212)
(0.00544282 0 -0.025348)
(0.215712 0 -0.0223379)
(-0.00416342 0 -0.0212041)
(0.209802 0 -0.0183554)
(-0.0142713 0 -0.0170245)
(0.203005 0 -0.014948)
(-0.0249267 0 -0.0129838)
(0.195481 0 -0.012252)
(-0.0365385 0 -0.00963605)
(0.187127 0 -0.00939718)
(-0.0506538 0 -0.00655719)
(0.176516 0 -0.00549921)
(-0.0647223 0 -0.00273606)
(0.162582 0 -0.00154239)
(-0.0766407 0 0.00130776)
(-0.0889747 0 0.0028097)
(0.0410173 0 -0.66205)
(0.00538014 0 -0.716638)
(0.0544897 0 -0.544601)
(0.0218673 0 -0.605849)
(0.0539931 0 -0.417768)
(-0.00722289 0 -0.463137)
(0.0482496 0 -0.316691)
(-0.0230047 0 -0.34866)
(0.0388347 0 -0.240526)
(-0.0485015 0 -0.261801)
(0.027452 0 -0.183728)
(-0.0735848 0 -0.197643)
(0.0147196 0 -0.141113)
(-0.0987377 0 -0.149831)
(0.000863055 0 -0.109457)
(-0.123788 0 -0.114021)
(-0.0145817 0 -0.0865477)
(-0.148651 0 -0.0875101)
(-0.0305518 0 -0.0700313)
(-0.173042 0 -0.0686499)
(-0.0469448 0 -0.0580233)
(-0.196982 0 -0.0549947)
(-0.0636107 0 -0.0493405)
(-0.220145 0 -0.0452175)
(-0.0804484 0 -0.0431269)
(-0.242453 0 -0.0382763)
(-0.097335 0 -0.0387877)
(-0.263929 0 -0.0334792)
(-0.114101 0 -0.0358616)
(-0.284634 0 -0.0303312)
(-0.130541 0 -0.0339214)
(-0.304595 0 -0.0284044)
(-0.146467 0 -0.03251)
(-0.323794 0 -0.027253)
(-0.161783 0 -0.0311356)
(-0.342199 0 -0.0263593)
(-0.176538 0 -0.0293488)
(-0.359842 0 -0.0251874)
(-0.190923 0 -0.0268449)
(-0.376896 0 -0.0233)
(-0.205235 0 -0.0235586)
(-0.393663 0 -0.0204541)
(-0.219763 0 -0.0197458)
(-0.410482 0 -0.0167346)
(-0.234525 0 -0.0157825)
(-0.427653 0 -0.0126583)
(-0.249409 0 -0.0116872)
(-0.445568 0 -0.00861122)
(-0.264885 0 -0.00727356)
(-0.463312 0 -0.00444269)
(-0.282574 0 -0.00286666)
(-0.479588 0 -0.000104418)
(-0.30179 0 0.00108642)
(-0.495393 0 0.00355254)
(-0.318629 0 0.00423087)
(-0.51045 0 0.00591429)
(-0.329702 0 0.005295)
(-0.52173 0 0.00686163)
(-0.527607 0 0.00619494)
(-0.00683065 0 -0.665448)
(-0.0232129 0 -0.709948)
(-0.0378509 0 -0.527839)
(-0.051524 0 -0.576185)
(-0.0774919 0 -0.39387)
(-0.125985 0 -0.426124)
(-0.118612 0 -0.291352)
(-0.18079 0 -0.311171)
(-0.159753 0 -0.215362)
(-0.239693 0 -0.22518)
(-0.199638 0 -0.159722)
(-0.294735 0 -0.162978)
(-0.237659 0 -0.118581)
(-0.345559 0 -0.117567)
(-0.273774 0 -0.0881808)
(-0.391853 0 -0.0840981)
(-0.30793 0 -0.0661798)
(-0.434156 0 -0.0598785)
(-0.340463 0 -0.0506132)
(-0.473085 0 -0.0429536)
(-0.371087 0 -0.0396975)
(-0.509025 0 -0.031377)
(-0.399712 0 -0.0321217)
(-0.542376 0 -0.0236628)
(-0.426478 0 -0.0269558)
(-0.573056 0 -0.0185977)
(-0.451585 0 -0.0236237)
(-0.601129 0 -0.0154563)
(-0.475253 0 -0.021686)
(-0.627149 0 -0.0137424)
(-0.497684 0 -0.0207181)
(-0.651601 0 -0.0130537)
(-0.519041 0 -0.0202491)
(-0.674854 0 -0.0129831)
(-0.539495 0 -0.0197405)
(-0.697167 0 -0.0130148)
(-0.559299 0 -0.0186517)
(-0.718773 0 -0.0125731)
(-0.578762 0 -0.0165455)
(-0.739998 0 -0.0111946)
(-0.598239 0 -0.0132341)
(-0.761125 0 -0.00862711)
(-0.618133 0 -0.00896618)
(-0.781995 0 -0.00493891)
(-0.638839 0 -0.00444591)
(-0.802082 0 -0.000671181)
(-0.6596 0 -0.000367966)
(-0.820992 0 0.00312342)
(-0.678145 0 0.00310449)
(-0.838183 0 0.00579187)
(-0.692553 0 0.00594128)
(-0.852667 0 0.00765956)
(-0.703606 0 0.00785789)
(-0.863921 0 0.00936755)
(-0.713039 0 0.00865517)
(-0.87371 0 0.01076)
(-0.72135 0 0.00831307)
(-0.882089 0 0.0110301)
(-0.886765 0 0.0100513)
(-0.0571565 0 -0.619589)
(-0.0592138 0 -0.653967)
(-0.138894 0 -0.469864)
(-0.136451 0 -0.498018)
(-0.220886 0 -0.337065)
(-0.25918 0 -0.349567)
(-0.29984 0 -0.238147)
(-0.356739 0 -0.239191)
(-0.37345 0 -0.166701)
(-0.449896 0 -0.159657)
(-0.440437 0 -0.116177)
(-0.534624 0 -0.104759)
(-0.5001 0 -0.0799562)
(-0.610374 0 -0.0669376)
(-0.552963 0 -0.0536374)
(-0.676521 0 -0.0402985)
(-0.599943 0 -0.0349076)
(-0.732033 0 -0.0218734)
(-0.642225 0 -0.0221094)
(-0.779318 0 -0.00955665)
(-0.680788 0 -0.0137436)
(-0.820117 0 -0.00163668)
(-0.715972 0 -0.00869559)
(-0.855954 0 0.00283067)
(-0.747826 0 -0.00601015)
(-0.88796 0 0.00482206)
(-0.776719 0 -0.00483613)
(-0.916971 0 0.00528457)
(-0.803399 0 -0.00459815)
(-0.943786 0 0.00495692)
(-0.828538 0 -0.00490638)
(-0.969015 0 0.00415054)
(-0.852613 0 -0.00533874)
(-0.992999 0 0.00310301)
(-0.875962 0 -0.00536353)
(-1.01586 0 0.00221815)
(-0.898936 0 -0.00448405)
(-1.03765 0 0.00206103)
(-0.92181 0 -0.00250056)
(-1.05855 0 0.00303181)
(-0.944347 0 0.00039061)
(-1.0788 0 0.00505815)
(-0.965548 0 0.00369988)
(-1.09834 0 0.0076315)
(-0.984105 0 0.00673482)
(-1.11665 0 0.0100718)
(-0.999628 0 0.00893035)
(-1.13277 0 0.0118975)
(-1.01277 0 0.0103596)
(-1.14667 0 0.0130466)
(-1.02409 0 0.0115327)
(-1.15861 0 0.0137553)
(-1.03372 0 0.0125921)
(-1.16874 0 0.0144373)
(-1.04197 0 0.0130199)
(-1.17759 0 0.0149967)
(-1.04946 0 0.0124822)
(-1.18488 0 0.0147855)
(-1.18865 0 0.01389)