/*--------------------------------*- C++ -*----------------------------------*\
  =========                 |
  \\      /  F ield         | OpenFOAM: The Open Source CFD Toolbox
   \\    /   O peration     | Website:  https://openfoam.org
    \\  /    A nd           | Version:  dev
     \\/     M anipulation  |
\*---------------------------------------------------------------------------*/
FoamFile
{
    version     2.0;
    format      ascii;
    class       volScalarField;
    location    "8";
    object      p;
}
// * * * * * * * * * * * * * * * * * * * * * * * * * * * * * * * * * * * * * //

dimensions      [0 2 -2 0 0 0 0];

internalField   nonuniform List<scalar> 
2790
(
146.737
146.645
146.912
147.483
148.263
149.22
150.353
151.659
153.136
154.777
156.576
158.527
160.621
162.846
165.187
167.622
170.127
172.666
175.198
177.672
180.03
182.208
184.138
185.759
187.018
187.892
188.328
188.384
188.435
188.647
146.535
146.552
146.845
147.413
148.189
149.143
150.271
151.572
153.041
154.673
156.464
158.404
160.487
162.701
165.031
167.456
169.952
172.486
175.016
177.494
179.862
182.057
184.012
185.66
186.945
187.819
188.216
188.27
188.403
188.688
146.336
146.423
146.735
147.293
148.056
148.997
150.11
151.393
152.84
154.448
156.211
158.12
160.168
162.343
164.632
167.014
169.466
171.957
174.449
176.896
179.246
181.439
183.411
185.101
186.452
187.427
188.02
188.376
188.691
188.99
146.111
146.229
146.553
147.102
147.851
148.776
149.869
151.128
152.547
154.121
155.845
157.71
159.709
161.83
164.058
166.376
168.76
171.183
173.611
176.001
178.308
180.48
182.462
184.201
185.656
186.808
187.676
188.346
188.899
189.418
145.85
145.983
146.315
146.857
147.589
148.493
149.56
150.787
152.169
153.7
155.375
157.184
159.12
161.17
163.322
165.558
167.856
170.191
172.533
174.846
177.091
179.226
181.208
182.999
184.569
185.912
187.042
188.004
188.815
189.562
145.549
145.687
146.022
146.554
147.266
148.144
149.18
150.369
151.706
153.186
154.801
156.544
158.405
160.373
162.434
164.572
166.767
168.996
171.233
173.449
175.611
177.689
179.651
181.471
183.135
184.636
185.982
187.188
188.208
189.126
145.207
145.346
145.677
146.196
146.885
147.733
148.732
149.878
151.163
152.583
154.13
155.796
157.571
159.444
161.401
163.427
165.503
167.609
169.722
171.818
173.873
175.864
177.772
179.582
181.288
182.889
184.383
185.762
186.926
187.973
144.822
144.959
145.283
145.786
146.449
147.263
148.22
149.316
150.544
151.897
153.367
154.947
156.625
158.391
160.231
162.131
164.072
166.036
168.004
169.956
171.873
173.741
175.548
177.29
178.969
180.588
182.143
183.615
184.865
186.015
144.396
144.529
144.843
145.326
145.96
146.736
147.647
148.688
149.851
151.13
152.516
154.001
155.573
157.221
158.932
160.691
162.48
164.284
166.083
167.862
169.606
171.304
172.952
174.552
176.114
177.649
179.158
180.628
181.9
183.138
143.929
144.057
144.358
144.818
145.421
146.156
147.017
147.997
149.091
150.29
151.584
152.966
154.423
155.943
157.513
159.116
160.738
162.36
163.966
165.54
167.069
168.543
169.961
171.33
172.663
173.982
175.302
176.64
177.841
179.145
143.424
143.546
143.831
144.266
144.834
145.525
146.332
147.249
148.268
149.38
150.578
151.849
153.182
154.565
155.982
157.418
158.856
160.277
161.664
162.999
164.267
165.457
166.564
167.592
168.557
169.486
170.417
171.416
172.379
173.697
142.882
142.996
143.264
143.673
144.204
144.847
145.597
146.446
147.386
148.409
149.503
150.657
151.86
153.097
154.353
155.609
156.848
158.049
159.191
160.253
161.215
162.057
162.766
163.332
163.759
164.07
164.314
164.623
165.005
166.179
142.305
142.412
142.661
143.041
143.533
144.127
144.817
145.595
146.453
147.38
148.367
149.4
150.467
151.551
152.636
153.703
154.73
155.693
156.569
157.328
157.941
158.376
158.598
158.574
158.271
157.675
156.802
155.812
154.866
155.373
141.696
141.794
142.024
142.374
142.825
143.367
143.995
144.7
145.473
146.302
147.178
148.086
149.011
149.938
150.846
151.715
152.521
153.235
153.826
154.258
154.488
154.465
154.127
153.395
152.174
150.346
147.786
144.489
140.547
138.516
141.056
141.146
141.356
141.674
142.083
142.573
143.137
143.766
144.451
145.181
145.943
146.723
147.504
148.27
148.998
149.664
150.242
150.698
150.994
151.084
150.911
150.401
149.456
147.942
145.664
142.334
137.495
130.486
120.038
107.838
0.656704
0.63691
0.567995
0.472605
0.373827
0.283712
0.207011
0.145029
0.0973298
0.0622614
0.0383992
0.023323
0.0146945
0.0106601
0.00970157
0.0105252
0.0120598
0.0134928
0.0142714
0.0140936
0.0129042
0.0108736
0.00833225
0.00569729
0.00334764
0.00152408
0.000279334
-0.000444927
-0.000746618
-0.000712534
0.608566
0.586214
0.521382
0.433444
0.342418
0.258906
0.187408
0.129451
0.0850559
0.0535209
0.0322645
0.0189657
0.0116849
0.00872567
0.00863647
0.0101419
0.0121658
0.0139031
0.0148162
0.0146274
0.0133218
0.0111239
0.00840243
0.00562491
0.00320456
0.00137911
0.000162907
-0.000525672
-0.000789059
-0.000480025
0.554764
0.528067
0.46581
0.38488
0.302182
0.226284
0.161205
0.108563
0.0684671
0.0398315
0.0213353
0.0106373
0.00570946
0.0048229
0.00655844
0.00960759
0.0128505
0.0154355
0.0167973
0.0166674
0.0150951
0.0124353
0.00920372
0.00595158
0.00321634
0.00128338
4.92956e-05
-0.000605243
-0.000804063
-0.000349241
0.502156
0.471023
0.410496
0.335535
0.260566
0.19196
0.133214
0.0859516
0.0504173
0.0256724
0.00982226
0.00149519
-0.00119269
6.83175e-05
0.00379223
0.00853777
0.0131135
0.0166292
0.018482
0.0184123
0.0165671
0.0133915
0.00947282
0.00571282
0.00264862
0.000652221
-0.000499473
-0.00108573
-0.00124545
-0.000892883
0.464188
0.428882
0.369909
0.299221
0.229878
0.166448
0.112207
0.0687954
0.0366062
0.0148138
0.00145219
-0.00505912
-0.0069009
-0.00438047
0.000801888
0.00690577
0.0126222
0.0169903
0.0193276
0.0193284
0.0171758
0.013433
0.00920685
0.00530682
0.00236718
0.000426656
-0.000584903
-0.00107031
-0.00121673
-0.00102638
0.453119
0.412687
0.354786
0.285614
0.218417
0.1567
0.103883
0.0616503
0.0305417
0.00961162
-0.00388942
-0.0109278
-0.0113283
-0.0079093
-0.00189344
0.00503303
0.0115948
0.0167701
0.0196711
0.0199277
0.0178018
0.0138623
0.00914204
0.00474129
0.0014427
-0.000486682
-0.00129448
-0.00159772
-0.0017269
-0.00121995
0.479725
0.431501
0.372427
0.300441
0.230268
0.165787
0.110562
0.0664111
0.0339599
0.0123927
-0.000830163
-0.00940276
-0.0126446
-0.00997035
-0.00417538
0.00273425
0.00942331
0.0148149
0.0180213
0.0186439
0.016827
0.0131733
0.00863622
0.00432701
0.00108979
-0.00078148
-0.00160399
-0.00205602
-0.00240995
-0.00145274
0.548468
0.491392
0.423358
0.342619
0.263831
0.192316
0.131558
0.0830605
0.0468546
0.0214283
0.00400974
-0.00660606
-0.0107984
-0.00981806
-0.00541387
0.000597286
0.00679792
0.0120628
0.0154798
0.01651
0.0151073
0.0117532
0.0073762
0.00312249
-5.58274e-05
-0.00180758
-0.00254677
-0.00309673
-0.0034886
-0.00172869
0.659935
0.58475
0.498166
0.401475
0.309115
0.227026
0.158544
0.104403
0.0631037
0.0324505
0.011362
-0.00157104
-0.00776562
-0.00865029
-0.00596365
-0.00137043
0.00382637
0.00859272
0.0120171
0.0133767
0.0123488
0.00921437
0.00489733
0.000702708
-0.00225284
-0.00362751
-0.0040412
-0.00446976
-0.00461949
-0.00201
0.797576
0.691472
0.575792
0.457927
0.351071
0.258547
0.181205
0.120011
0.07397
0.0407239
0.0175046
0.00272304
-0.00506449
-0.00749281
-0.00641599
-0.00341425
0.000482186
0.00453863
0.00791278
0.00960396
0.00884761
0.0056393
0.00098357
-0.00342649
-0.00610732
-0.00673699
-0.00633635
-0.00617373
-0.00571602
-0.00227935
0.929587
0.781101
0.637946
0.495756
0.371965
0.270626
0.190025
0.127045
0.0794242
0.0446911
0.0202285
0.00439701
-0.00415872
-0.00733819
-0.00739459
-0.00595554
-0.00356495
-0.000312678
0.00316849
0.00542622
0.00494716
0.00127474
-0.00437742
-0.00954846
-0.0120173
-0.0114355
-0.00952643
-0.00816017
-0.00674247
-0.00252888
1.03963
0.836533
0.6554
0.49607
0.364826
0.260935
0.180505
0.119325
0.0740958
0.041138
0.0174176
0.00183215
-0.00621315
-0.00882202
-0.00916356
-0.0092067
-0.00865782
-0.00632356
-0.00234249
0.00106551
0.00106896
-0.0035537
-0.0112003
-0.0180459
-0.0204942
-0.0180368
-0.0136192
-0.0103184
-0.00766875
-0.00275249
1.06776
0.795897
0.587454
0.425142
0.303195
0.213078
0.144499
0.0924087
0.0552199
0.0284854
0.00795001
-0.00621513
-0.0122844
-0.0123363
-0.0116061
-0.0131332
-0.0151918
-0.0140902
-0.00889319
-0.00316662
-0.00211648
-0.00828805
-0.0194251
-0.0294221
-0.0322503
-0.0269344
-0.0185209
-0.012422
-0.0084571
-0.00294579
0.849893
0.501835
0.348347
0.248366
0.169483
0.119309
0.0799132
0.0451616
0.0221557
0.00711328
-0.00797043
-0.0207215
-0.0234905
-0.0177897
-0.013626
-0.0168996
-0.0233636
-0.0244379
-0.0169182
-0.00676236
-0.00352265
-0.0120214
-0.0288947
-0.0443863
-0.0483493
-0.0386903
-0.0239718
-0.0140038
-0.00903257
-0.00310619
0.180245
-0.237344
-0.16526
-0.0559709
-0.0477572
-0.0134512
-0.000744006
-0.0205278
-0.0289155
-0.0234263
-0.0288401
-0.0417841
-0.0406697
-0.0244122
-0.0129529
-0.019214
-0.0341273
-0.0396255
-0.0279129
-0.00937523
-0.00166756
-0.0134482
-0.039344
-0.0639491
-0.070411
-0.0541811
-0.0294471
-0.0141403
-0.00921996
-0.00323244
140.377
140.458
140.647
140.931
141.296
141.731
142.229
142.781
143.376
144.002
144.647
145.295
145.929
146.528
147.071
147.53
147.874
148.065
148.059
147.798
147.212
146.203
144.639
142.325
138.964
134.059
126.692
114.95
92.8147
33.1249
139.65
139.721
139.887
140.137
140.456
140.834
141.263
141.734
142.236
142.756
143.28
143.792
144.274
144.703
145.056
145.303
145.409
145.332
145.022
144.412
143.418
141.928
139.782
136.749
132.471
126.364
117.397
103.835
84.3137
55.8472
138.881
138.942
139.085
139.298
139.57
139.889
140.247
140.635
141.042
141.453
141.854
142.229
142.557
142.815
142.978
143.013
142.883
142.543
141.937
140.994
139.623
137.703
135.07
131.493
126.646
120.076
111.189
99.3465
85.0928
68.4269
138.07
138.121
138.24
138.417
138.64
138.899
139.185
139.489
139.799
140.1
140.378
140.615
140.789
140.878
140.853
140.681
140.324
139.732
138.85
137.604
135.902
133.628
130.628
126.708
121.619
115.067
106.756
96.3502
83.7851
68.6186
137.22
137.261
137.355
137.495
137.669
137.867
138.081
138.3
138.513
138.705
138.86
138.96
138.983
138.906
138.7
138.33
137.757
136.933
135.801
134.29
132.315
129.768
126.522
122.418
117.278
110.899
103.083
93.5833
82.233
69.2376
136.334
136.364
136.434
136.535
136.659
136.797
136.938
137.073
137.189
137.273
137.307
137.274
137.151
136.915
136.535
135.98
135.208
134.175
132.825
131.094
128.904
126.164
122.769
118.6
113.526
107.412
100.134
91.5943
81.7809
71.1063
135.413
135.432
135.477
135.542
135.616
135.693
135.762
135.814
135.836
135.813
135.731
135.569
135.306
134.918
134.378
133.651
132.701
131.485
129.952
128.045
125.697
122.833
119.373
115.228
110.311
104.544
97.87
90.279
81.8135
72.8094
134.46
134.47
134.49
134.517
134.543
134.56
134.559
134.529
134.459
134.334
134.139
133.854
133.46
132.931
132.243
131.363
130.257
128.886
127.204
125.164
122.709
119.783
116.323
112.27
107.571
102.186
96.1009
89.3352
81.9387
74.1839
133.481
133.48
133.476
133.467
133.445
133.403
133.333
133.225
133.067
132.844
132.541
132.142
131.625
130.968
130.146
129.132
127.892
126.394
124.598
122.463
119.948
117.006
113.597
109.682
105.231
100.23
94.6856
88.6305
82.119
75.3787
132.478
132.467
132.44
132.394
132.326
132.228
132.092
131.909
131.666
131.351
130.948
130.442
129.813
129.041
128.102
126.971
125.621
124.022
122.142
119.949
117.409
114.492
111.169
107.418
103.227
98.5955
93.5422
88.1062
82.3405
76.4303
131.456
131.435
131.386
131.306
131.193
131.041
130.842
130.587
130.265
129.864
129.369
128.765
128.036
127.161
126.121
124.893
123.454
121.779
119.843
117.62
115.087
112.223
109.009
105.437
101.504
97.2203
92.6093
87.7102
82.5713
77.3408
130.42
130.39
130.319
130.206
130.051
129.848
129.59
129.268
128.872
128.391
127.812
127.121
126.302
125.339
124.213
122.907
121.399
119.671
117.702
115.474
112.971
110.179
107.089
103.7
100.017
96.0545
91.8373
87.402
82.7907
78.1226
129.375
129.337
129.245
129.101
128.906
128.655
128.342
127.958
127.494
126.941
126.286
125.518
124.621
123.583
122.387
121.018
119.46
117.697
115.716
113.502
111.046
108.34
105.382
102.175
98.7276
95.0574
91.1888
87.1541
82.9894
78.7909
128.328
128.281
128.171
127.998
127.765
127.469
127.105
126.664
126.14
125.521
124.799
123.963
123.001
121.9
120.648
119.232
117.639
115.859
113.881
111.697
109.3
106.688
103.863
100.831
97.603
94.1971
90.6359
86.9477
83.1628
79.3592
127.284
127.23
127.101
126.901
126.634
126.298
125.887
125.395
124.815
124.139
123.359
122.465
121.447
120.295
119
117.55
115.938
114.154
112.192
110.047
107.717
105.203
102.509
99.6428
96.6172
93.4487
90.1581
86.7697
83.3091
79.8396
126.25
126.188
126.043
125.819
125.521
125.147
124.694
124.156
123.528
122.802
121.972
121.029
119.966
118.774
117.447
115.976
114.354
112.578
110.641
108.544
106.286
103.869
101.301
98.5902
95.7487
92.7924
89.7395
86.6111
83.4284
80.2432
125.232
125.164
125.004
124.757
124.431
124.024
123.534
122.956
122.285
121.516
120.643
119.66
118.561
117.34
115.99
114.507
112.887
111.126
109.222
107.177
104.992
102.671
100.223
97.655
94.9804
92.2129
89.3687
86.4658
83.522
80.5799
124.237
124.163
123.99
123.724
123.372
122.936
122.413
121.8
121.092
120.287
119.379
118.364
117.238
115.995
114.632
113.145
111.533
109.794
107.928
105.937
103.824
101.596
99.259
96.8227
94.2982
91.6983
89.0371
86.33
83.592
80.8583
123.273
123.194
123.009
122.725
122.351
121.889
121.338
120.694
119.957
119.121
118.185
117.145
115.998
114.741
113.371
111.888
110.289
108.577
106.751
104.815
102.773
100.632
98.3982
96.0812
93.6911
91.2394
88.7385
86.2014
83.6411
81.0864
122.346
122.263
122.068
121.768
121.375
120.891
120.315
119.647
118.883
118.023
117.065
116.006
114.845
113.58
112.21
110.734
109.154
107.47
105.685
103.803
101.829
99.7691
97.6301
95.4207
93.1504
90.8293
88.4685
86.079
83.672
81.2713
121.465
121.378
121.174
120.861
120.451
119.948
119.352
118.662
117.878
116.999
116.024
114.951
113.781
112.513
111.146
109.682
108.123
106.469
104.726
102.896
100.985
98.9997
96.9465
94.8335
92.6693
90.463
88.2242
85.9626
83.6877
81.4195
120.638
120.547
120.335
120.01
119.586
119.067
118.454
117.748
116.947
116.053
115.065
113.983
112.809
111.541
110.182
108.732
107.194
105.572
103.868
102.087
100.235
98.3173
96.3412
94.3138
92.2429
90.1369
88.004
85.8528
83.6915
81.5369
119.871
119.777
119.558
119.224
118.788
118.256
117.629
116.909
116.095
115.19
114.193
113.106
111.93
110.666
109.316
107.881
106.366
104.773
103.107
101.372
99.5729
97.7164
95.8087
93.8566
91.8673
89.8482
87.8066
85.7502
83.6862
81.6285
119.174
119.078
118.853
118.51
118.063
117.52
116.883
116.151
115.328
114.414
113.412
112.322
111.147
109.889
108.549
107.131
105.638
104.073
102.441
100.747
98.9963
97.1939
95.3462
93.4596
91.5407
89.5962
87.6328
85.6571
83.6757
81.7002
118.555
118.456
118.226
117.875
117.42
116.868
116.221
115.481
114.651
113.732
112.726
111.636
110.463
109.211
107.883
106.48
105.007
103.469
101.868
100.211
98.5014
96.7459
94.9499
93.1194
91.2604
89.379
87.4814
85.5735
83.6612
81.7542
118.023
117.922
117.685
117.327
116.865
116.306
115.653
114.907
114.071
113.148
112.141
111.051
109.883
108.638
107.32
105.932
104.478
102.962
101.389
99.7627
98.0893
96.3737
94.6213
92.8378
91.0287
89.1999
87.3568
85.505
83.6499
81.7997
117.589
117.483
117.24
116.874
116.405
115.84
115.181
114.43
113.591
112.665
111.658
110.57
109.405
108.167
106.859
105.484
104.046
102.549
100.999
99.3993
97.7554
96.0723
94.3552
92.6095
90.8405
89.0536
87.2539
85.4465
83.6363
81.8302
117.263
117.152
116.899
116.527
116.053
115.483
114.82
114.066
113.224
112.297
111.29
110.204
109.043
107.811
106.51
105.146
103.721
102.24
100.708
99.1295
97.5088
95.8512
94.1618
92.4456
90.7078
88.9534
87.1874
85.4145
83.6396
81.8686
117.061
116.926
116.656
116.278
115.802
115.23
114.564
113.808
112.965
112.039
111.032
109.948
108.791
107.563
106.269
104.912
103.497
102.027
100.508
98.943
97.3381
95.6977
94.0267
92.3301
90.6129
88.8798
87.1356
85.385
83.6323
81.8825
117.043
116.844
116.546
116.161
115.682
115.107
114.438
113.68
112.836
111.91
110.904
109.822
108.667
107.443
106.154
104.802
103.394
101.932
100.421
98.8659
97.2713
95.642
93.9828
92.2986
90.5942
88.8744
87.1437
85.4067
83.6676
81.9307
-50.5125
-30.2513
-11.1511
35.4625
27.9837
15.8791
50.8933
38.7829
27.5415
52.327
41.8926
33.8349
56.6703
48.3724
41.6045
61.0604
54.1437
48.2448
64.3386
58.4514
53.3971
66.9401
61.9108
57.5979
69.1337
64.7981
61.0865
70.9859
67.2046
63.9756
72.5436
69.2115
66.3731
73.8565
70.8927
68.3733
74.9649
72.3063
70.0495
75.9013
73.4976
71.4594
76.6921
74.5034
72.6487
77.3592
75.3533
73.6539
77.9209
76.0711
74.5039
78.3925
76.6768
75.2226
78.7868
77.1866
75.8294
79.115
77.6145
76.3405
79.3866
77.9721
76.7696
79.6103
78.2698
77.1286
79.7927
78.5157
77.4268
79.942
78.7189
77.6742
80.0605
78.8827
77.8752
80.1602
79.0198
78.0423
80.2323
79.1217
78.169
80.3053
79.2176
78.2821
80.3396
79.2681
78.3467
80.4087
79.3514
78.4364
-2.97819
-2.89088
-1.43445
-0.29466
-0.257594
-0.158402
-0.098303
-0.12683
-0.109987
-0.0478622
-0.0356493
-0.0636121
-0.0680871
-0.0359644
-0.00768456
-0.0179691
-0.0480935
-0.0619627
-0.0427129
-0.00865807
0.00745428
-0.00956792
-0.0500276
-0.0897934
-0.101427
-0.0752608
-0.0341211
-0.0110236
-0.00853135
-0.00332775
2.09994
-0.786344
0.80694
0.283625
-1.07693
-0.825308
-0.172249
-0.144641
-0.123791
-0.0222473
-0.0428085
-0.131961
-0.148115
-0.0597641
0.0237396
0.00389311
-0.0604336
-0.0963817
-0.0685824
-0.00666992
0.025521
0.00021599
-0.0628516
-0.126418
-0.147166
-0.105429
-0.0363075
-0.000813802
-0.00548963
-0.0034105
13.2642
4.90293
2.08506
-0.368631
-0.675441
0.847618
1.00875
-0.374171
-0.733788
-0.364433
-0.0218487
-0.121003
-0.152492
0.0111673
0.107133
0.0284134
-0.106628
-0.181573
-0.127895
0.00241569
0.0726534
0.0314827
-0.0672318
-0.168513
-0.207749
-0.14673
-0.0327657
0.023516
0.00342945
-0.00356274
23.0601
13.1666
7.27738
3.50779
1.79821
1.28285
0.0420261
-0.633755
-0.218835
0.951935
0.811142
-0.279062
-0.653292
-0.420884
0.0928883
0.130836
-0.104126
-0.239278
-0.146057
0.0741403
0.156752
0.0693906
-0.087172
-0.247211
-0.319615
-0.231776
-0.022831
0.07235
0.0245019
-0.00405454
32.2437
22.4638
15.1366
9.84812
6.22175
3.75557
1.88283
0.894871
0.645256
0.619549
0.0977726
-0.499962
-0.545122
0.467107
0.983411
0.333027
-0.254623
-0.573662
-0.506753
-0.0436926
0.247666
0.147179
-0.0802019
-0.307744
-0.413899
-0.253545
0.0176424
0.160978
0.0652772
-0.00563636
40.2334
31.2955
23.4007
16.9667
12.0433
8.40494
5.739
3.86285
2.59433
1.67939
0.910211
0.322055
0.127392
0.441104
0.441742
0.16922
-0.296225
-0.583718
-0.294918
0.50603
0.675407
0.21484
-0.128679
-0.448605
-0.674087
-0.595392
-0.0141793
0.28894
0.129542
-0.0107294
46.7547
38.9393
31.1548
24.2597
18.6352
14.1809
10.6629
7.91182
5.81863
4.24617
3.028
2.07729
1.45644
1.15585
0.894232
0.546883
0.0746291
-0.218489
-0.0889613
0.271624
0.405962
0.223548
-0.101298
-0.475861
-0.722917
-0.424244
0.363069
0.554437
0.207003
-0.0237402
52.066
45.3268
38.0615
31.2267
25.343
20.3998
16.2623
12.8428
10.0765
7.8653
6.08121
4.6454
3.55754
2.78696
2.18064
1.58441
0.997525
0.595355
0.493108
0.577123
0.592974
0.384391
0.0207257
-0.34658
-0.535105
-0.312484
0.160344
0.396879
0.304344
-0.064196
56.3987
50.5759
43.9855
37.5076
31.6881
26.5772
22.1099
18.2513
14.9721
12.2163
9.90862
7.9924
6.43895
5.20438
4.18643
3.28579
2.49685
1.89628
1.53467
1.34254
1.14619
0.821074
0.411353
0.0430543
-0.146667
-0.0475207
0.235245
0.391707
0.261022
-0.303082
59.9347
54.8627
48.9554
42.9669
37.4115
32.3671
27.8044
23.7193
20.1134
16.9681
14.247
11.9121
9.93134
8.26414
6.84681
5.61912
4.56276
3.70042
3.04626
2.5506
2.10434
1.62657
1.13423
0.706968
0.43496
0.37276
0.444476
0.432482
0.172547
-0.517984
62.8389
58.3764
53.0929
47.622
42.4246
37.5841
33.0878
28.9472
25.1834
21.802
18.7914
16.1315
13.7995
11.7671
9.99551
8.44572
7.09605
5.94501
4.98833
4.18982
3.48301
2.81431
2.18272
1.6317
1.21469
0.954736
0.791289
0.575357
0.17097
-0.593024
65.2447
61.2789
56.5385
51.5578
46.7425
42.1715
37.8379
33.7589
29.9643
26.4729
23.2885
20.4053
17.8126
15.4939
13.4266
11.5859
9.95314
8.51855
7.2708
6.18322
5.21381
4.32582
3.51052
2.7875
2.18345
1.70276
1.29753
0.866227
0.306914
-0.522343
67.2516
63.6948
59.4183
54.8783
50.4319
46.1497
42.0258
38.0773
34.336
30.8267
27.562
24.5461
21.7772
19.249
16.9498
14.8652
12.982
11.2894
9.7754
8.42015
7.1961
6.07769
5.05377
4.12935
3.31349
2.60058
1.95329
1.30224
0.576272
-0.331537
68.9351
65.7187
61.8363
57.6833
53.5758
49.576
45.6767
41.8925
38.254
34.7874
31.5099
28.4311
25.556
22.8849
20.4141
18.1367
16.0447
14.1297
12.3816
10.7861
9.32465
7.97928
6.7387
5.59996
4.56202
3.61469
2.72905
1.85779
0.953804
-0.0565191
70.3532
67.4223
63.8755
60.0591
56.2553
52.519
48.8411
45.2328
41.7219
38.334
35.0878
31.996
29.0671
26.3063
23.7151
21.2918
19.0329
16.9331
14.9854
13.1799
11.504
9.94473
8.49193
7.13905
5.88005
4.70327
3.5863
2.49672
1.40407
0.262788
71.5511
68.8614
65.601
62.0764
58.5417
55.0452
51.5762
48.1426
44.7687
41.4784
38.2903
35.2183
32.2729
29.4621
26.7908
24.2609
21.8724
19.623
17.5086
15.5228
13.6573
11.9026
10.25
8.69197
7.22049
5.82406
4.48504
3.18064
1.89059
0.590909
72.5644
70.0794
67.0644
63.7927
60.4947
57.2136
53.937
50.67
47.4333
44.2486
41.1334
38.1018
35.1651
32.3328
29.6118
27.0066
24.5195
22.1509
19.899
17.7604
15.7295
13.7997
11.9638
10.2145
8.54351
6.94001
5.38972
3.87563
2.38281
0.902277
73.4219
71.1113
68.3068
65.2543
62.164
59.0746
55.9728
52.8608
49.7561
46.6782
43.6429
40.6637
37.7522
34.9183
32.1701
29.5136
26.953
24.4903
22.126
19.8586
17.6849
15.6003
13.599
11.6745
9.81885
8.02225
6.2725
4.5557
2.85896
1.18248
74.1471
71.9852
69.3618
66.4992
63.5905
60.6708
57.726
54.7559
51.7753
48.801
45.8476
42.9272
40.0511
37.2292
34.4701
31.7807
29.1662
26.6302
24.1745
21.7993
19.5029
17.2825
15.1336
13.0503
11.0256
9.05043
7.11379
5.2032
3.30583
1.42652
74.7593
72.7243
70.2566
67.5585
64.8082
62.0379
59.2329
56.3913
53.5251
50.649
47.7758
44.9165
42.0817
39.2808
36.5225
33.814
31.1612
28.5687
26.0391
23.574
21.173
18.8343
16.5545
14.3288
12.1505
10.0114
7.90114
5.80753
3.71695
1.63571
75.2747
73.3479
71.014
68.458
65.8454
63.2059
60.5246
57.7979
55.0357
52.2507
49.4539
46.6553
43.8643
41.0899
38.3404
35.6232
32.9443
30.3087
27.72
25.1804
22.6905
20.2495
17.8547
15.502
13.1855
10.8972
8.62709
6.36292
4.08997
1.81421
75.707
73.8723
71.653
69.2195
66.7259
64.2002
61.6275
59.0027
56.3338
53.6317
50.9061
48.1656
45.4188
42.6737
39.9383
37.2197
34.5239
31.8563
29.2207
26.6199
24.0551
21.5261
19.031
16.5663
14.1263
11.7035
9.28788
6.867
4.42514
1.96696
76.0676
74.3107
72.1892
69.8605
67.4693
65.0419
62.5634
60.0279
57.4416
54.8139
52.1532
49.4669
46.7626
44.0477
41.3294
38.6145
35.9089
33.2177
30.5453
27.8945
25.2671
22.6633
20.0816
17.5188
14.9698
12.4271
9.88083
7.31815
4.7227
2.09735
76.3672
74.6758
72.637
70.3972
68.0932
65.7499
63.3524
60.8941
58.3798
55.8177
53.2149
50.5779
47.9132
45.2277
42.5277
39.8196
37.1092
34.4013
31.7003
29.0093
26.33
23.6632
21.0075
18.3601
15.7161
13.0681
10.4062
7.71739
4.98481
2.20912
76.6121
74.9751
73.0053
70.8401
68.6093
66.3367
64.0077
61.615
59.1624
56.6568
54.1045
51.5111
48.8822
46.2238
43.542
40.8424
38.1305
35.4111
32.6882
29.965
27.2434
24.5242
21.8063
19.0871
16.3617
13.6228
10.8606
8.06179
5.20943
2.30186
76.8141
75.2213
73.3082
71.2043
69.0337
66.8194
64.5471
62.209
59.8079
57.3499
54.8404
52.2842
49.6864
47.0523
44.3873
41.6966
38.9854
36.2582
33.5188
30.7704
28.0149
25.253
22.484
19.7051
16.9115
14.0962
11.249
8.3567
5.40215
2.38068
76.97
75.4121
73.5438
71.4886
69.3657
67.1979
64.9708
62.6764
60.3167
57.8971
55.4223
52.8967
50.3246
47.7108
45.0603
42.3779
39.6684
36.936
34.1844
31.4167
28.6347
25.8392
23.0294
20.2026
17.354
14.4765
11.5601
8.59129
5.55309
2.43858
77.1021
75.5698
73.7357
71.7173
69.6306
67.4978
65.305
63.0438
60.7157
58.3254
55.8773
53.3751
50.823
48.2251
45.5862
42.9106
40.2029
37.4671
34.7068
31.9248
29.123
26.302
23.4612
20.5977
17.7069
14.7814
11.8112
8.78263
5.67849
2.48808
77.1833
75.6673
73.8554
71.8621
69.7998
67.6905
65.5206
63.2816
60.9746
58.6041
56.1739
53.6877
51.149
48.562
45.931
43.2603
40.554
37.8162
35.0502
32.2588
29.4438
26.6059
23.7442
20.856
17.9365
14.9783
11.9711
8.90104
5.75075
2.508
77.2724
75.7574
73.9578
71.9794
69.9309
67.8341
65.6764
63.4491
61.1531
58.7926
56.3715
53.893
51.3608
48.7787
46.151
43.4818
40.7752
38.0352
35.2651
32.4676
29.6445
26.7964
23.9226
21.0202
18.0845
15.108
12.0799
8.98547
5.80494
2.5144
)
;

boundaryField
{
    inlet
    {
        type            zeroGradient;
    }
    outlet
    {
        type            fixedValue;
        value           uniform 0;
    }
    flap
    {
        type            zeroGradient;
    }
    upperWall
    {
        type            zeroGradient;
    }
    lowerWall
    {
        type            zeroGradient;
    }
    frontAndBack
    {
        type            empty;
    }
}


// ************************************************************************* //
