/*--------------------------------*- C++ -*----------------------------------*\
  =========                 |
  \\      /  F ield         | OpenFOAM: The Open Source CFD Toolbox
   \\    /   O peration     | Website:  https://openfoam.org
    \\  /    A nd           | Version:  dev
     \\/     M anipulation  |
\*---------------------------------------------------------------------------*/
FoamFile
{
    version     2.0;
    format      ascii;
    class       surfaceScalarField;
    location    "8";
    object      phi;
}
// * * * * * * * * * * * * * * * * * * * * * * * * * * * * * * * * * * * * * //

dimensions      [0 3 -1 0 0 0 0];

internalField   nonuniform List<scalar> 
5457
(
0.198418
0.00158237
0.19648
0.00193735
0.194192
0.00228806
0.191509
0.00268356
0.188427
0.00308117
0.184951
0.00347674
0.181072
0.00387855
0.176778
0.00429399
0.17205
0.00472821
0.166865
0.00518522
0.161196
0.00566851
0.155015
0.00618105
0.14829
0.006725
0.140989
0.00730139
0.133079
0.00790956
0.124533
0.00854652
0.115327
0.00920597
0.10545
0.00987726
0.0949054
0.0105442
0.0837218
0.0111836
0.0719571
0.0117647
0.0597087
0.0122483
0.04712
0.0125887
0.0343799
0.0127402
0.0216849
0.012695
0.00903477
0.0126501
-0.00291798
0.0119528
-0.00847285
0.00555487
-0.00804327
-0.000429576
-0.00804327
0.199928
0.00165421
0.199176
0.00268978
0.197965
0.00349898
0.196332
0.00431671
0.194272
0.0051412
0.191782
0.00596679
0.188855
0.00680551
0.185478
0.00767084
0.181633
0.00857311
0.177297
0.00952063
0.172445
0.0105206
0.167047
0.0115794
0.16107
0.0127018
0.154481
0.0138904
0.147246
0.0151447
0.139333
0.0164597
0.130715
0.017824
0.121375
0.0192175
0.11131
0.0206091
0.10054
0.0219535
0.0891151
0.0231892
0.0771274
0.024236
0.0647214
0.0249947
0.052114
0.0253476
0.0396537
0.0251552
0.0281039
0.0241999
0.0185934
0.0214633
0.00879557
0.0153527
0.00118269
0.0071833
-0.00686058
0.199781
0.00187364
0.199087
0.00338361
0.197946
0.0046399
0.196409
0.00585331
0.194483
0.00706731
0.192164
0.00828581
0.189447
0.00952293
0.186321
0.0107963
0.182773
0.012121
0.178784
0.0135095
0.174332
0.0149728
0.169391
0.0165205
0.163933
0.0181604
0.157925
0.0198976
0.151337
0.021733
0.144135
0.0236616
0.13629
0.0256696
0.127776
0.0277315
0.118579
0.0298061
0.108701
0.0318316
0.0981686
0.0337212
0.0870462
0.0353584
0.0754494
0.0365915
0.0635723
0.0372248
0.0517305
0.036997
0.0403955
0.035535
0.0297374
0.0321214
0.0191649
0.0259252
0.00959693
0.0167513
0.00273635
0.199703
0.00217057
0.199008
0.00407891
0.197887
0.00576041
0.196376
0.0073642
0.194488
0.0089554
0.192222
0.0105518
0.189575
0.0121706
0.186539
0.0138323
0.183104
0.0155555
0.179258
0.017356
0.174983
0.0192478
0.17026
0.0212432
0.165068
0.0233522
0.159384
0.0255819
0.153182
0.0279348
0.146437
0.0304068
0.139122
0.0329841
0.131215
0.035639
0.122696
0.0383254
0.113555
0.0409726
0.103798
0.0434782
0.0934549
0.0457011
0.0825936
0.0474528
0.0713308
0.0484876
0.0598389
0.0484889
0.0483151
0.0470588
0.0368094
0.0436271
0.0251868
0.0375478
0.013335
0.028603
0.0160713
0.199667
0.00250315
0.198964
0.00478216
0.197863
0.00686171
0.196381
0.00884586
0.194532
0.0108042
0.192318
0.0127664
0.189734
0.0147544
0.186775
0.0167909
0.183434
0.0188971
0.179698
0.0210917
0.175555
0.0233908
0.17099
0.0258083
0.165986
0.028356
0.160526
0.0310422
0.15459
0.0338705
0.14816
0.0368375
0.141214
0.03993
0.133732
0.0431206
0.125695
0.0463624
0.117085
0.0495821
0.107892
0.0526719
0.0981126
0.0554803
0.0877625
0.0578028
0.0768764
0.0593736
0.0655065
0.0598588
0.0537059
0.0588594
0.0414522
0.0558808
0.0285864
0.0504136
0.0148517
0.0423378
0.030923
0.199653
0.00285035
0.198949
0.00548621
0.197871
0.00793963
0.196427
0.01029
0.194627
0.0126041
0.192473
0.0149199
0.189964
0.017264
0.187093
0.0196617
0.183853
0.0221364
0.180236
0.024709
0.17623
0.0273973
0.171821
0.030217
0.166996
0.0331808
0.16174
0.0362982
0.156037
0.0395735
0.14987
0.0430042
0.143222
0.0465784
0.136073
0.0502702
0.1284
0.0540349
0.12018
0.057802
0.111386
0.0614665
0.101987
0.0648793
0.0919522
0.0678372
0.0812513
0.0700745
0.0698514
0.0712586
0.0577143
0.0709966
0.0447584
0.0688366
0.0308475
0.0643246
0.0158723
0.057313
0.0467953
0.19965
0.00320028
0.198954
0.00618218
0.197904
0.00898924
0.196505
0.0116897
0.194763
0.0143463
0.192681
0.0170019
0.190257
0.0196876
0.187487
0.0224313
0.184365
0.0252585
0.180882
0.0281919
0.177028
0.0312513
0.172792
0.0344536
0.16816
0.037813
0.163118
0.0413399
0.157652
0.0450398
0.151744
0.0489119
0.145376
0.0529461
0.138527
0.0571199
0.131168
0.0613934
0.123267
0.0657031
0.11478
0.0699535
0.105652
0.0740074
0.0958136
0.0776753
0.0851829
0.0807053
0.0736649
0.0827766
0.0611583
0.0835032
0.0475524
0.0824424
0.0327565
0.0791205
0.0167818
0.0732878
0.063577
0.199655
0.00354563
0.198975
0.00686228
0.197959
0.010005
0.19661
0.0130384
0.194934
0.0160224
0.192934
0.0190024
0.190608
0.0220137
0.187952
0.0250865
0.184962
0.0282484
0.18163
0.031524
0.177947
0.0349347
0.173901
0.038499
0.169482
0.0422326
0.164674
0.0461474
0.159463
0.0502508
0.153831
0.0545444
0.147755
0.0590215
0.141211
0.0636649
0.134162
0.068442
0.126565
0.0733003
0.118359
0.0781591
0.109466
0.0829007
0.0997829
0.0873585
0.0891833
0.0913048
0.077521
0.0944389
0.0646434
0.0963808
0.0504139
0.0966719
0.0347654
0.0947689
0.0177883
0.0902649
0.0813654
0.199664
0.00388145
0.199006
0.00752007
0.19803
0.0109812
0.196739
0.0143298
0.195137
0.0176244
0.193227
0.0209122
0.191009
0.0242315
0.188481
0.0276151
0.185637
0.0310924
0.182471
0.0346897
0.178976
0.0384301
0.175141
0.0423339
0.170955
0.0464185
0.166404
0.0506978
0.161473
0.055182
0.156142
0.0598759
0.150385
0.064778
0.144172
0.0698781
0.13746
0.0751539
0.130193
0.0805672
0.122295
0.0860573
0.113663
0.0915324
0.104164
0.0968575
0.0936291
0.10184
0.0818596
0.106208
0.0686443
0.109596
0.0537973
0.111519
0.0372329
0.111333
0.0190814
0.108416
0.100447
0.199677
0.00420422
0.199047
0.0081503
0.198116
0.0119125
0.196887
0.0155581
0.195367
0.0191452
0.193556
0.0227228
0.191456
0.0263313
0.189065
0.0300058
0.18638
0.0337776
0.183395
0.0376745
0.180104
0.0417213
0.176498
0.0459401
0.172566
0.0503501
0.168296
0.054968
0.163671
0.0598069
0.158671
0.0648763
0.153268
0.0701809
0.147427
0.0757193
0.141099
0.081482
0.134218
0.0874484
0.126693
0.0935823
0.118401
0.099824
0.109179
0.10608
0.0988137
0.112205
0.0870462
0.117976
0.0735833
0.123059
0.0581423
0.12696
0.0405469
0.128929
0.0208985
0.128065
0.121345
0.199693
0.00451128
0.199095
0.00874866
0.198213
0.0127941
0.197053
0.0167177
0.19562
0.0205786
0.193916
0.0244265
0.191943
0.0283042
0.1897
0.0322486
0.187185
0.0362925
0.184395
0.0404654
0.181322
0.0447934
0.177962
0.0493006
0.174304
0.0540081
0.170337
0.0589353
0.166044
0.0640991
0.161407
0.0695138
0.156396
0.0751914
0.150975
0.0811407
0.145091
0.0873664
0.138671
0.0938682
0.131615
0.100638
0.123785
0.107654
0.11499
0.114875
0.104976
0.122219
0.0934112
0.129541
0.0798896
0.136581
0.0639596
0.14289
0.0452277
0.147661
0.0236074
0.149685
0.144953
0.199711
0.00480058
0.199148
0.00931166
0.19832
0.0136216
0.197234
0.0178039
0.195894
0.0219187
0.194303
0.0260169
0.192465
0.0301427
0.190379
0.0343347
0.188044
0.0386272
0.185459
0.0430509
0.182619
0.0476334
0.179519
0.0524002
0.176152
0.0573748
0.172509
0.0625789
0.168575
0.0680331
0.164331
0.0737572
0.159753
0.0797702
0.154802
0.0860915
0.149428
0.0927407
0.143557
0.0997388
0.137087
0.107107
0.129873
0.114868
0.121709
0.123039
0.112307
0.131622
0.101264
0.140584
0.0880344
0.14981
0.0719116
0.159013
0.0520759
0.167496
0.0278789
0.173882
0.172832
0.19973
0.0050705
0.199205
0.00983641
0.198435
0.0143916
0.197427
0.0188126
0.196185
0.0231607
0.194714
0.027488
0.193016
0.03184
0.191094
0.0362566
0.188949
0.040773
0.186578
0.0454212
0.183982
0.0502299
0.181156
0.0552261
0.178096
0.0604347
0.174795
0.0658801
0.171242
0.0715862
0.167422
0.0775774
0.163312
0.0838797
0.158882
0.090522
0.154084
0.097538
0.148854
0.104969
0.143097
0.112865
0.136674
0.121291
0.129385
0.130328
0.120933
0.140074
0.110871
0.150645
0.098529
0.162152
0.0828852
0.174657
0.0624197
0.187962
0.0351133
0.201189
0.207945
0.199751
0.00531978
0.199266
0.0103206
0.198557
0.015101
0.19763
0.01974
0.19649
0.0243005
0.195143
0.0288352
0.193592
0.0333908
0.19184
0.0380079
0.18989
0.0427229
0.187743
0.0475683
0.185399
0.0525739
0.182858
0.0577673
0.180118
0.0631752
0.177174
0.0688236
0.174021
0.074739
0.170649
0.0809496
0.167042
0.087487
0.163176
0.0943879
0.159017
0.101697
0.154513
0.109472
0.14959
0.117788
0.144137
0.126744
0.137985
0.13648
0.130875
0.147184
0.122393
0.159128
0.111842
0.172702
0.097995
0.188504
0.0785117
0.207445
0.0486421
0.231058
0.256587
0.199772
0.00554747
0.19933
0.0107625
0.198684
0.0157474
0.197841
0.0205836
0.196806
0.0253348
0.195587
0.0300548
0.194187
0.0347908
0.19261
0.0395841
0.190862
0.0444716
0.188944
0.0494863
0.186859
0.0546583
0.184611
0.060016
0.182199
0.0655867
0.179625
0.0713975
0.176888
0.0774767
0.173982
0.0838548
0.170903
0.0905667
0.167636
0.0976542
0.164164
0.105169
0.160457
0.113179
0.156471
0.121774
0.15214
0.131075
0.147364
0.141256
0.141984
0.152565
0.135735
0.165376
0.128148
0.180289
0.118281
0.198371
0.103882
0.221844
0.0776434
0.257297
0.33423
0.00382723
-0.00382723
0.00747938
-0.00365215
0.0104875
-0.00300813
0.0128235
-0.00233602
0.0145568
-0.00173323
0.0157665
-0.0012097
0.0165254
-0.000758975
0.0169014
-0.00037597
0.0169665
-6.50952e-05
0.0167711
0.000195362
0.0163897
0.000381441
0.0158774
0.000512286
0.0152817
0.000595669
0.014646
0.000635759
0.0140087
0.000637319
0.0134024
0.000606274
0.012852
0.000550399
0.0123736
0.000478424
0.011974
0.00039959
0.0116513
0.000322648
0.0113968
0.000254509
0.0111974
0.000199392
0.0110382
0.000159208
0.0109044
0.000133826
0.0107835
0.000120872
0.0106665
0.000116987
0.0105477
0.000118851
0.010424
0.000123637
0.0102967
0.000127338
0.000106269
0.00354368
-0.00737091
0.00695246
-0.00706093
0.00982683
-0.00588249
0.0121505
-0.00465966
0.0139917
-0.00357442
0.0154224
-0.00264046
0.0165064
-0.00184297
0.0172983
-0.00116781
0.0178357
-0.000602563
0.0181638
-0.000132688
0.0182978
0.000247433
0.0182801
0.000530019
0.0181591
0.000716627
0.017977
0.000817817
0.0177723
0.000842061
0.0175775
0.000801105
0.017417
0.000710885
0.0173066
0.00058877
0.017253
0.000453182
0.0172541
0.000321549
0.0173011
0.000207561
0.0173808
0.000119649
0.0174784
6.16818e-05
0.0175796
3.25976e-05
0.0176746
2.59046e-05
0.0177573
3.41993e-05
0.0178255
5.06663e-05
0.0178788
7.03607e-05
0.0179177
8.84917e-05
9.53222e-05
0.00300303
-0.0103739
0.00580198
-0.00985988
0.00812895
-0.00820947
0.0100099
-0.00654063
0.0115145
-0.00507898
0.0127015
-0.00382748
0.0136207
-0.00276218
0.0143156
-0.0018627
0.01483
-0.00111693
0.0152134
-0.000516101
0.0154986
-3.77715e-05
0.0156777
0.000350865
0.015778
0.00061634
0.0158262
0.000769597
0.015849
0.000819264
0.0158683
0.000781797
0.0159005
0.000678753
0.0159554
0.000533884
0.016036
0.000372515
0.0161385
0.000219092
0.0162521
9.39477e-05
0.0163603
1.1443e-05
0.0164551
-3.30576e-05
0.0165366
-4.89604e-05
0.0166098
-4.72517e-05
0.0166809
-3.69378e-05
0.0167551
-2.35089e-05
0.0168324
-7.00124e-06
0.0169032
1.77257e-05
5.67496e-05
0.00240701
-0.012781
0.00448492
-0.0119378
0.00614217
-0.00986672
0.00747075
-0.00786921
0.00853909
-0.00614732
0.00939012
-0.00467851
0.0100574
-0.00342949
0.0105676
-0.00237291
0.0109485
-0.00149778
0.0112357
-0.000803317
0.0114705
-0.000272587
0.0116693
0.000152114
0.0118096
0.000476011
0.0119071
0.000672097
0.0119811
0.000745305
0.0120427
0.000720197
0.012099
0.000622362
0.012154
0.00047892
0.0122071
0.000319397
0.0122545
0.000171759
0.0122902
5.82355e-05
0.0123104
-8.79242e-06
0.0123084
-3.10782e-05
0.0122873
-2.78141e-05
0.0122486
-8.62388e-06
0.012194
1.7729e-05
0.012132
3.84928e-05
0.0120668
5.82289e-05
0.0119992
8.52601e-05
0.000119212
0.00171479
-0.0144957
0.00298788
-0.0132109
0.00390134
-0.0107802
0.00461137
-0.00857924
0.00517749
-0.00671344
0.00562946
-0.00513048
0.00598883
-0.00378886
0.00626711
-0.00265119
0.00647647
-0.00170714
0.00663928
-0.000966125
0.00678584
-0.00041915
0.00694689
-8.93111e-06
0.00704676
0.00037614
0.00710415
0.000614706
0.00712443
0.000725032
0.00711108
0.000733542
0.00706717
0.000666278
0.00699539
0.000550693
0.0068984
0.000416392
0.00677924
0.000290918
0.00664344
0.000194035
0.00648946
0.00014519
0.00630734
0.000151039
0.00607552
0.000204005
0.00579034
0.000276558
0.00546971
0.00033836
0.00513343
0.000374776
0.00480087
0.000390781
0.00449359
0.000392547
0.000346592
0.000924811
-0.0154205
0.0013054
-0.0135915
0.00142307
-0.0108979
0.0014628
-0.00861896
0.00145626
-0.0067069
0.00143268
-0.0051069
0.00140594
-0.00376212
0.00138405
-0.00262929
0.001373
-0.00169609
0.00139376
-0.000986884
0.00143319
-0.000458583
0.00138845
3.58086e-05
0.00131361
0.000450975
0.00117436
0.000753963
0.000977027
0.000922362
0.000711524
0.000999045
0.00037032
0.00100748
-4.05537e-05
0.000961566
-0.000499822
0.00087566
-0.00098362
0.000774716
-0.00147094
0.00068136
-0.00193818
0.000612423
-0.00236144
0.000574306
-0.00272539
0.000567951
-0.00303412
0.000585288
-0.00330739
0.00061163
-0.00356516
0.000632544
-0.0038138
0.000639423
-0.00403705
0.000615796
0.000539169
-4.67717e-05
-0.0153738
-0.000566627
-0.0130716
-0.00126848
-0.010196
-0.00197126
-0.00791619
-0.00263896
-0.0060392
-0.00324102
-0.00450484
-0.00376148
-0.00324165
-0.00420152
-0.00218926
-0.00459736
-0.00130024
-0.00503114
-0.000553103
-0.00553614
4.64141e-05
-0.00597568
0.000475346
-0.00629717
0.00077247
-0.00657695
0.00103374
-0.00687913
0.00122455
-0.00721777
0.00133768
-0.00759079
0.0013805
-0.00799206
0.00136284
-0.00841569
0.00129929
-0.00885253
0.00121156
-0.00929104
0.00111987
-0.00971597
0.00103735
-0.0101098
0.000968123
-0.0104544
0.000912545
-0.0107398
0.00087071
-0.0109706
0.000842392
-0.0111616
0.00082362
-0.011326
0.00080376
-0.0114711
0.000760919
0.000698521
-0.00102429
-0.0143495
-0.00257348
-0.0115224
-0.0041621
-0.00860738
-0.00569642
-0.00638186
-0.00710598
-0.00462964
-0.00837271
-0.00323811
-0.00948939
-0.00212497
-0.0104593
-0.00121938
-0.0112996
-0.000459961
-0.0119973
0.000144681
-0.0125211
0.000570158
-0.0129267
0.000880937
-0.0132998
0.00114555
-0.0136373
0.00137133
-0.0139594
0.00154661
-0.0142829
0.00166122
-0.0146143
0.0017119
-0.014955
0.00170348
-0.0153061
0.00165039
-0.0156679
0.00157337
-0.0160377
0.00148966
-0.0164062
0.0014059
-0.0167571
0.00131898
-0.0170698
0.00122531
-0.0173284
0.00112923
-0.0175289
0.00104292
-0.0176814
0.000976147
-0.0178024
0.000924694
-0.0179133
0.000871824
0.000828131
-0.00215702
-0.0121925
-0.00474622
-0.00893322
-0.00730594
-0.00604766
-0.00966495
-0.00402285
-0.0117412
-0.00255343
-0.0135243
-0.00145498
-0.0150268
-0.000622452
-0.0162661
1.98863e-05
-0.0172191
0.000493086
-0.0179161
0.000841617
-0.0184666
0.00112074
-0.0189398
0.00135409
-0.0193481
0.00155391
-0.0197048
0.00172803
-0.0200293
0.00187102
-0.0203382
0.00197013
-0.0206405
0.00201422
-0.0209401
0.0020031
-0.0212411
0.00195135
-0.0215488
0.00188113
-0.0218669
0.00180772
-0.0221912
0.00173017
-0.0225069
0.00163474
-0.0227919
0.00151026
-0.023026
0.00136331
-0.0232021
0.00121905
-0.0233293
0.00110332
-0.0234263
0.00102179
-0.0235182
0.000963652
0.00093596
-0.00350207
-0.0086904
-0.00725104
-0.00518424
-0.0108178
-0.0024809
-0.0139496
-0.000891067
-0.0165766
7.3569e-05
-0.0186595
0.000627907
-0.0202458
0.000963897
-0.0214277
0.00120176
-0.0223289
0.0013943
-0.0230563
0.00156896
-0.023658
0.00172245
-0.0241601
0.00185621
-0.0245814
0.00197526
-0.0249409
0.00208751
-0.0252607
0.00219086
-0.025559
0.00226835
-0.0258438
0.00229904
-0.0261172
0.00227649
-0.026383
0.00221716
-0.0266506
0.0021487
-0.0269299
0.00208707
-0.0272224
0.00202266
-0.0275146
0.00192697
-0.027781
0.00177662
-0.0279962
0.00157856
-0.0281507
0.00137345
-0.0282553
0.00120793
-0.0283332
0.00109976
-0.0284091
0.00103951
0.00102402
-0.00540109
-0.00328931
-0.010927
0.000341709
-0.0153307
0.00192273
-0.0187159
0.00249419
-0.0212523
0.00260993
-0.023181
0.00255665
-0.0246937
0.0024766
-0.0258902
0.00239827
-0.0268395
0.0023436
-0.0275979
0.00232732
-0.028216
0.00234054
-0.0287239
0.00236413
-0.0291407
0.00239209
-0.0294889
0.00243566
-0.0297962
0.00249818
-0.0300839
0.00255599
-0.0303573
0.00257253
-0.0306125
0.00253166
-0.0308501
0.00245471
-0.0310833
0.00238199
-0.0313309
0.00233464
-0.031601
0.00229274
-0.0318807
0.00220671
-0.0321385
0.00203439
-0.0323406
0.00178068
-0.0324737
0.00150656
-0.0325538
0.00128806
-0.0326117
0.00115763
-0.0326715
0.00109926
0.00109322
-0.00791031
0.004621
-0.0143654
0.0067968
-0.019058
0.00661536
-0.0225733
0.00600947
-0.0252278
0.00526439
-0.0272378
0.00456669
-0.0287756
0.00401441
-0.0299686
0.00359131
-0.0308975
0.00327246
-0.0316318
0.00306161
-0.0322303
0.002939
-0.0327217
0.00285557
-0.033117
0.00278738
-0.033438
0.00275666
-0.0337219
0.00278204
-0.0339967
0.0028308
-0.0342633
0.00283914
-0.0345054
0.00277381
-0.0347165
0.00266579
-0.034915
0.00258046
-0.0351323
0.00255197
-0.0353865
0.00254694
-0.0356646
0.00248473
-0.0359247
0.00229448
-0.0361194
0.00197543
-0.0362293
0.00161649
-0.036279
0.0013377
-0.0363126
0.00119126
-0.0363556
0.00114228
0.00114465
-0.00988315
0.0145042
-0.0176048
0.0145184
-0.0229684
0.0119789
-0.0266657
0.00970681
-0.0293021
0.00790075
-0.0311984
0.00646306
-0.0326168
0.00543273
-0.0337147
0.00468923
-0.0345538
0.0041116
-0.0352062
0.003714
-0.0357484
0.00348122
-0.0362057
0.00331285
-0.0365649
0.00314652
-0.0368395
0.00303128
-0.0370841
0.00302668
-0.0373424
0.00308909
-0.0376081
0.00310486
-0.0378429
0.00300856
-0.0380254
0.00284833
-0.0381817
0.00273675
-0.0383645
0.00273482
-0.0386071
0.00278953
-0.0388951
0.00277269
-0.0391707
0.0025701
-0.0393649
0.0021696
-0.0394472
0.0016988
-0.0394553
0.00134583
-0.0394576
0.00119352
-0.0394845
0.00116917
0.00118095
-0.0131189
0.027623
-0.0226337
0.0240332
-0.0280159
0.0173612
-0.031272
0.0129629
-0.0335859
0.0102147
-0.0351186
0.00799574
-0.0362255
0.00653963
-0.0371342
0.00559792
-0.037822
0.00479945
-0.0383314
0.00422337
-0.0387813
0.00393117
-0.0391985
0.00373004
-0.039513
0.00346103
-0.0397146
0.00323284
-0.039894
0.0032061
-0.0401304
0.00332549
-0.0404069
0.00338135
-0.0406444
0.00324604
-0.0407932
0.00299718
-0.040891
0.00283452
-0.0410277
0.0028715
-0.0412611
0.0030229
-0.041573
0.00308465
-0.0418814
0.00287852
-0.042084
0.00237218
-0.0421309
0.00174573
-0.0420789
0.00129378
-0.0420382
0.00115277
-0.0420527
0.00118371
0.00120974
-0.0186785
0.0463015
-0.0302169
0.0355716
-0.0349105
0.0220547
-0.0364828
0.0145352
-0.0381443
0.0118761
-0.0389413
0.00879278
-0.0394607
0.00705902
-0.0401677
0.00630496
-0.0407194
0.00535115
-0.0410064
0.00451038
-0.0413041
0.00422885
-0.041685
0.00411095
-0.0419572
0.00373324
-0.0420499
0.00332555
-0.0421214
0.0032775
-0.042332
0.00353612
-0.042645
0.0036944
-0.0429062
0.00350725
-0.0430119
0.00310288
-0.043019
0.00284157
-0.043085
0.00293754
-0.0433089
0.00324675
-0.0436624
0.00343818
-0.0440266
0.00324271
-0.0442501
0.00259568
-0.0442493
0.00174497
-0.044106
0.00115043
-0.0440025
0.00104934
-0.0440146
0.00119574
0.00125087
0.207447
0.00576022
0.207034
0.0111751
0.206432
0.0163499
0.205647
0.021368
0.204688
0.026294
0.203561
0.0311822
0.202271
0.0360802
0.200826
0.0410298
0.19923
0.0460678
0.197488
0.0512275
0.195608
0.056539
0.193593
0.0620307
0.19145
0.0677301
0.189183
0.0736644
0.186797
0.0798622
0.184297
0.0863549
0.181685
0.0931784
0.178964
0.100376
0.176133
0.108
0.17319
0.116122
0.170132
0.124832
0.166953
0.134254
0.163648
0.144561
0.160218
0.155994
0.156686
0.168908
0.153144
0.183832
0.149954
0.201561
0.148789
0.223009
0.160418
0.245668
0.258884
0.235764
0.21249
0.00595262
0.212118
0.0115479
0.211574
0.0168935
0.210868
0.0220738
0.210008
0.0271544
0.209
0.0321896
0.207853
0.0372272
0.206574
0.0423088
0.205171
0.0474713
0.203651
0.0527474
0.202023
0.0581669
0.200296
0.0637575
0.19848
0.069546
0.196586
0.0755589
0.194624
0.0818238
0.192609
0.0883707
0.190553
0.0952337
0.188475
0.102453
0.186397
0.110079
0.184346
0.118173
0.182362
0.126816
0.180507
0.13611
0.178879
0.146189
0.177649
0.157224
0.177139
0.169419
0.178
0.182971
0.181646
0.197915
0.190674
0.213981
0.206089
0.230252
0.245812
0.219161
0.217658
0.00612254
0.217329
0.0118769
0.21685
0.0173721
0.21623
0.0226934
0.215478
0.0279067
0.214602
0.0330662
0.21361
0.0382193
0.212511
0.0434074
0.211316
0.0486665
0.210034
0.0540288
0.208678
0.0595229
0.20726
0.0651754
0.205795
0.0710115
0.204298
0.0770558
0.202788
0.0833334
0.201288
0.0898713
0.199822
0.0966992
0.198425
0.103851
0.197137
0.111367
0.196014
0.119296
0.195135
0.127694
0.194613
0.136632
0.194618
0.146184
0.195412
0.15643
0.197406
0.167425
0.20121
0.179167
0.207594
0.191531
0.217219
0.204356
0.229813
0.217659
0.228865
0.24676
0.222951
0.00626798
0.22267
0.0121581
0.222262
0.0177802
0.221736
0.0232197
0.2211
0.0285421
0.220365
0.0338016
0.219539
0.0390448
0.218634
0.0443122
0.217662
0.049639
0.216635
0.0550559
0.215567
0.0605901
0.214477
0.0662663
0.213381
0.0721073
0.212302
0.0781349
0.211265
0.0843705
0.2103
0.0908362
0.209444
0.097555
0.208743
0.104552
0.208254
0.111855
0.208056
0.119494
0.20825
0.127501
0.208976
0.135905
0.210428
0.144732
0.212869
0.153989
0.216645
0.163648
0.222177
0.173635
0.229914
0.183794
0.24043
0.19384
0.254644
0.203445
0.210358
0.273151
0.228374
0.00638708
0.228144
0.0123881
0.227812
0.0181127
0.227386
0.0236459
0.226875
0.0290528
0.22629
0.0343866
0.225641
0.0396932
0.224942
0.0450118
0.224205
0.0503762
0.223445
0.0558153
0.222681
0.0613544
0.221932
0.0670157
0.22122
0.072819
0.220573
0.0787823
0.220021
0.0849226
0.219601
0.0912556
0.21936
0.0977967
0.219351
0.104561
0.219645
0.111561
0.22033
0.118809
0.221519
0.126312
0.223356
0.134068
0.226027
0.142062
0.229762
0.150254
0.234842
0.158569
0.241595
0.166881
0.250402
0.174987
0.261709
0.182533
0.27599
0.189163
0.193793
0.292556
0.233929
0.00647815
0.233754
0.0125635
0.233502
0.0183648
0.233182
0.0239661
0.232803
0.0294315
0.232376
0.0348131
0.231914
0.0401554
0.23143
0.0454962
0.230939
0.0508675
0.230458
0.0562961
0.230007
0.061805
0.22961
0.0674133
0.229291
0.0731374
0.229083
0.078991
0.229019
0.0849857
0.229144
0.0911309
0.229507
0.0974335
0.23017
0.103898
0.231207
0.110524
0.23271
0.117306
0.23479
0.124232
0.237583
0.131275
0.241254
0.138391
0.245995
0.145513
0.252026
0.152538
0.259591
0.159317
0.268931
0.165647
0.280227
0.171237
0.293576
0.175815
0.178866
0.308503
0.23962
0.00653971
0.239502
0.0126816
0.239334
0.0185326
0.239125
0.0241752
0.238884
0.0296721
0.238623
0.035074
0.238355
0.0404239
0.238094
0.0457575
0.237856
0.051105
0.237662
0.0564907
0.237532
0.0619348
0.237492
0.0674534
0.23757
0.0730589
0.2378
0.0787607
0.238221
0.0845649
0.238878
0.0904741
0.239824
0.0964875
0.241122
0.1026
0.242847
0.108799
0.245086
0.115067
0.247942
0.121376
0.251535
0.127681
0.256001
0.133925
0.26149
0.140025
0.268157
0.14587
0.276153
0.15132
0.285599
0.156201
0.296542
0.160295
0.308969
0.163387
0.16521
0.322625
0.245448
0.00657049
0.24539
0.0127398
0.24531
0.0186124
0.245217
0.0242687
0.245119
0.0297695
0.245029
0.035164
0.24496
0.0404929
0.244928
0.0457901
0.244949
0.0510834
0.245045
0.0563946
0.245239
0.061741
0.245557
0.0671352
0.24603
0.072586
0.246693
0.0780983
0.247585
0.0836728
0.248753
0.0893064
0.250249
0.094991
0.252136
0.100713
0.254482
0.106453
0.257368
0.112181
0.260883
0.117861
0.265125
0.123439
0.2702
0.12885
0.276213
0.134011
0.283266
0.138818
0.291439
0.143147
0.30078
0.14686
0.311278
0.149797
0.322866
0.151799
0.152735
0.335341
0.251418
0.00656947
0.251422
0.0127363
0.251432
0.0186016
0.251458
0.0242433
0.251507
0.0297202
0.251592
0.035079
0.251726
0.0403587
0.251926
0.0455907
0.252209
0.0508003
0.252597
0.0560068
0.253113
0.0612244
0.253786
0.0664626
0.254645
0.0717265
0.255727
0.0770167
0.25707
0.0823295
0.25872
0.0876564
0.260727
0.092984
0.263148
0.0982926
0.266045
0.103556
0.269486
0.10874
0.273546
0.113801
0.2783
0.118685
0.283823
0.123327
0.290186
0.127648
0.297445
0.131559
0.305634
0.134959
0.314755
0.137739
0.324762
0.13979
0.335557
0.141004
0.141323
0.346968
0.257532
0.00653592
0.257599
0.0126696
0.257702
0.0184983
0.257849
0.0240969
0.258047
0.0295215
0.25831
0.034817
0.258649
0.0400195
0.259081
0.0451583
0.259625
0.0502561
0.260302
0.0553296
0.261137
0.0603901
0.262155
0.0654441
0.263389
0.0704932
0.264871
0.0755345
0.26664
0.0805606
0.268737
0.0855589
0.271209
0.0905117
0.274106
0.0953957
0.277481
0.100181
0.28139
0.104831
0.285889
0.109302
0.291034
0.11354
0.296875
0.117486
0.303451
0.121072
0.310787
0.124223
0.318886
0.12686
0.327719
0.128905
0.337224
0.130285
0.347295
0.130933
0.130829
0.35779
0.263794
0.00646935
0.263925
0.0125388
0.264122
0.0183013
0.264391
0.0238281
0.26474
0.0291727
0.265179
0.0343772
0.265723
0.0394756
0.266387
0.0444945
0.267189
0.0494542
0.26815
0.0543687
0.269293
0.0592467
0.270645
0.0640919
0.272235
0.0689033
0.274095
0.0736749
0.276259
0.0783963
0.278766
0.0830523
0.281655
0.0876226
0.284969
0.0920819
0.288751
0.0963992
0.293044
0.100538
0.297889
0.104456
0.303324
0.108106
0.309375
0.111435
0.316062
0.114385
0.323385
0.1169
0.331325
0.11892
0.33984
0.12039
0.34886
0.121265
0.358285
0.121507
0.121117
0.367997
0.270207
0.00636959
0.270402
0.0123437
0.270693
0.0180103
0.271084
0.0234369
0.271583
0.028674
0.272199
0.033761
0.272945
0.0387293
0.273837
0.0436032
0.27489
0.0484003
0.276127
0.0531324
0.277568
0.0578059
0.279237
0.0624221
0.281163
0.0669775
0.283374
0.0714642
0.2859
0.0758698
0.288775
0.0801774
0.292032
0.0843656
0.295705
0.0884089
0.299828
0.0922769
0.30443
0.0959354
0.30954
0.0993461
0.315179
0.102467
0.321358
0.105256
0.328078
0.107665
0.335325
0.109653
0.343068
0.111176
0.351258
0.112201
0.359825
0.112699
0.368679
0.112653
0.112075
0.377721
0.276774
0.00623674
0.277033
0.0120845
0.277417
0.0176259
0.27793
0.0229243
0.278577
0.0280272
0.279367
0.0329711
0.280311
0.0377848
0.281424
0.0424902
0.282722
0.0471028
0.284222
0.051632
0.285945
0.0560823
0.287914
0.0604531
0.290153
0.0647392
0.292686
0.0689313
0.29554
0.0730159
0.298741
0.0769756
0.302318
0.0807891
0.306295
0.0844318
0.310696
0.0878755
0.315542
0.0910895
0.320848
0.0940404
0.326622
0.0966937
0.332863
0.0990141
0.339561
0.100967
0.346692
0.102522
0.354219
0.10365
0.36209
0.10433
0.37024
0.104549
0.378591
0.104302
0.103607
0.387059
0.283498
0.00607119
0.283821
0.011762
0.284297
0.0171494
0.284929
0.0222924
0.285721
0.0272353
0.28668
0.0320117
0.287817
0.036648
0.289144
0.0411636
0.290675
0.045572
0.292426
0.0498808
0.294416
0.0540927
0.296663
0.0582056
0.299189
0.0622135
0.302014
0.0661062
0.30516
0.0698699
0.308648
0.0734876
0.312498
0.076939
0.316728
0.0802015
0.321354
0.08325
0.326385
0.0860577
0.331829
0.0885969
0.337683
0.0908397
0.343938
0.0927592
0.350575
0.0943303
0.357565
0.0955316
0.364869
0.096346
0.372435
0.0967626
0.380206
0.0967776
0.388114
0.0963944
0.0956335
0.396087
0.290384
0.00587358
0.290768
0.0113775
0.291335
0.0165828
0.292083
0.0215442
0.293016
0.0263024
0.294139
0.0308885
0.295461
0.0353262
0.296992
0.0396329
0.298744
0.04382
0.300731
0.0478936
0.302969
0.0518552
0.305473
0.0557017
0.30826
0.0594264
0.311347
0.0630191
0.31475
0.0664664
0.318485
0.0697523
0.322566
0.0728583
0.327004
0.0757642
0.331805
0.0784484
0.336974
0.0808887
0.342508
0.0830626
0.348399
0.0849487
0.354632
0.0865271
0.361181
0.0877807
0.368017
0.0886961
0.375099
0.0892641
0.38238
0.0894812
0.389808
0.0893499
0.397324
0.0888783
0.0880878
0.40487
0.297435
0.00564476
0.297879
0.0109326
0.298533
0.0159288
0.299394
0.0206833
0.300463
0.0252337
0.301743
0.0296082
0.303241
0.0338281
0.304965
0.0379088
0.306925
0.04186
0.309132
0.0456866
0.311599
0.049389
0.314336
0.0529638
0.317359
0.0564039
0.320678
0.0596997
0.324306
0.0628386
0.328252
0.065806
0.332525
0.0685858
0.337129
0.0711605
0.342065
0.0735122
0.347331
0.0756228
0.352918
0.0774752
0.358813
0.0790535
0.364997
0.0803438
0.371442
0.0813353
0.378117
0.0820207
0.384985
0.0823968
0.392001
0.082465
0.399119
0.0822317
0.406289
0.0817078
0.080914
0.413463
0.304654
0.00538581
0.305157
0.0104296
0.305895
0.0151906
0.306864
0.0197144
0.308063
0.0240352
0.309492
0.0281785
0.311157
0.0321632
0.313063
0.036003
0.315217
0.0397062
0.317627
0.0432765
0.320302
0.0467138
0.323252
0.0500143
0.326484
0.0531715
0.330008
0.0561762
0.333829
0.0590172
0.337953
0.0616817
0.342383
0.064156
0.347118
0.0664255
0.352154
0.0684759
0.357484
0.070293
0.363095
0.0718643
0.36897
0.0731785
0.375087
0.0742269
0.381419
0.0750034
0.387934
0.0755054
0.394597
0.0757337
0.401369
0.075693
0.408209
0.0753921
0.415074
0.0748429
0.0740651
0.421923
0.312046
0.00509794
0.312605
0.00987081
0.313424
0.0143719
0.314496
0.0186425
0.315817
0.0227134
0.317388
0.0266075
0.31921
0.0303417
0.321285
0.0339278
0.323618
0.0373729
0.326215
0.04068
0.32908
0.0438486
0.332219
0.0468749
0.335638
0.049753
0.339339
0.0524747
0.343326
0.0550303
0.347599
0.0574088
0.352156
0.0595989
0.356993
0.061589
0.362101
0.0633679
0.367469
0.0649251
0.373081
0.0662518
0.378919
0.0673408
0.384958
0.0681872
0.391173
0.0687886
0.397533
0.0691457
0.404005
0.069262
0.410554
0.0691442
0.417143
0.0688022
0.423738
0.0682483
0.0675007
0.430302
0.319615
0.00478248
0.320227
0.00925881
0.321122
0.0134766
0.322292
0.0174729
0.32373
0.0212753
0.325434
0.024904
0.327401
0.028374
0.329634
0.0316955
0.332132
0.0348746
0.334898
0.0379136
0.337935
0.0408119
0.341244
0.0435661
0.344826
0.0461709
0.348682
0.0486191
0.352809
0.0509026
0.357206
0.0530125
0.361865
0.0549397
0.366779
0.0566751
0.371936
0.0582105
0.377322
0.0595386
0.382921
0.0606536
0.38871
0.0615513
0.394667
0.06223
0.400766
0.0626899
0.406978
0.0629338
0.413273
0.0629671
0.41962
0.0627976
0.425986
0.0624354
0.432342
0.0618925
0.0611855
0.438657
0.327365
0.00444078
0.328027
0.00859632
0.328995
0.0125088
0.330257
0.0162112
0.331804
0.0197278
0.333632
0.0230765
0.335736
0.0262704
0.338113
0.0293182
0.340762
0.032225
0.343683
0.0349929
0.346874
0.0376211
0.350334
0.0401066
0.354059
0.0424449
0.358048
0.0446301
0.362295
0.0466556
0.366794
0.0485142
0.371535
0.0501989
0.376507
0.051703
0.381697
0.0530208
0.387088
0.0541474
0.392662
0.0550796
0.398398
0.0558156
0.404272
0.0563558
0.410259
0.0567023
0.416334
0.0568594
0.422468
0.0568333
0.428633
0.0566322
0.434802