/*--------------------------------*- C++ -*----------------------------------*\
  =========                 |
  \\      /  F ield         | OpenFOAM: The Open Source CFD Toolbox
   \\    /   O peration     | Website:  https://openfoam.org
    \\  /    A nd           | Version:  dev
     \\/     M anipulation  |
\*---------------------------------------------------------------------------*/
FoamFile
{
    version     2.0;
    format      ascii;
    class       volVectorField;
    location    "8";
    object      U;
}
// * * * * * * * * * * * * * * * * * * * * * * * * * * * * * * * * * * * * * //

dimensions      [0 1 -1 0 0 0 0];

internalField   nonuniform List<vector> 
2790
(
(9.94399 0 0.0205233)
(9.87572 0 0.0295878)
(9.77521 0 0.0359897)
(9.64943 0 0.0425565)
(9.50409 0 0.049386)
(9.34006 0 0.0564291)
(9.15654 0 0.0638169)
(8.95261 0 0.0717129)
(8.72745 0 0.080257)
(8.48006 0 0.0895758)
(8.20925 0 0.0997963)
(7.91362 0 0.111049)
(7.59164 0 0.123465)
(7.24173 0 0.13717)
(6.86227 0 0.152279)
(6.45172 0 0.168878)
(6.00879 0 0.187006)
(5.53258 0 0.206628)
(5.02286 0 0.2276)
(4.48032 0 0.249621)
(3.90702 0 0.272185)
(3.30669 0 0.294533)
(2.68515 0 0.315626)
(2.05048 0 0.334292)
(1.41167 0 0.350608)
(0.797925 0 0.372887)
(0.110555 0 0.325001)
(-0.469572 0 -0.114888)
(-0.453795 0 -0.297131)
(-0.231165 0 -0.42385)
(9.9985 0 0.0407032)
(9.98145 0 0.0623832)
(9.93574 0 0.0791408)
(9.86416 0 0.0966258)
(9.77097 0 0.115125)
(9.65715 0 0.13449)
(9.52205 0 0.154977)
(9.36484 0 0.176947)
(9.1847 0 0.200712)
(8.98065 0 0.226555)
(8.7515 0 0.254752)
(8.49586 0 0.28557)
(8.21216 0 0.319261)
(7.89877 0 0.356036)
(7.55398 0 0.396035)
(7.17612 0 0.43928)
(6.7637 0 0.485611)
(6.31557 0 0.534607)
(5.83115 0 0.585481)
(5.31076 0 0.636972)
(4.75603 0 0.687219)
(4.17028 0 0.733658)
(3.55916 0 0.77296)
(2.93142 0 0.801094)
(2.29983 0 0.813743)
(1.69285 0 0.807243)
(1.10706 0 0.747222)
(0.658832 0 0.547892)
(0.186346 0 0.224554)
(-0.0081985 0 -0.453757)
(9.99559 0 0.0432073)
(9.97556 0 0.0752724)
(9.9318 0 0.103347)
(9.86489 0 0.132373)
(9.77778 0 0.163062)
(9.67154 0 0.195402)
(9.54587 0 0.229747)
(9.40013 0 0.266608)
(9.23364 0 0.306477)
(9.04562 0 0.349816)
(8.83507 0 0.397083)
(8.60078 0 0.448736)
(8.34141 0 0.505209)
(8.05546 0 0.566883)
(7.74132 0 0.634033)
(7.39738 0 0.706755)
(7.02203 0 0.784863)
(6.61387 0 0.86775)
(6.17184 0 0.95422)
(5.69553 0 1.04228)
(5.18551 0 1.1289)
(4.64383 0 1.2098)
(4.07467 0 1.27916)
(3.48525 0 1.32933)
(2.88673 0 1.35008)
(2.29936 0 1.3264)
(1.73175 0 1.22073)
(1.21619 0 0.972955)
(0.701097 0 0.57009)
(0.358011 0 -0.15664)
(9.99403 0 0.0494997)
(9.97181 0 0.0932073)
(9.92788 0 0.133574)
(9.86224 0 0.174211)
(9.77693 0 0.216436)
(9.67298 0 0.260665)
(9.55031 0 0.307435)
(9.40848 0 0.357422)
(9.24701 0 0.4113)
(9.06532 0 0.469717)
(8.86266 0 0.533317)
(8.63817 0 0.602741)
(8.39081 0 0.678613)
(8.11948 0 0.761499)
(7.82295 0 0.851848)
(7.49995 0 0.949905)
(7.14917 0 1.05558)
(6.76936 0 1.16827)
(6.3594 0 1.28664)
(5.91849 0 1.40829)
(5.44641 0 1.52949)
(4.94388 0 1.6447)
(4.41304 0 1.74615)
(3.85814 0 1.82321)
(3.2857 0 1.86134)
(2.70629 0 1.84029)
(2.12556 0 1.72595)
(1.55419 0 1.47779)
(0.957905 0 1.08361)
(0.50941 0 0.502239)
(9.99331 0 0.0572142)
(9.96994 0 0.11096)
(9.92593 0 0.162106)
(9.86146 0 0.21335)
(9.77798 0 0.266361)
(9.67635 0 0.321919)
(9.55653 0 0.380709)
(9.41821 0 0.443497)
(9.26096 0 0.511068)
(9.08432 0 0.584185)
(8.88768 0 0.663605)
(8.67036 0 0.750085)
(8.43156 0 0.84436)
(8.17042 0 0.947113)
(7.88602 0 1.05891)
(7.57742 0 1.18011)
(7.24359 0 1.31072)
(6.88352 0 1.45022)
(6.49619 0 1.59726)
(6.08062 0 1.74936)
(5.63604 0 1.90244)
(5.16199 0 2.05034)
(4.65864 0 2.18418)
(4.12708 0 2.29173)
(3.56927 0 2.35653)
(2.98877 0 2.35727)
(2.38673 0 2.26488)
(1.76631 0 2.04755)
(1.08994 0 1.69129)
(0.53663 0 1.15403)
(9.99302 0 0.0655393)
(9.96923 0 0.128703)
(9.92556 0 0.190116)
(9.86253 0 0.251847)
(9.78128 0 0.315583)
(9.68244 0 0.382325)
(9.566 0 0.452883)
(9.43171 0 0.528112)
(9.27919 0 0.608894)
(9.10805 0 0.696101)
(8.91776 0 0.7906)
(8.70771 0 0.893249)
(8.47725 0 1.00489)
(8.22563 0 1.12629)
(7.9521 0 1.25813)
(7.65583 0 1.40085)
(7.33596 0 1.55459)
(6.99155 0 1.71891)
(6.62159 0 1.8926)
(6.2249 0 2.07326)
(5.80016 0 2.25688)
(5.34591 0 2.43723)
(4.86057 0 2.6052)
(4.34256 0 2.74821)
(3.79025 0 2.84951)
(3.20244 0 2.88813)
(2.57645 0 2.83814)
(1.91337 0 2.67149)
(1.17269 0 2.37386)
(0.549941 0 1.89425)
(9.99297 0 0.0740756)
(9.96926 0 0.146315)
(9.92637 0 0.217486)
(9.86508 0 0.289296)
(9.78642 0 0.36336)
(9.69084 0 0.440834)
(9.57834 0 0.52267)
(9.44871 0 0.609823)
(9.30164 0 0.703271)
(9.13677 0 0.803984)
(8.95363 0 0.912924)
(8.75168 0 1.03104)
(8.53031 0 1.15926)
(8.28884 0 1.29844)
(8.02654 0 1.44934)
(7.74263 0 1.61253)
(7.43622 0 1.78824)
(7.10632 0 1.97622)
(6.75171 0 2.17546)
(6.37089 0 2.38387)
(5.96197 0 2.59778)
(5.5225 0 2.81141)
(5.04937 0 3.01616)
(4.53885 0 3.19995)
(3.9865 0 3.34664)
(3.38775 0 3.43589)
(2.73711 0 3.4432)
(2.03613 0 3.34134)
(1.24167 0 3.11339)
(0.56348 0 2.69295)
(9.99306 0 0.0825888)
(9.96981 0 0.163608)
(9.92807 0 0.244053)
(9.86885 0 0.325484)
(9.79313 0 0.409452)
(9.70126 0 0.497214)
(9.59323 0 0.589849)
(9.46888 0 0.688409)
(9.32795 0 0.793957)
(9.17013 0 0.907551)
(8.99501 0 1.03024)
(8.80209 0 1.16307)
(8.59079 0 1.30705)
(8.36047 0 1.46313)
(8.1104 0 1.6322)
(7.83975 0 1.81493)
(7.54754 0 2.01173)
(7.23259 0 2.22258)
(6.8934 0 2.4468)
(6.52805 0 2.68275)
(6.13395 0 2.92741)
(5.7077 0 3.17581)
(5.2448 0 3.42039)
(4.7396 0 3.65019)
(4.18529 0 3.85019)
(3.57457 0 4.0008)
(2.89934 0 4.07777)
(2.16196 0 4.05219)
(1.31602 0 3.90147)
(0.583174 0 3.5399)
(9.99326 0 0.0909291)
(9.97072 0 0.18041)
(9.93046 0 0.26967)
(9.87362 0 0.360245)
(9.80118 0 0.453653)
(9.71344 0 0.551217)
(9.61038 0 0.654122)
(9.49188 0 0.76351)
(9.35775 0 0.880523)
(9.20773 0 1.0063)
(9.04144 0 1.14199)
(8.85846 0 1.2887)
(8.65825 0 1.44756)
(8.44019 0 1.61964)
(8.20353 0 1.80592)
(7.94741 0 2.00727)
(7.67072 0 2.22432)
(7.37208 0 2.45735)
(7.0497 0 2.70613)
(6.70115 0 2.96965)
(6.3232 0 3.24573)
(5.91148 0 3.53059)
(5.46017 0 3.8181)
(4.9618 0 4.09899)
(4.40718 0 4.35983)
(3.78616 0 4.58201)
(3.08734 0 4.74092)
(2.31251 0 4.80423)
(1.4105 0 4.74079)
(0.614244 0 4.44159)
(9.99352 0 0.0989929)
(9.97191 0 0.196581)
(9.9334 0 0.294198)
(9.87924 0 0.393421)
(9.8104 0 0.495761)
(9.72717 0 0.602596)
(9.62953 0 0.715193)
(9.51741 0 0.834776)
(9.39068 0 0.962563)
(9.24912 0 1.09977)
(9.09245 0 1.24762)
(8.92027 0 1.40733)
(8.73211 0 1.58011)
(8.5274 0 1.76716)
(8.3054 0 1.96962)
(8.06521 0 2.18855)
(7.80567 0 2.42487)
(7.52522 0 2.67926)
(7.22181 0 2.95202)
(6.89264 0 3.24292)
(6.53388 0 3.55088)
(6.14029 0 3.87358)
(5.70483 0 4.20676)
(5.21823 0 4.54341)
(4.66871 0 4.87241)
(4.04256 0 5.17687)
(3.32338 0 5.43213)
(2.50949 0 5.60168)
(1.54167 0 5.64312)
(0.663962 0 5.41759)
(9.99384 0 0.106705)
(9.9733 0 0.212001)
(9.9368 0 0.317505)
(9.88558 0 0.424859)
(9.82064 0 0.535594)
(9.74225 0 0.651128)
(9.65045 0 0.772798)
(9.54518 0 0.9019)
(9.42638 0 1.03972)
(9.2939 0 1.18754)
(9.14752 0 1.34666)
(8.98694 0 1.51839)
(8.81174 0 1.70404)
(8.62141 0 1.90493)
(8.41529 0 2.12238)
(8.19249 0 2.35768)
(7.95183 0 2.61206)
(7.69171 0 2.88665)
(7.40995 0 3.1824)
(7.10351 0 3.49998)
(6.76818 0 3.8396)
(6.39813 0 4.20066)
(5.98531 0 4.58128)
(5.51878 0 4.97739)
(4.98402 0 5.38132)
(4.36287 0 5.77947)
(3.63148 0 6.14894)
(2.77972 0 6.45033)
(1.73315 0 6.62802)
(0.744686 0 6.50249)
(9.9942 0 0.114007)
(9.97487 0 0.226576)
(9.94056 0 0.339475)
(9.89252 0 0.454426)
(9.83174 0 0.572988)
(9.75851 0 0.696616)
(9.67289 0 0.826704)
(9.57488 0 0.964607)
(9.46449 0 1.11167)
(9.34163 0 1.26924)
(9.20616 0 1.43868)
(9.05787 0 1.62138)
(8.89644 0 1.81874)
(8.72146 0 2.03222)
(8.53235 0 2.26331)
(8.32833 0 2.51353)
(8.1083 0 2.78445)
(7.87074 0 3.07768)
(7.61352 0 3.39486)
(7.3336 0 3.73764)
(7.02675 0 4.10761)
(6.68692 0 4.50618)
(6.3056 0 4.93425)
(5.87072 0 5.39156)
(5.36533 0 5.87541)
(4.76637 0 6.3782)
(4.04013 0 6.88303)
(3.16088 0 7.3531)
(2.02427 0 7.72256)
(0.88049 0 7.75623)
(9.99459 0 0.120854)
(9.97657 0 0.240225)
(9.94461 0 0.360009)
(9.89996 0 0.482003)
(9.84356 0 0.6078)
(9.77576 0 0.738889)
(9.69663 0 0.876707)
(9.60624 0 1.02266)
(9.50464 0 1.17814)
(9.39186 0 1.34454)
(9.26782 0 1.52329)
(9.13243 0 1.71583)
(8.98548 0 1.92366)
(8.82669 0 2.14836)
(8.65562 0 2.39157)
(8.47165 0 2.65503)
(8.27389 0 2.94065)
(8.06102 0 3.25048)
(7.83118 0 3.58684)
(7.58166 0 3.95236)
(7.30861 0 4.35003)
(7.0064 0 4.78336)
(6.66688 0 5.25631)
(6.27804 0 5.77314)
(5.8219 0 6.33783)
(5.27179 0 6.95245)
(4.58372 0 7.61349)
(3.70909 0 8.30049)
(2.48741 0 8.95738)
(1.12404 0 9.29193)
(9.99501 0 0.127211)
(9.97838 0 0.252885)
(9.94891 0 0.379022)
(9.9078 0 0.507488)
(9.85599 0 0.639911)
(9.79382 0 0.777807)
(9.72143 0 0.922646)
(9.63894 0 1.07587)
(9.54648 0 1.23891)
(9.44414 0 1.4132)
(9.33197 0 1.60019)
(9.20996 0 1.8014)
(9.07807 0 2.01839)
(8.93615 0 2.25282)
(8.78398 0 2.50647)
(8.62116 0 2.78128)
(8.44706 0 3.07942)
(8.26077 0 3.40335)
(8.06087 0 3.75596)
(7.84533 0 4.14072)
(7.61113 0 4.56192)
(7.35382 0 5.02498)
(7.06678 0 5.53683)
(6.73991 0 6.10645)
(6.35725 0 6.74552)
(5.8932 0 7.46911)
(5.29967 0 8.29632)
(4.50754 0 9.2476)
(3.26749 0 10.3408)
(1.60415 0 11.357)
(9.99545 0 0.133051)
(9.98026 0 0.264504)
(9.95339 0 0.396442)
(9.91596 0 0.530789)
(9.86889 0 0.669201)
(9.81254 0 0.813216)
(9.74709 0 0.964328)
(9.67273 0 1.124)
(9.58965 0 1.2937)
(9.49804 0 1.47486)
(9.39804 0 1.66899)
(9.2898 0 1.87761)
(9.17339 0 2.10235)
(9.04888 0 2.34491)
(8.91625 0 2.60718)
(8.77539 0 2.89123)
(8.62606 0 3.19941)
(8.4678 0 3.53449)
(8.29989 0 3.89975)
(8.12118 0 4.29932)
(7.92997 0 4.73839)
(7.7237 0 5.22381)
(7.49851 0 5.76481)
(7.24851 0 6.37419)
(6.96419 0 7.07038)
(6.62999 0 7.88118)
(6.21309 0 8.85198)
(5.66404 0 10.0656)
(4.6879 0 11.7299)
(2.68566 0 14.5882)
(0.120487 0 -0.119587)
(0.282861 0 -0.108744)
(0.448451 0 -0.0852598)
(0.586127 0 -0.0624323)
(0.69017 0 -0.042952)
(0.764169 0 -0.0268561)
(0.812998 0 -0.0136988)
(0.840762 0 -0.00307893)
(0.850954 0 0.00518043)
(0.846901 0 0.0106686)
(0.831711 0 0.0140701)
(0.808527 0 0.0159967)
(0.780086 0 0.0167605)
(0.74868 0 0.016575)
(0.716328 0 0.015628)
(0.684805 0 0.0141177)
(0.655566 0 0.0122653)
(0.629648 0 0.0102919)
(0.607622 0 0.00839576)
(0.589595 0 0.00673031)
(0.575273 0 0.00538527)
(0.564083 0 0.00438669)
(0.555305 0 0.00371253)
(0.548175 0 0.00329536)
(0.541993 0 0.00304471)
(0.536202 0 0.00290069)
(0.530411 0 0.00281643)
(0.524395 0 0.00274991)
(0.518084 0 0.00263077)
(0.510679 0 0.00207762)
(0.10427 0 -0.281518)
(0.263636 0 -0.263784)
(0.419446 0 -0.213866)
(0.552251 0 -0.164045)
(0.657996 0 -0.12111)
(0.740081 0 -0.0853085)
(0.802664 0 -0.0557228)
(0.84912 0 -0.0314808)
(0.882029 0 -0.0119441)
(0.90358 0 0.00335747)
(0.914459 0 0.0145899)
(0.916557 0 0.022294)
(0.912395 0 0.0269636)
(0.904214 0 0.0290522)
(0.894024 0 0.0289768)
(0.883607 0 0.0271831)
(0.874409 0 0.0241598)
(0.867449 0 0.0204193)
(0.863283 0 0.0164585)
(0.862005 0 0.0127086)
(0.86332 0 0.00947895)
(0.866653 0 0.00692649)
(0.871274 0 0.00508222)
(0.876422 0 0.00395232)
(0.881468 0 0.00341892)
(0.886005 0 0.00328582)
(0.889822 0 0.00338366)
(0.892845 0 0.0035787)
(0.895031 0 0.00373041)
(0.896762 0 0.00337832)
(0.0837449 0 -0.446552)
(0.222421 0 -0.417782)
(0.348338 0 -0.34151)
(0.455689 0 -0.266134)
(0.541383 0 -0.201525)
(0.608905 0 -0.147748)
(0.661477 0 -0.103425)
(0.701616 0 -0.067288)
(0.731518 0 -0.0382949)
(0.753082 0 -0.0152299)
(0.770187 0 0.00288019)
(0.781291 0 0.0160442)
(0.787717 0 0.0245753)
(0.790979 0 0.0289857)
(0.79238 0 0.029871)
(0.793111 0 0.0279563)
(0.794152 0 0.0240332)
(0.796176 0 0.0189205)
(0.799507 0 0.0134262)
(0.80411 0 0.0082595)
(0.809636 0 0.00393446)
(0.815394 0 0.000768651)
(0.820443 0 -0.00107229)
(0.824828 0 -0.00182966)
(0.828693 0 -0.00177772)
(0.832307 0 -0.00122979)
(0.835926 0 -0.000517992)
(0.839729 0 0.000239322)
(0.843516 0 0.000963265)
(0.84717 0 0.00160838)
(0.063766 0 -0.579008)
(0.175772 0 -0.534032)
(0.264833 0 -0.434096)
(0.341752 0 -0.338756)
(0.402178 0 -0.258241)
(0.450405 0 -0.191463)
(0.488534 0 -0.13642)
(0.518064 0 -0.0914317)
(0.540313 0 -0.0554029)
(0.556743 0 -0.027598)
(0.568609 0 -0.00661995)
(0.580255 0 0.00872594)
(0.588267 0 0.0194253)
(0.593845 0 0.0254358)
(0.59786 0 0.0271692)
(0.601016 0 0.0255314)
(0.60379 0 0.0215502)
(0.606455 0 0.0162601)
(0.609086 0 0.0106842)
(0.61156 0 0.00572879)
(0.613676 0 0.00208729)
(0.615004 0 3.63699e-05)
(0.615506 0 -0.000863347)
(0.614974 0 -0.00114813)
(0.613485 0 -0.00116756)
(0.611238 0 -0.0011018)
(0.608331 0 -0.000984223)
(0.60506 0 -0.000750949)
(0.601602 0 -0.000289305)
(0.597802 0 0.000770946)
(0.0430404 0 -0.680502)
(0.122943 0 -0.614477)
(0.169489 0 -0.49427)
(0.213405 0 -0.385485)
(0.245058 0 -0.295179)
(0.270875 0 -0.220635)
(0.291592 0 -0.159264)
(0.307982 0 -0.108976)
(0.320572 0 -0.0686838)
(0.330003 0 -0.0377831)
(0.336793 0 -0.0143747)
(0.34443 0 0.00360504)
(0.351237 0 0.015407)
(0.355178 0 0.0222123)
(0.356811 0 0.0245257)
(0.356728 0 0.0233601)
(0.355105 0 0.0197219)
(0.352033 0 0.0146448)
(0.34764 0 0.00927077)
(0.342022 0 0.00451908)
(0.335297 0 0.00105271)
(0.328162 0 -0.000787283)
(0.320106 0 -0.0012343)
(0.30986 0 -0.000494943)
(0.296954 0 0.000900427)
(0.281757 0 0.00229092)
(0.265275 0 0.00335963)
(0.248357 0 0.00415725)
(0.231968 0 0.00505165)
(0.215451 0 0.00541693)
(0.0210171 0 -0.745601)
(0.0634566 0 -0.654686)
(0.0633451 0 -0.517744)
(0.0721218 0 -0.401683)
(0.0716286 0 -0.306633)
(0.0714399 0 -0.228921)
(0.070769 0 -0.16538)
(0.0703536 0 -0.113446)
(0.0703399 0 -0.0719069)
(0.0709229 0 -0.0411434)
(0.0712251 0 -0.0211722)
(0.07327 0 -0.00494973)
(0.0692359 0 0.0107889)
(0.0639884 0 0.0210887)
(0.0553965 0 0.0259426)
(0.0436452 0 0.0270397)
(0.0284108 0 0.0256347)
(0.00912984 0 0.0225663)
(-0.0132275 0 0.0186373)
(-0.0371385 0 0.014828)
(-0.062034 0 0.0118059)
(-0.0863306 0 0.0102927)
(-0.108851 0 0.0105432)
(-0.1286 0 0.0118184)
(-0.145098 0 0.0134101)
(-0.158917 0 0.0147348)
(-0.171486 0 0.0152706)
(-0.184321 0 0.0151101)
(-0.197342 0 0.0140599)
(-0.208152 0 0.0114529)
(-0.00384027 0 -0.767429)
(-0.00423818 0 -0.649193)
(-0.052174 0 -0.500346)
(-0.0824468 0 -0.383048)
(-0.117957 0 -0.28853)
(-0.148989 0 -0.213055)
(-0.176479 0 -0.152815)
(-0.1996 0 -0.104606)
(-0.218841 0 -0.0657699)
(-0.237252 0 -0.0346315)
(-0.2608 0 -0.0103595)
(-0.292131 0 0.00865082)
(-0.306775 0 0.0229158)
(-0.32053 0 0.0321778)
(-0.335363 0 0.0377191)
(-0.351642 0 0.0402801)
(-0.36959 0 0.0404542)
(-0.389152 0 0.0387177)
(-0.410034 0 0.035631)
(-0.431844 0 0.0319513)
(-0.454051 0 0.028365)
(-0.475917 0 0.0252815)
(-0.49664 0 0.0229266)
(-0.515219 0 0.0212728)
(-0.530783 0 0.0202027)
(-0.543253 0 0.0195878)
(-0.553451 0 0.0191837)
(-0.56253 0 0.0185947)
(-0.570911 0 0.0172348)
(-0.576732 0 0.0151698)
(-0.0347482 0 -0.738592)
(-0.0821133 0 -0.595615)
(-0.175713 0 -0.444417)
(-0.250344 0 -0.329971)
(-0.323702 0 -0.240595)
(-0.389721 0 -0.170565)
(-0.448669 0 -0.115248)
(-0.50016 0 -0.0709087)
(-0.544464 0 -0.0348063)
(-0.583341 0 -0.00635743)
(-0.615383 0 0.0135516)
(-0.63607 0 0.0259491)
(-0.65585 0 0.035355)
(-0.673269 0 0.0432532)
(-0.689618 0 0.0486962)
(-0.705766 0 0.0514994)
(-0.72218 0 0.0519014)
(-0.739038 0 0.050292)
(-0.756421 0 0.0472706)
(-0.77438 0 0.0436078)
(-0.792864 0 0.0399444)
(-0.811567 0 0.0365852)
(-0.829813 0 0.0335321)
(-0.846574 0 0.0307018)
(-0.860801 0 0.0281007)
(-0.872 0 0.0258502)
(-0.880585 0 0.0240166)
(-0.887596 0 0.0223953)
(-0.893612 0 0.0205578)
(-0.897211 0 0.0187716)
(-0.0719859 0 -0.657078)
(-0.167284 0 -0.493612)
(-0.31033 0 -0.345626)
(-0.430551 0 -0.239559)
(-0.540669 0 -0.161908)
(-0.636031 0 -0.103683)
(-0.717079 0 -0.0589772)
(-0.78489 0 -0.0247971)
(-0.840747 0 0.00101426)
(-0.880582 0 0.019345)
(-0.910208 0 0.032437)
(-0.935763 0 0.0422066)
(-0.957655 0 0.0498584)
(-0.976544 0 0.0558621)
(-0.993408 0 0.0601239)
(-1.00917 0 0.0623827)
(-1.02443 0 0.0625296)
(-1.03946 0 0.0607651)
(-1.05446 0 0.0576619)
(-1.06971 0 0.0539785)
(-1.08548 0 0.0502745)
(-1.10176 0 0.0466701)
(-1.11804 0 0.0429404)
(-1.13326 0 0.0388821)
(-1.14622 0 0.0346441)
(-1.15626 0 0.0307173)
(-1.16366 0 0.0275432)
(-1.16944 0 0.0251133)
(-1.17415 0 0.0231032)
(-1.17668 0 0.0216962)
(-0.11958 0 -0.517894)
(-0.26853 0 -0.342337)
(-0.463995 0 -0.207822)
(-0.627486 0 -0.117899)
(-0.770436 0 -0.0565557)
(-0.888466 0 -0.0158618)
(-0.978346 0 0.00973724)
(-1.04603 0 0.0269685)
(-1.0958 0 0.0388401)
(-1.13609 0 0.0478971)
(-1.16899 0 0.0550473)
(-1.19635 0 0.0606771)
(-1.21918 0 0.0651225)
(-1.23845 0 0.0686944)
(-1.25526 0 0.0713483)
(-1.27064 0 0.0726784)
(-1.28519 0 0.0722511)
(-1.29909 0 0.0700497)
(-1.31247 0 0.0666485)
(-1.32575 0 0.0628898)
(-1.33949 0 0.0592997)
(-1.35402 0 0.0557563)
(-1.36895 0 0.0516826)
(-1.38314 0 0.0466291)
(-1.39518 0 0.0408146)
(-1.40421 0 0.035142)
(-1.41052 0 0.0305568)
(-1.41523 0 0.0273405)
(-1.41896 0 0.0252065)
(-1.42083 0 0.0240825)
(-0.188342 0 -0.321179)
(-0.414714 0 -0.141884)
(-0.678269 0 -0.0107895)
(-0.865602 0 0.0432563)
(-1.0087 0 0.0645272)
(-1.11625 0 0.0713021)
(-1.20107 0 0.073845)
(-1.26781 0 0.075046)
(-1.32059 0 0.0760809)
(-1.36269 0 0.0773361)
(-1.39673 0 0.0786595)
(-1.42458 0 0.0797641)
(-1.44736 0 0.0805857)
(-1.46618 0 0.0814217)
(-1.48239 0 0.0823159)
(-1.49724 0 0.0826439)
(-1.51128 0 0.0815201)
(-1.52442 0 0.0786365)
(-1.53656 0 0.0746435)
(-1.54817 0 0.070641)
(-1.56021 0 0.0672302)
(-1.57341 0 0.0640005)
(-1.58755 0 0.0598662)
(-1.60128 0 0.0539736)
(-1.61276 0 0.0465561)
(-1.62088 0 0.0390232)
(-1.62602 0 0.0329913)
(-1.62958 0 0.0290873)
(-1.63237 0 0.0269144)
(-1.63374 0 0.0260077)
(-0.297708 0 0.0271925)
(-0.582349 0 0.185307)
(-0.855896 0 0.204039)
(-1.05386 0 0.195624)
(-1.20412 0 0.176707)
(-1.318 0 0.156441)
(-1.40495 0 0.139067)
(-1.472 0 0.125142)
(-1.52409 0 0.114432)
(-1.56504 0 0.107011)
(-1.59803 0 0.102219)
(-1.62499 0 0.098689)
(-1.64675 0 0.0956635)
(-1.66425 0 0.0935592)
(-1.6792 0 0.0927245)
(-1.69324 0 0.0922513)
(-1.70689 0 0.0905237)
(-1.71953 0 0.0867681)
(-1.73056 0 0.0818317)
(-1.7405 0 0.077372)
(-1.75086 0 0.0742506)
(-1.76298 0 0.0716879)
(-1.77682 0 0.0678447)
(-1.79066 0 0.0612342)
(-1.80199 0 0.0520348)
(-1.80923 0 0.0423361)
(-1.81295 0 0.0347227)
(-1.81511 0 0.0302622)
(-1.81691 0 0.0282013)
(-1.81785 0 0.027483)
(-0.377109 0 0.480447)
(-0.715896 0 0.513904)
(-1.0404 0 0.439752)
(-1.25605 0 0.362497)
(-1.40909 0 0.296925)
(-1.51906 0 0.242574)
(-1.60002 0 0.202029)
(-1.66167 0 0.172622)
(-1.70898 0 0.150408)
(-1.7456 0 0.134622)
(-1.7753 0 0.124324)
(-1.80014 0 0.11663)
(-1.82004 0 0.109628)
(-1.8353 0 0.104281)
(-1.84809 0 0.101871)
(-1.86093 0 0.101163)
(-1.87435 0 0.0992441)
(-1.88679 0 0.0944936)
(-1.89674 0 0.0881385)
(-1.90469 0 0.082921)
(-1.91306 0 0.0802926)
(-1.92415 0 0.0789576)
(-1.93819 0 0.0759259)
(-1.95284 0 0.0687414)
(-1.96449 0 0.0574246)
(-1.97081 0 0.0450061)
(-1.97265 0 0.0355332)
(-1.97297 0 0.0307146)
(-1.97368 0 0.0290556)
(-1.97425 0 0.0285382)
(-0.502185 0 1.00366)
(-0.934456 0 0.921948)
(-1.29717 0 0.703533)
(-1.49846 0 0.527064)
(-1.6317 0 0.408756)
(-1.7235 0 0.316803)
(-1.78756 0 0.25528)
(-1.83709 0 0.215209)
(-1.87575 0 0.18324)
(-1.90487 0 0.158816)
(-1.92907 0 0.143652)
(-1.95098 0 0.13282)
(-1.96861 0 0.121948)
(-1.98052 0 0.113059)
(-1.98978 0 0.109526)
(-2.00079 0 0.109802)
(-2.01432 0 0.108531)
(-2.02714 0 0.102549)
(-2.036 0 0.0938198)
(-2.0413 0 0.0871663)
(-2.04694 0 0.0852424)
(-2.05684 0 0.0859514)
(-2.07163 0 0.0844801)
(-2.08798 0 0.0769097)
(-2.10059 0 0.0629367)
(-2.10587 0 0.0468838)
(-2.10505 0 0.0350486)
(-2.10284 0 0.0302012)
(-2.10233 0 0.0295068)
(-2.10265 0 0.0292756)
(-0.740646 0 2.04037)
(-1.27883 0 1.60402)
(-1.6673 0 1.00097)
(-1.79961 0 0.612395)
(-1.87491 0 0.478756)
(-1.9305 0 0.370756)
(-1.96207 0 0.299317)
(-1.99375 0 0.253659)
(-2.02374 0 0.207727)
(-2.04312 0 0.170543)
(-2.05856 0 0.154371)
(-2.07664 0 0.146267)
(-2.09209 0 0.133594)
(-2.09941 0 0.120073)
(-2.10303 0 0.114641)
(-2.11133 0 0.117125)
(-2.12586 0 0.117505)
(-2.14028 0 0.109821)
(-2.14809 0 0.0972761)
(-2.14942 0 0.0883348)
(-2.15087 0 0.0878269)
(-2.15909 0 0.0922596)
(-2.17528 0 0.0937464)
(-2.19454 0 0.0862216)
(-2.20896 0 0.0688587)
(-2.21293 0 0.0477387)
(-2.20817 0 0.0326547)
(-2.2023 0 0.0283229)
(-2.20046 0 0.0296622)
(-2.20078 0 0.0299827)
(9.9959 0 0.138445)
(9.98225 0 0.275238)
(9.95811 0 0.412524)
(9.92454 0 0.552272)
(9.88243 0 0.696161)
(9.83217 0 0.845742)
(9.774 0 1.00252)
(9.70816 0 1.16798)
(9.63494 0 1.34357)
(9.5546 0 1.53076)
(9.46742 0 1.73106)
(9.37366 0 1.94599)
(9.27358 0 2.1772)
(9.16745 0 2.42642)
(9.05551 0 2.69558)
(8.93798 0 2.98679)
(8.81505 0 3.30253)
(8.68686 0 3.64568)
(8.55347 0 4.01975)
(8.41488 0 4.42913)
(8.27102 0 4.87945)
(8.12176 0 5.37817)
(7.96705 0 5.93548)
(7.80712 0 6.56571)
(7.64317 0 7.28995)
(7.48014 0 8.14077)
(7.33118 0 9.1721)
(7.28616 0 10.4774)
(7.74214 0 12.2015)
(7.91966 0 14.9189)
(9.99638 0 0.143405)
(9.98434 0 0.285092)
(9.96306 0 0.427251)
(9.93352 0 0.571881)
(9.89657 0 0.720674)
(9.85263 0 0.875188)
(9.80198 0 1.03693)
(9.74494 0 1.20738)
(9.68186 0 1.38799)
(9.61311 0 1.58021)
(9.5391 0 1.78554)
(9.46022 0 2.00549)
(9.37691 0 2.24169)
(9.28967 0 2.49584)
(9.199 0 2.76986)
(9.10549 0 3.06584)
(9.00978 0 3.38621)
(8.91263 0 3.73383)
(8.81494 0 4.11215)
(8.7179 0 4.52543)
(8.6231 0 4.9791)
(8.53291 0 5.48018)
(8.45103 0 6.03799)
(8.38371 0 6.66515)
(8.34209 0 7.37886)
(8.34821 0 8.20257)
(8.44082 0 9.16645)
(8.67574 0 10.3038)
(9.32153 0 11.5597)
(9.80974 0 12.6508)
(9.99688 0 0.147841)
(9.98651 0 0.293903)
(9.96819 0 0.4404)
(9.94283 0 0.58935)
(9.91121 0 0.742445)
(9.87378 0 0.90124)
(9.83087 0 1.06723)
(9.78285 0 1.24187)
(9.73015 0 1.4266)
(9.67325 0 1.62285)
(9.61266 0 1.83205)
(9.54892 0 2.0557)
(9.48265 0 2.29534)
(9.41456 0 2.55264)
(9.34545 0 2.82939)
(9.27622 0 3.12761)
(9.20798 0 3.44956)
(9.14207 0 3.79788)
(9.08018 0 4.17569)
(9.0245 0 4.58675)
(8.97807 0 5.03567)
(8.94515 0 5.52813)
(8.93203 0 6.07112)
(8.94822 0 6.67304)
(9.00819 0 7.34336)
(9.13408 0 8.09075)
(9.35688 0 8.91716)
(9.68611 0 9.8116)
(10.2518 0 10.7229)
(10.9394 0 11.4416)
(9.9974 0 0.151703)
(9.98874 0 0.301563)
(9.97347 0 0.451806)
(9.95239 0 0.604447)
(9.92623 0 0.761174)
(9.89545 0 0.923522)
(9.86043 0 1.09296)
(9.82159 0 1.27092)
(9.77944 0 1.4588)
(9.73454 0 1.65797)
(9.6875 0 1.86981)
(9.63902 0 2.09574)
(9.58987 0 2.33721)
(9.54096 0 2.59577)
(9.49334 0 2.87307)
(9.44823 0 3.17091)
(9.40713 0 3.4913)
(9.37186 0 3.83651)
(9.34471 0 4.20911)
(9.32867 0 4.61209)
(9.32765 0 5.04884)
(9.34696 0 5.52322)
(9.39383 0 6.03936)
(9.47819 0 6.60124)
(9.61323 0 7.21166)
(9.81578 0 7.87031)
(10.1087 0 8.57016)
(10.5006 0 9.29658)
(11.0585 0 10.0395)
(11.8522 0 10.6858)
(9.99792 0 0.154942)
(9.99101 0 0.307982)
(9.97884 0 0.461332)
(9.96212 0 0.616996)
(9.94151 0 0.776642)
(9.91746 0 0.941774)
(9.89041 0 1.11383)
(9.86083 0 1.29419)
(9.82929 0 1.48419)
(9.79643 0 1.68514)
(9.76295 0 1.89834)
(9.72967 0 2.12509)
(9.6975 0 2.36673)
(9.66753 0 2.62464)
(9.64101 0 2.90027)
(9.61942 0 3.19515)
(9.60454 0 3.51094)
(9.59855 0 3.84941)
(9.60414 0 4.21249)
(9.6247 0 4.60223)
(9.66455 0 5.02074)
(9.72922 0 5.47002)
(9.82579 0 5.95172)
(9.96321 0 6.46653)
(10.1526 0 7.01338)
(10.4069 0 7.58843)
(10.7436 0 8.18356)
(11.1743 0 8.7841)
(11.7222 0 9.37847)
(12.4761 0 9.89175)
(9.99845 0 0.157515)
(9.9933 0 0.313071)
(9.98427 0 0.468852)
(9.97194 0 0.626832)
(9.9569 0 0.788644)
(9.93962 0 0.955756)
(9.92055 0 1.12955)
(9.90023 0 1.31135)
(9.87926 0 1.50243)
(9.85835 0 1.704)
(9.83828 0 1.91725)
(9.81996 0 2.14337)
(9.80442 0 2.38354)
(9.79288 0 2.63893)
(9.78673 0 2.91074)
(9.78764 0 3.20021)
(9.79756 0 3.50858)
(9.81887 0 3.83709)
(9.85443 0 4.18697)
(9.90773 0 4.55935)
(9.98305 0 4.95513)
(10.0856 0 5.37479)
(10.2218 0 5.81807)
(10.3991 0 6.28352)
(10.6264 0 6.76789)
(10.9134 0 7.26542)
(11.2713 0 7.76688)
(11.7082 0 8.25672)
(12.2248 0 8.71824)
(12.9016 0 9.10988)
(9.99898 0 0.159384)
(9.9956 0 0.316756)
(9.98971 0 0.474253)
(9.98177 0 0.633805)
(9.97229 0 0.797002)
(9.96174 0 0.965257)
(9.9506 0 1.13989)
(9.93943 0 1.32216)
(9.92888 0 1.51325)
(9.9197 0 1.71426)
(9.91274 0 1.92628)
(9.90896 0 2.15033)
(9.90949 0 2.38741)
(9.9156 0 2.63849)
(9.9288 0 2.90451)
(9.95083 0 3.18634)
(9.98371 0 3.48481)
(10.0299 0 3.80065)
(10.0921 0 4.1344)
(10.1738 0 4.48638)
(10.279 0 4.85649)
(10.4121 0 5.24403)
(10.5786 0 5.64743)
(10.7843 0 6.06387)
(11.0357 0 6.48888)
(11.3392 0 6.91577)
(11.701 0 7.33517)
(12.1252 0 7.73366)
(12.6057 0 8.09665)
(13.212 0 8.40359)
(9.99951 0 0.160514)
(9.99789 0 0.318969)
(9.9951 0 0.477437)
(9.99151 0 0.637792)
(9.98753 0 0.801564)
(9.98362 0 0.970106)
(9.98028 0 1.14467)
(9.97808 0 1.32642)
(9.97769 0 1.51644)
(9.9799 0 1.71574)
(9.98559 0 1.92525)
(9.99577 0 2.14585)
(10.0116 0 2.37834)
(10.0344 0 2.62346)
(10.0656 0 2.88187)
(10.1071 0 3.15412)
(10.1608 0 3.44062)
(10.229 0 3.74163)
(10.3145 0 4.0571)
(10.4201 0 4.38668)
(10.5495 0 4.72951)
(10.7063 0 5.08405)
(10.8947 0 5.44793)
(11.1191 0 5.81762)
(11.3837 0 6.18822)
(11.6924 0 6.55316)
(12.048 0 6.90417)
(12.452 0 7.2309)
(12.8968 0 7.52219)
(13.4406 0 7.76669)
(10 0 0.160879)
(10.0001 0 0.319656)
(10.0004 0 0.478326)
(10.0011 0 0.63869)
(10.0025 0 0.802213)
(10.0051 0 0.970173)
(10.0093 0 1.14374)
(10.0158 0 1.32399)
(10.0252 0 1.5119)
(10.0384 0 1.70836)
(10.0561 0 1.91415)
(10.0795 0 2.12999)
(10.1097 0 2.35649)
(10.1479 0 2.59416)
(10.1957 0 2.84339)
(10.2548 0 3.10443)
(10.327 0 3.37733)
(10.4144 0 3.66192)
(10.5194 0 3.95769)
(10.6447 0 4.26378)
(10.793 0 4.5788)
(10.9673 0 4.90073)
(11.1706 0 5.22677)
(11.406 0 5.55322)
(11.6759 0 5.87532)
(11.9823 0 6.18721)
(12.3261 0 6.48201)
(12.7069 0 6.75187)
(13.117 0 6.98843)
(13.6054 0 7.18481)
(10.0005 0 0.160455)
(10.0023 0 0.318774)
(10.0056 0 0.476858)
(10.0104 0 0.636426)
(10.0171 0 0.798865)
(10.0259 0 0.965373)
(10.0375 0 1.13703)
(10.0523 0 1.31482)
(10.0711 0 1.4996)
(10.0946 0 1.69213)
(10.1237 0 1.89306)
(10.1594 0 2.10294)
(10.2028 0 2.3222)
(10.2552 0 2.55113)
(10.3179 0 2.78988)
(10.3925 0 3.03842)
(10.4808 0 3.2965)
(10.5844 0 3.56361)
(10.7056 0 3.83892)
(10.8464 0 4.12119)
(11.0089 0 4.40875)
(11.1954 0 4.69932)
(11.408 0 4.99003)
(11.6484 0 5.2773)
(11.918 0 5.55683)
(12.2174 0 5.82363)
(12.546 0 6.07216)
(12.9027 0 6.29651)
(13.2803 0 6.49063)
(13.7207 0 6.65034)
(10.001 0 0.159229)
(10.0044 0 0.316295)
(10.0106 0 0.472995)
(10.0194 0 0.630954)
(10.0311 0 0.791475)
(10.0459 0 0.955668)
(10.0645 0 1.12452)
(10.0872 0 1.29891)
(10.1148 0 1.47958)
(10.148 0 1.66718)
(10.1877 0 1.8622)
(10.2347 0 2.06504)
(10.2902 0 2.27596)
(10.3553 0 2.49507)
(10.4312 0 2.72228)
(10.5193 0 2.95736)
(10.6212 0 3.19981)
(10.7383 0 3.44888)
(10.8723 0 3.7035)
(11.0248 0 3.96225)
(11.1975 0 4.22329)
(11.3919 0 4.48433)
(11.6091 0 4.74261)
(11.8502 0 4.99486)
(12.1156 0 5.23736)
(12.4049 0 5.46601)
(12.717 0 5.67646)
(13.0501 0 5.86436)
(13.398 0 6.02545)
(13.7972 0 6.15721)
(10.0015 0 0.157193)
(10.0065 0 0.312204)
(10.0154 0 0.466719)
(10.028 0 0.622258)
(10.0445 0 0.780034)
(10.065 0 0.941067)
(10.0901 0 1.10625)
(10.1203 0 1.27634)
(10.1561 0 1.452)
(10.1983 0 1.63372)
(10.2476 0 1.82189)
(10.305 0 2.01675)
(10.3712 0 2.21841)
(10.4475 0 2.42681)
(10.5348 0 2.64171)
(10.6345 0 2.86267)
(10.7476 0 3.08904)
(10.8754 0 3.3199)
(11.0193 0 3.55405)
(11.1804 0 3.79)
(11.3598 0 4.02589)
(11.5584 0 4.25954)
(11.7768 0 4.48841)
(12.0154 0 4.70965)
(12.2739 0 4.92014)
(12.5515 0 5.11659)
(12.8467 0 5.29568)
(13.1575 0 5.45424)
(13.4786 0 5.58934)
(13.8424 0 5.69948)
(10.0019 0 0.154344)
(10.0084 0 0.306501)
(10.0199 0 0.458032)
(10.0362 0 0.61035)
(10.0571 0 0.764572)
(10.083 0 0.921625)
(10.1142 0 1.0823)
(10.1513 0 1.24727)
(10.1947 0 1.41705)
(10.245 0 1.59205)
(10.3031 0 1.77254)
(10.3696 0 1.95862)
(10.4454 0 2.15027)
(10.5313 0 2.3473)
(10.6284 0 2.54933)
(10.7375 0 2.7558)
(10.8597 0 2.96594)
(10.9959 0 3.17876)
(11.147 0 3.393)
(11.3138 0 3.60718)
(11.497 0 3.81952)
(11.6971 0 4.02804)
(11.9141 0 4.23047)
(12.1479 0 4.42441)
(12.3979 0 4.60731)
(12.663 0 4.77658)
(12.9416 0 4.92973)
(13.2318 0 5.06449)
(13.5289 0 5.17886)
(13.8622 0 5.272)
(10.0024 0 0.150691)
(10.0102 0 0.299198)
(10.0241 0 0.446958)
(10.0438 0 0.595271)
(10.0689 0 0.745154)
(10.0997 0 0.89744)
(10.1366 0 1.05282)
(10.18 0 1.21188)
(10.2302 0 1.37502)
(10.288 0 1.54256)
(10.3538 0 1.71464)
(10.4284 0 1.89128)
(10.5124 0 2.07234)
(10.6065 0 2.25751)
(10.7117 0 2.44635)
(10.8285 0 2.6382)
(10.9577 0 2.83223)
(11.1 0 3.02742)
(11.2561 0 3.22254)
(11.4263 0 3.41617)
(11.611 0 3.60669)
(11.8102 0 3.79231)
(12.0239 0 3.97113)
(12.2514 0 4.14111)
(12.492 0 4.30023)
(12.7445 0 4.4465)
(13.0072 0 4.57806)
(13.2784 0 4.69332)
(13.5543 0 4.79094)
(13.8611 0 4.87048)
(10.0027 0 0.146244)
(10.0119 0 0.290322)
(10.0281 0 0.433541)
(10.0508 0 0.577086)
(10.0798 0 0.721876)
(10.1152 0 0.868649)
(10.1572 0 1.01801)
(10.2063 0 1.17043)
(10.2627 0 1.32625)
(10.3269 0 1.48567)
(10.3996 0 1.64875)
(10.4811 0 1.81541)
(10.5721 0 1.98545)
(10.6731 0 2.15847)
(10.7847 0 2.33397)
(10.9075 0 2.51126)
(11.042 0 2.6895)
(11.1885 0 2.86767)
(11.3476 0 3.04461)
(11.5192 0 3.21902)
(11.7036 0 3.38944)
(11.9004 0 3.55434)
(12.1093 0 3.71211)
(12.3296 0 3.86109)
(12.5604 0 3.9997)
(12.8005 0 4.12641)
(13.0483 0 4.23988)
(13.3022 0 4.33899)
(13.559 0 4.42288)
(13.8428 0 4.49137)
(10.0031 0 0.141023)
(10.0134 0 0.279911)
(10.0317 0 0.417843)
(10.0573 0 0.555887)
(10.0898 0 0.694865)
(10.1293 0 0.835425)
(10.1759 0 0.978083)
(10.23 0 1.12322)
(10.2919 0 1.27111)
(10.3619 0 1.42185)
(10.4403 0 1.57544)
(10.5277 0 1.73173)
(10.6245 0 1.89046)
(10.731 0 2.05119)
(10.8477 0 2.21337)
(10.975 0 2.37633)
(11.1131 0 2.53922)
(11.2623 0 2.7011)
(11.4227 0 2.8609)
(11.5943 0 3.01743)
(11.7768 0 3.16945)
(11.97 0 3.31564)
(12.1733 0 3.45468)
(12.3859 0 3.58524)
(12.6068 0 3.70609)
(12.8349 0 3.81609)
(13.0688 0 3.91428)
(13.3069 0 3.99988)
(13.5468 0 4.07235)
(13.8104 0 4.1317)
(10.0034 0 0.13505)
(10.0148 0 0.268013)
(10.035 0 0.399939)
(10.0632 0 0.531784)
(10.0988 0 0.664273)
(10.142 0 0.797968)