/*--------------------------------*- C++ -*----------------------------------*\
  =========                 |
  \\      /  F ield         | OpenFOAM: The Open Source CFD Toolbox
   \\    /   O peration     | Website:  https://openfoam.org
    \\  /    A nd           | Version:  dev
     \\/     M anipulation  |
\*---------------------------------------------------------------------------*/
FoamFile
{
    version     2.0;
    format      ascii;
    class       surfaceVectorField;
    location    "8";
    object      Uf;
}
// * * * * * * * * * * * * * * * * * * * * * * * * * * * * * * * * * * * * * //

dimensions      [0 1 -1 0 0 0 0];

internalField   nonuniform List<vector> 
5457
(
(9.92088 0 0.0251097)
(9.97125 0 0.0387459)
(9.82401 0 0.032827)
(9.92859 0 0.0485855)
(9.70961 0 0.0393124)
(9.85547 0 0.0587687)
(9.57543 0 0.0460121)
(9.7568 0 0.0705942)
(9.42137 0 0.0529496)
(9.63753 0 0.0830145)
(9.24754 0 0.0601671)
(9.4986 0 0.095938)
(9.05361 0 0.0678121)
(9.33929 0 0.109615)
(8.83891 0 0.076036)
(9.15873 0 0.124291)
(8.6025 0 0.084972)
(8.95608 0 0.14017)
(8.34324 0 0.0947471)
(8.73036 0 0.157437)
(8.05981 0 0.10549)
(8.48038 0 0.176275)
(7.75076 0 0.117331)
(8.20474 0 0.196863)
(7.41451 0 0.130399)
(7.9019 0 0.219368)
(7.04944 0 0.144815)
(7.57025 0 0.243931)
(6.65396 0 0.160678)
(7.20812 0 0.270641)
(6.22664 0 0.17805)
(6.81392 0 0.29951)
(5.76634 0 0.196934)
(6.38625 0 0.330424)
(5.27248 0 0.217239)
(5.92408 0 0.363094)
(4.74527 0 0.238742)
(5.427 0 0.396986)
(4.18609 0 0.261038)
(4.89554 0 0.431246)
(3.59785 0 0.283493)
(4.33153 0 0.464627)
(2.98544 0 0.305205)
(3.73849 0 0.495429)
(2.356 0 0.32507)
(3.12216 0 0.521514)
(1.71899 0 0.342547)
(2.49095 0 0.540555)
(1.08424 0 0.36188)
(1.85575 0 0.551668)
(0.451739 0 0.348658)
(1.24539 0 0.563015)
(-0.145899 0 0.102428)
(0.608806 0 0.544846)
(-0.423642 0 -0.207099)
(0.0946302 0 0.259334)
(-0.402164 0 -0.361248)
(-0.133725 0 -0.0205403)
(-0.119682 0 -0.393894)
(9.99641 0 0.0516728)
(9.99705 0 0.0405049)
(9.95879 0 0.0708622)
(9.97851 0 0.0674551)
(9.89824 0 0.0879878)
(9.93377 0 0.089871)
(9.81658 0 0.105986)
(9.86453 0 0.113556)
(9.71358 0 0.124923)
(9.77437 0 0.138517)
(9.58908 0 0.144856)
(9.66435 0 0.164649)
(9.44273 0 0.166093)
(9.53396 0 0.192336)
(9.27389 0 0.188971)
(9.38248 0 0.222036)
(9.08164 0 0.213788)
(9.20917 0 0.254155)
(8.86487 0 0.240822)
(9.01314 0 0.289072)
(8.62227 0 0.270345)
(8.79329 0 0.327162)
(8.35235 0 0.302616)
(8.54832 0 0.368798)
(8.05351 0 0.337868)
(8.27679 0 0.41433)
(7.72406 0 0.376275)
(7.97712 0 0.464062)
(7.3623 0 0.417916)
(7.64765 0 0.518207)
(6.96664 0 0.462722)
(7.28675 0 0.576826)
(6.53574 0 0.510402)
(6.89287 0 0.639746)
(6.06873 0 0.560348)
(6.46472 0 0.706448)
(5.56548 0 0.611534)
(6.00149 0 0.775929)
(5.02698 0 0.662396)
(5.50315 0 0.846541)
(4.45576 0 0.710716)
(4.97077 0 0.91582)
(3.85637 0 0.753544)
(4.40706 0 0.980316)
(3.23607 0 0.787195)
(3.81692 0 1.03546)
(2.6057 0 0.807494)
(3.20834 0 1.07548)
(1.98269 0 0.810454)
(2.59328 0 1.09313)
(1.4052 0 0.776874)
(1.9961 0 1.07706)
(0.929669 0 0.646366)
(1.41941 0 0.978368)
(0.439779 0 0.384291)
(0.937509 0 0.716755)
(0.0591346 0 -0.118654)
(0.443721 0 0.343472)
(0.174906 0 -0.335976)
(9.98903 0 0.0594314)
(9.99481 0 0.0458779)
(9.95434 0 0.0894775)
(9.97368 0 0.0848551)
(9.89729 0 0.118033)
(9.92984 0 0.119175)
(9.82046 0 0.1479)
(9.86357 0 0.153978)
(9.72416 0 0.179425)
(9.77735 0 0.190411)
(9.6082 0 0.212779)
(9.67226 0 0.228641)
(9.47233 0 0.248398)
(9.54809 0 0.269135)
(9.31606 0 0.286781)
(9.4043 0 0.312504)
(9.13867 0 0.328405)
(9.24033 0 0.359334)
(8.93922 0 0.373732)
(9.05547 0 0.410185)
(8.71661 0 0.423218)
(8.84887 0 0.465611)
(8.46956 0 0.47731)
(8.61948 0 0.526168)
(8.19663 0 0.536414)
(8.36611 0 0.59239)
(7.89627 0 0.600859)
(8.08747 0 0.664757)
(7.56685 0 0.670829)
(7.78214 0 0.743639)
(7.20676 0 0.746276)
(7.44866 0 0.829212)
(6.81448 0 0.826802)
(7.0856 0 0.921343)
(6.38878 0 0.911502)
(6.69161 0 1.01943)
(5.92893 0 0.998776)
(6.26562 0 1.12219)
(5.43503 0 1.08611)
(5.80701 0 1.22744)
(4.90843 0 1.16984)
(5.31596 0 1.33176)
(4.35231 0 1.2449)
(4.79386 0 1.4302)
(3.77247 0 1.30455)
(4.24385 0 1.51588)
(3.17862 0 1.33983)
(3.6717 0 1.57942)
(2.58653 0 1.3381)
(3.08621 0 1.60772)
(2.01977 0 1.27294)
(2.50283 0 1.58155)
(1.48687 0 1.09536)
(1.92865 0 1.4642)
(0.958245 0 0.769115)
(1.38519 0 1.21034)
(0.479847 0 0.202382)
(0.829501 0 0.800967)
(0.433711 0 0.134005)
(9.98515 0 0.0716146)
(9.99367 0 0.0531484)
(9.95039 0 0.113632)
(9.97087 0 0.102292)
(9.89436 0 0.154135)
(9.9269 0 0.147955)
(9.81882 0 0.195576)
(9.86185 0 0.193724)
(9.72441 0 0.238815)
(9.77746 0 0.241281)
(9.61112 0 0.28433)
(9.67466 0 0.291169)
(9.47873 0 0.332728)
(9.55342 0 0.343963)
(9.32693 0 0.384683)
(9.41335 0 0.400381)
(9.15521 0 0.440858)
(9.25399 0 0.461151)
(8.96289 0 0.501897)
(9.07482 0 0.526975)
(8.74913 0 0.568444)
(8.87517 0 0.598552)
(8.513 0 0.64113)
(8.65426 0 0.676582)
(8.25342 0 0.720551)
(8.41118 0 0.761743)
(7.9692 0 0.807213)
(8.14495 0 0.854662)
(7.65911 0 0.901462)
(7.85449 0 0.955846)
(7.32185 0 1.00337)
(7.53868 0 1.0656)
(6.95612 0 1.1126)
(7.19638 0 1.18388)
(6.56075 0 1.22816)
(6.82644 0 1.31011)
(6.13479 0 1.34819)
(6.42779 0 1.44295)
(5.67773 0 1.46962)
(5.99956 0 1.57993)
(5.18988 0 1.58778)
(5.54123 0 1.7171)
(4.67275 0 1.69603)
(5.05294 0 1.84855)
(4.12968 0 1.78514)
(4.53584 0 1.96583)
(3.56654 0 1.84251)
(3.99261 0 2.05729)
(2.99195 0 1.85069)
(3.42749 0 2.10711)
(2.41575 0 1.78244)
(2.84753 0 2.09444)
(1.84047 0 1.60039)
(2.25614 0 1.98867)
(1.25934 0 1.27835)
(1.66025 0 1.75296)
(0.66675 0 0.789453)
(1.02392 0 1.36766)
(0.52302 0 0.787045)
(9.98337 0 0.0844083)
(9.99316 0 0.061292)
(9.94821 0 0.136839)
(9.96958 0 0.119928)
(9.89314 0 0.188034)
(9.92575 0 0.176242)
(9.81906 0 0.240172)
(9.86199 0 0.232701)
(9.72662 0 0.294472)
(9.77963 0 0.291091)
(9.61589 0 0.351665)
(9.67939 0 0.35228)
(9.4867 0 0.412478)
(9.56127 0 0.416985)
(9.33877 0 0.477686)
(9.42496 0 0.486018)
(9.17169 0 0.548063)
(9.27008 0 0.560217)
(8.9849 0 0.62437)
(9.09618 0 0.640402)
(8.77776 0 0.707362)
(8.90272 0 0.727386)
(8.5495 0 0.797786)
(8.68904 0 0.821978)
(8.29931 0 0.89635)
(8.4544 0 0.924967)
(8.02629 0 1.00368)
(8.19803 0 1.03708)
(7.72951 0 1.12023)
(7.91906 0 1.15895)
(7.40798 0 1.2462)
(7.61662 0 1.29096)
(7.06068 0 1.3813)
(7.28977 0 1.43318)
(6.6866 0 1.52462)
(6.93754 0 1.58514)
(6.28475 0 1.67422)
(6.55889 0 1.74554)
(5.85427 0 1.82681)
(6.15276 0 1.91192)
(5.39459 0 1.97727)
(5.7181 0 2.08019)
(4.90563 0 2.11806)
(5.25395 0 2.2441)
(4.38812 0 2.2386)
(4.75961 0 2.39461)
(3.84382 0 2.32452)
(4.23482 0 2.51918)
(3.27532 0 2.35691)
(3.67976 0 2.6012)
(2.6853 0 2.31052)
(3.09561 0 2.61964)
(2.07261 0 2.15492)
(2.48159 0 2.54723)
(1.42932 0 1.86729)
(1.83984 0 2.35361)
(0.742583 0 1.41945)
(1.13132 0 2.02439)
(0.543285 0 1.51436)
(9.98264 0 0.0974986)
(9.99299 0 0.0697934)
(9.94744 0 0.159776)
(9.96925 0 0.137585)
(9.89354 0 0.22135)
(9.92597 0 0.203929)
(9.82133 0 0.284096)
(9.86381 0 0.270691)
(9.73134 0 0.349353)
(9.78385 0 0.339587)
(9.62366 0 0.418026)
(9.68664 0 0.411703)
(9.49818 0 0.490947)
(9.57217 0 0.487911)
(9.35464 0 0.568986)
(9.44021 0 0.569115)
(9.19267 0 0.653019)
(9.29042 0 0.656248)
(9.01181 0 0.743915)
(9.12241 0 0.750231)
(8.81148 0 0.842538)
(8.93569 0 0.851978)
(8.59105 0 0.949735)
(8.7297 0 0.962392)
(8.34981 0 1.06631)
(8.50378 0 1.08235)
(8.08701 0 1.193)
(8.25724 0 1.21268)
(7.80186 0 1.33034)
(7.98932 0 1.35408)
(7.49352 0 1.47864)
(7.69923 0 1.50707)
(7.1611 0 1.63773)
(7.38609 0 1.67181)
(6.80363 0 1.80679)
(7.04894 0 1.84796)
(6.42 0 1.98401)
(6.68665 0 2.03441)
(6.00901 0 2.16617)
(6.2979 0 2.22888)
(5.56928 0 2.34813)
(5.88107 0 2.42752)
(5.09933 0 2.52222)
(5.4342 0 2.62428)
(4.59761 0 2.67756)
(4.95497 0 2.8103)
(4.06256 0 2.79946)
(4.4407 0 2.97321)
(3.49257 0 2.86905)
(3.88838 0 3.09658)
(2.88571 0 2.86284)
(3.2951 0 3.15982)
(2.23792 0 2.75382)
(2.65678 0 3.1378)
(1.54237 0 2.5209)
(1.97475 0 3.00306)
(0.793613 0 2.13119)
(1.20718 0 2.74044)
(0.55671 0 2.29165)
(9.9825 0 0.110627)
(9.99302 0 0.078362)
(9.9477 0 0.182326)
(9.96954 0 0.155038)
(9.89522 0 0.25382)
(9.92722 0 0.230888)
(9.82524 0 0.326771)
(9.86697 0 0.307512)
(9.73813 0 0.40256)
(9.78977 0 0.386527)
(9.63403 0 0.482241)
(9.69605 0 0.469154)
(9.51285 0 0.566767)
(9.58579 0 0.556406)
(9.37437 0 0.657105)
(9.45879 0 0.649282)
(9.21827 0 0.754229)
(9.3148 0 0.748802)
(9.04412 0 0.859105)
(9.15345 0 0.855982)
(8.85142 0 0.972687)
(8.97432 0 0.971825)
(8.63959 0 1.09591)
(8.77688 0 1.09733)
(8.40799 0 1.22968)
(8.56055 0 1.23345)
(8.1559 0 1.37479)
(8.32465 0 1.38112)
(7.88258 0 1.53191)
(8.06847 0 1.54113)
(7.5872 0 1.70143)
(7.79119 0 1.7141)
(7.26881 0 1.88335)
(7.49188 0 1.90036)
(6.92633 0 2.07703)
(7.16945 0 2.09976)
(6.5584 0 2.28091)
(6.82255 0 2.31145)
(6.16335 0 2.4921)
(6.44947 0 2.53355)
(5.73899 0 2.70587)
(6.04796 0 2.7627)
(5.28259 0 2.91501)
(5.6151 0 2.9935)
(4.79068 0 3.10916)
(5.14709 0 3.21787)
(4.25914 0 3.27417)
(4.63922 0 3.42426)
(3.68324 0 3.3918)
(4.08589 0 3.5971)
(3.05791 0 3.43959)
(3.48116 0 3.71645)
(2.37762 0 3.39166)
(2.81823 0 3.758)
(1.63783 0 3.22601)
(2.09904 0 3.69382)
(0.839088 0 2.90066)
(1.27885 0 3.50428)
(0.573327 0 3.11349)
(9.98273 0 0.123582)
(9.99316 0 0.086818)
(9.94873 0 0.204311)
(9.97027 0 0.172094)
(9.89794 0 0.285255)
(9.92926 0 0.256977)
(9.83051 0 0.367969)
(9.87123 0 0.342991)
(9.74671 0 0.453857)
(9.79715 0 0.431683)
(9.64668 0 0.544085)
(9.70735 0 0.524358)
(9.53038 0 0.639718)
(9.6018 0 0.622145)
(9.39762 0 0.741814)
(9.48038 0 0.726138)
(9.24812 0 0.851433)
(9.34285 0 0.837441)
(9.08151 0 0.96963)
(9.18893 0 0.957153)
(8.89734 0 1.09745)
(9.01823 0 1.08637)
(8.69507 0 1.23592)
(8.83027 0 1.22617)
(8.47409 0 1.38602)
(8.62452 0 1.37762)
(8.23372 0 1.54868)
(8.40033 0 1.54173)
(7.97317 0 1.72466)
(8.15697 0 1.71943)
(7.69155 0 1.9145)
(7.89358 0 1.91149)
(7.38777 0 2.11841)
(7.60913 0 2.11843)
(7.06053 0 2.33603)
(7.30233 0 2.34036)
(6.7081 0 2.56619)
(6.97155 0 2.57683)
(6.32824 0 2.80654)
(6.6146 0 2.8265)
(5.91796 0 3.0531)
(6.22858 0 3.08676)
(5.4733 0 3.29956)
(5.80959 0 3.35322)
(4.98914 0 3.53666)
(5.35249 0 3.61901)
(4.45917 0 3.75139)
(4.8507 0 3.87399)
(3.87605 0 3.9264)
(4.29623 0 4.1039)
(3.23217 0 4.03974)
(3.68036 0 4.2896)
(2.52069 0 4.06483)
(2.99334 0 4.40663)
(1.73827 0 3.97593)
(2.23723 0 4.42438)
(0.889417 0 3.71852)
(1.36326 0 4.31604)
(0.598709 0 3.98462)
(9.98321 0 0.136204)
(9.99339 0 0.0950409)
(9.95032 0 0.225574)
(9.97131 0 0.18859)
(9.90151 0 0.315499)
(9.93193 0 0.282051)
(9.83694 0 0.407507)
(9.87643 0 0.376963)
(9.75684 0 0.503018)
(9.80579 0 0.474845)
(9.66135 0 0.603285)
(9.7203 0 0.577057)
(9.55046 0 0.70947)
(9.61995 0 0.684824)
(9.42403 0 0.822716)
(9.50465 0 0.799329)
(9.28183 0 0.944165)
(9.37422 0 0.921751)
(9.12355 0 1.07496)
(9.22843 0 1.05327)
(8.94878 0 1.21622)
(9.06695 0 1.19507)
(8.75703 0 1.36908)
(8.88936 0 1.34831)
(8.54774 0 1.53463)
(8.69518 0 1.51416)
(8.32021 0 1.71389)
(8.48379 0 1.69376)
(8.07365 0 1.9078)
(8.25447 0 1.88816)
(7.80708 0 2.11709)
(8.00631 0 2.09833)
(7.51925 0 2.34223)
(7.73819 0 2.32504)
(7.20859 0 2.58323)
(7.44865 0 2.56876)
(6.873 0 2.83946)
(7.13575 0 2.82953)
(6.50965 0 3.10934)
(6.7969 0 3.10672)
(6.11474 0 3.38987)
(6.42854 0 3.39869)
(5.68315 0 3.67607)
(6.02589 0 3.70236)
(5.2082 0 3.96023)
(5.5825 0 4.01253)
(4.68146 0 4.23097)
(5.09001 0 4.32098)
(4.09298 0 4.47224)
(4.53794 0 4.61535)
(3.43222 0 4.66241)
(3.91436 0 4.87776)
(2.68987 0 4.77295)
(3.20536 0 5.0834)
(1.86165 0 4.77213)
(2.411 0 5.1977)
(0.954069 0 4.5894)
(1.47609 0 5.18396)
(0.639103 0 4.91907)
(9.98386 0 0.14837)
(9.99368 0 0.102944)
(9.95235 0 0.245972)
(9.9726 0 0.204395)
(9.90578 0 0.344402)
(9.9351 0 0.305972)
(9.84437 0 0.445202)
(9.88241 0 0.409273)
(9.76833 0 0.549817)
(9.81552 0 0.515821)
(9.6778 0 0.659568)
(9.73471 0 0.627018)
(9.57281 0 0.775699)
(9.63999 0 0.744168)
(9.45327 0 0.899433)
(9.5313 0 0.86853)
(9.31901 0 1.03199)
(9.40853 0 1.00136)
(9.16977 0 1.17458)
(9.27151 0 1.1439)
(9.00521 0 1.32843)
(9.11999 0 1.29741)
(8.82491 0 1.49475)
(8.9536 0 1.46316)
(8.62832 0 1.67475)
(8.77193 0 1.64241)
(8.41482 0 1.8696)
(8.5744 0 1.83642)
(8.18357 0 2.0804)
(8.36034 0 2.04641)
(7.93355 0 2.30813)
(8.12885 0 2.27357)
(7.66341 0 2.55359)
(7.87875 0 2.51896)
(7.37135 0 2.81727)
(7.60847 0 2.78349)
(7.05494 0 3.09921)
(7.31588 0 3.06778)
(6.71088 0 3.39874)
(6.99808 0 3.37206)
(6.33464 0 3.71416)
(6.65103 0 3.69588)
(5.92005 0 4.04216)
(6.26921 0 4.03775)
(5.45893 0 4.3771)
(5.84507 0 4.39459)
(4.94069 0 4.70988)
(5.3685 0 4.76075)
(4.35231 0 5.02646)
(4.82637 0 5.12671)
(3.67917 0 5.30602)
(4.20271 0 5.47695)
(2.90712 0 5.51792)
(3.47743 0 5.78726)
(2.02735 0 5.62265)
(2.64461 0 6.01916)
(1.04493 0 5.52901)
(1.63741 0 6.12346)
(0.704324 0 5.94251)
(9.98465 0 0.159982)
(9.99402 0 0.110463)
(9.95473 0 0.265383)
(9.97409 0 0.219401)
(9.91065 0 0.371823)
(9.93868 0 0.328614)
(9.85267 0 0.480888)
(9.88905 0 0.43978)
(9.781 0 0.594051)
(9.82619 0 0.554439)
(9.69581 0 0.71269)
(9.75038 0 0.674033)
(9.59716 0 0.83812)
(9.66167 0 0.799927)
(9.48502 0 0.971633)
(9.56003 0 0.93345)
(9.35927 0 1.11451)
(9.44543 0 1.07591)
(9.21973 0 1.26805)
(9.31776 0 1.22864)
(9.06612 0 1.43355)
(9.17684 0 1.39295)
(8.8981 0 1.61232)
(9.0224 0 1.57019)
(8.7152 0 1.80568)
(8.85409 0 1.76173)
(8.51683 0 2.01495)
(8.67144 0 1.96896)
(8.30222 0 2.24144)
(8.47382 0 2.19328)
(8.07035 0 2.48639)
(8.26041 0 2.43609)
(7.81982 0 2.75099)
(8.03007 0 2.6988)
(7.54875 0 3.03629)
(7.78123 0 2.98278)
(7.25453 0 3.34309)
(7.51173 0 3.28933)
(6.93354 0 3.67182)
(7.21856 0 3.61961)
(6.58076 0 4.02228)
(6.89747 0 3.97453)
(6.18925 0 4.39324)
(6.54253 0 4.35447)
(5.74951 0 4.7817)
(6.14545 0 4.75893)
(5.24879 0 5.18177)
(5.69475 0 5.18565)
(4.67056 0 5.58278)
(5.17468 0 5.62926)
(3.99448 0 5.96641)
(4.56462 0 6.07876)
(3.19798 0 6.30143)
(3.83581 0 6.5134)
(2.26139 0 6.54023)
(2.9703 0 6.89368)
(1.18037 0 6.5645)
(1.87871 0 7.15724)
(0.812588 0 7.09861)
(9.98553 0 0.170964)
(9.9944 0 0.117547)
(9.95739 0 0.2837)
(9.97572 0 0.23352)
(9.91601 0 0.397638)
(9.94259 0 0.349871)
(9.8617 0 0.514416)
(9.89624 0 0.468354)
(9.79469 0 0.635541)
(9.83765 0 0.590545)
(9.71517 0 0.762437)
(9.76714 0 0.717916)
(9.62325 0 0.896479)
(9.68476 0 0.851885)
(9.51895 0 1.03902)
(9.59056 0 0.993832)
(9.40221 0 1.1914)
(9.48457 0 1.14513)
(9.27294 0 1.35497)
(9.36674 0 1.30714)
(9.13094 0 1.53112)
(9.23699 0 1.48126)
(8.97596 0 1.72124)
(9.09515 0 1.66891)
(8.80762 0 1.92676)
(8.94096 0 1.87155)
(8.62544 0 2.14915)
(8.77407 0 2.09069)
(8.42874 0 2.38992)
(8.59399 0 2.32789)
(8.21657 0 2.65061)
(8.39999 0 2.5848)
(7.98764 0 2.93282)
(8.1911 0 2.86314)
(7.7401 0 3.23817)
(7.96588 0 3.16478)
(7.47138 0 3.5683)
(7.72235 0 3.49167)
(7.17785 0 3.92483)
(7.45763 0 3.84599)
(6.85437 0 4.30928)
(7.16768 0 4.23003)
(6.49366 0 4.72278)
(6.84666 0 4.64628)
(6.08546 0 5.16564)
(6.48624 0 5.09714)
(5.61533 0 5.63638)
(6.07438 0 5.5846)
(5.06318 0 6.12981)
(5.59362 0 6.10914)
(4.40172 0 6.63363)
(5.01908 0 6.66754)
(3.59558 0 7.12088)
(4.31193 0 7.24833)
(2.60379 0 7.54004)
(3.43498 0 7.81973)
(1.39395 0 7.73959)
(2.25584 0 8.31423)
(1.00226 0 8.46389)
(9.9865 0 0.181253)
(9.9948 0 0.124156)
(9.96027 0 0.300833)
(9.97747 0 0.24668)
(9.92177 0 0.421735)
(9.94676 0 0.369647)
(9.87134 0 0.545653)
(9.90388 0 0.494887)
(9.80924 0 0.674127)
(9.84978 0 0.624007)
(9.73568 0 0.808621)
(9.78479 0 0.758511)
(9.65081 0 0.950555)
(9.70903 0 0.899855)
(9.55472 0 1.10133)
(9.62259 0 1.04946)
(9.44743 0 1.26233)
(9.52556 0 1.20874)
(9.32892 0 1.43498)
(9.418 0 1.37911)
(9.19909 0 1.62071)
(9.2999 0 1.56201)
(9.0578 0 1.82099)
(9.1712 0 1.75892)
(8.9048 0 2.03735)
(9.03177 0 1.97137)
(8.73974 0 2.27142)
(8.88142 0 2.20098)
(8.56209 0 2.52487)
(8.7198 0 2.44947)
(8.37108 0 2.79955)
(8.5464 0 2.71868)
(8.1656 0 3.09742)
(8.36048 0 3.01064)
(7.94408 0 3.42067)
(8.16089 0 3.32764)
(7.70421 0 3.77178)
(7.94602 0 3.67229)
(7.44272 0 4.15357)
(7.7135 0 4.04765)
(7.15485 0 4.56929)
(7.45987 0 4.45741)
(6.83372 0 5.02266)
(7.18011 0 4.90606)
(6.46927 0 5.51781)
(6.86683 0 5.3991)
(6.04664 0 6.05886)
(6.50897 0 5.94324)
(5.54357 0 6.64881)
(6.08958 0 6.54636)
(4.92645 0 7.28692)
(5.5825 0 7.21686)
(4.14426 0 7.9611)
(4.9417 0 7.96143)
(3.12099 0 8.63286)
(4.10832 0 8.77518)
(1.75566 0 9.12665)
(2.87745 0 9.61989)
(1.3641 0 10.1835)
(9.98754 0 0.190799)
(9.99523 0 0.13026)
(9.96332 0 0.316707)
(9.97932 0 0.258824)
(9.92786 0 0.444023)
(9.95115 0 0.387868)
(9.88148 0 0.574491)
(9.91188 0 0.519286)
(9.82449 0 0.709683)
(9.86244 0 0.654716)
(9.75713 0 0.851092)
(9.80318 0 0.795687)
(9.67959 0 1.00017)
(9.73426 0 0.943682)
(9.59202 0 1.15836)
(9.65584 0 1.10016)
(9.49452 0 1.32709)
(9.56807 0 1.26655)
(9.38717 0 1.50781)
(9.47109 0 1.4443)
(9.26997 0 1.702)
(9.36501 0 1.6349)
(9.14291 0 1.91119)
(9.24988 0 1.83985)
(9.00588 0 2.13701)
(9.12573 0 2.06076)
(8.85871 0 2.38116)
(8.99252 0 2.29932)
(8.70107 0 2.64552)
(8.85012 0 2.55734)
(8.53246 0 2.93213)
(8.69827 0 2.83686)
(8.35209 0 3.24332)
(8.53656 0 3.14012)
(8.1588 0 3.58176)
(8.36428 0 3.46976)
(7.95084 0 3.95064)
(8.18038 0 3.82888)
(7.72566 0 4.35384)
(7.98326 0 4.22131)
(7.47952 0 4.79622)
(7.77055 0 4.65183)
(7.20685 0 5.28396)
(7.53876 0 5.12665)
(6.89925 0 5.82504)
(7.28264 0 5.65396)
(6.54376 0 6.4298)
(6.99421 0 6.24491)
(6.11963 0 7.11164)
(6.66072 0 6.91498)
(5.59212 0 7.88765)
(6.26159 0 7.68641)
(4.89975 0 8.77764)
(5.75638 0 8.59264)
(3.92558 0 9.80072)
(5.08579 0 9.68477)
(2.4321 0 10.855)
(3.97769 0 11.0481)
(2.14491 0 12.5656)
(9.98862 0 0.199563)
(9.99567 0 0.135835)
(9.96652 0 0.331261)
(9.98124 0 0.269905)
(9.9342 0 0.464419)
(9.95571 0 0.404471)
(9.89203 0 0.600822)
(9.92017 0 0.541475)
(9.84031 0 0.742069)
(9.87553 0 0.682584)
(9.77933 0 0.889675)
(9.82217 0 0.829341)
(9.70933 0 1.04512)
(9.76029 0 0.983249)
(9.63052 0 1.20986)
(9.69011 0 1.14578)
(9.54309 0 1.38536)
(9.61187 0 1.31839)
(9.44719 0 1.57308)
(9.52579 0 1.50254)
(9.34297 0 1.77455)
(9.43208 0 1.69972)
(9.23053 0 1.99132)
(9.33094 0 1.91147)
(9.10996 0 2.22508)
(9.22255 0 2.13942)
(8.98126 0 2.47762)
(9.10705 0 2.38531)
(8.84438 0 2.7509)
(8.98457 0 2.65102)
(8.69912 0 3.04716)
(8.85516 0 2.93866)
(8.54514 0 3.36895)
(8.71878 0 3.25066)
(8.38182 0 3.7193)
(8.57527 0 3.58983)
(8.20821 0 4.10192)
(8.4243 0 3.95961)
(8.02285 0 4.52148)
(8.26527 0 4.36426)
(7.82355 0 4.984)
(8.09729 0 4.80925)
(7.60702 0 5.49754)
(7.91899 0 5.30182)
(7.3682 0 6.07314)
(7.72838 0 5.85183)
(7.09918 0 6.72644)
(7.52257 0 6.4732)
(6.78677 0 7.48063)
(7.2973 0 7.1865)
(6.40741 0 8.37238)
(7.04708 0 8.0241)
(5.91404 0 9.46606)
(6.76163 0 9.04242)
(5.1941 0 10.9077)
(6.45986 0 10.357)
(3.88217 0 13.1762)
(6.18632 0 12.3027)
(5.25349 0 16.3679)
(0.191362 0 -0.11423)
(0.112378 0 -0.187427)
(0.373969 0 -0.097142)
(0.273248 0 -0.174629)
(0.524376 0 -0.0739825)
(0.433948 0 -0.140437)
(0.641177 0 -0.0528085)
(0.569189 0 -0.106484)
(0.727838 0 -0.0350002)
(0.674083 0 -0.0771404)
(0.788323 0 -0.0203561)
(0.752125 0 -0.0525681)
(0.826272 0 -0.00845231)
(0.807831 0 -0.0322027)
(0.84507 0 0.0010014)
(0.844941 0 -0.0155753)
(0.848325 0 0.00789172)
(0.866492 0 -0.00263301)
(0.838557 0 0.012349)
(0.875241 0 0.00771549)
(0.819485 0 0.0150219)
(0.873085 0 0.0147086)
(0.79387 0 0.016374)
(0.862542 0 0.0192875)
(0.764087 0 0.0166689)
(0.84624 0 0.0218972)
(0.732299 0 0.0161072)
(0.826447 0 0.0228189)
(0.700433 0 0.0148819)
(0.805176 0 0.0223346)
(0.670119 0 0.0132026)
(0.784206 0 0.0207449)
(0.642599 0 0.0112904)
(0.764987 0 0.0183882)
(0.618678 0 0.00935516)
(0.748548 0 0.0156061)
(0.598699 0 0.00757299)
(0.735452 0 0.0127267)
(0.582566 0 0.00606583)
(0.7258 0 0.0100334)
(0.569841 0 0.00489195)
(0.719297 0 0.00772759)
(0.559871 0 0.00405364)
(0.715368 0 0.0059111)
(0.551911 0 0.00350644)
(0.713289 0 0.00460833)
(0.54522 0 0.00317153)
(0.712299 0 0.00378216)
(0.539176 0 0.00297356)
(0.711731 0 0.00333537)
(0.533327 0 0.00285906)
(0.711103 0 0.00315194)
(0.527384 0 0.00278357)
(0.710116 0 0.00312651)
(0.521202 0 0.00269105)
(0.70862 0 0.00317559)
(0.514835 0 0.0023575)
(0.706558 0 0.00319341)
(0.703721 0 0.00260209)
(0.177184 0 -0.272757)
(0.0940073 0 -0.360968)
(0.347623 0 -0.239123)
(0.243028 0 -0.337621)
(0.491341 0 -0.189253)
(0.383892 0 -0.27463)
(0.607524 0 -0.142834)
(0.50397 0 -0.212403)
(0.699583 0 -0.103423)
(0.599689 0 -0.159086)
(0.771121 0 -0.0706924)
(0.674493 0 -0.114743)
(0.825321 0 -0.0437466)
(0.73207 0 -0.0781957)
(0.864913 0 -0.0218292)
(0.775368 0 -0.0483792)
(0.891787 0 -0.00438476)
(0.806774 0 -0.0243729)
(0.908189 0 0.00890657)
(0.828331 0 -0.00524031)
(0.91489 0 0.0183959)
(0.842323 0 0.00954118)
(0.914003 0 0.0246009)
(0.848924 0 0.0199551)
(0.907955 0 0.0279954)
(0.850056 0 0.0263437)
(0.898852 0 0.029015)
(0.847597 0 0.0293534)
(0.888615 0 0.0280907)
(0.843202 0 0.0295098)
(0.878873 0 0.0256895)
(0.838359 0 0.0274114)
(0.870849 0 0.0223119)
(0.83428 0 0.0237498)
(0.865332 0 0.0184626)
(0.831813 0 0.0192056)
(0.862652 0 0.014606)
(0.831395 0 0.0144336)
(0.862707 0 0.0111131)
(0.833058 0 0.00999925)
(0.865055 0 0.00821797)
(0.836478 0 0.00630212)
(0.869042 0 0.00601537)
(0.841024 0 0.00354706)
(0.873918 0 0.00452402)
(0.845859 0 0.0017854)
(0.87898 0 0.00368881)
(0.850625 0 0.000921266)
(0.883728 0 0.00335316)
(0.85508 0 0.000714818)
(0.887867 0 0.00333416)
(0.859156 0 0.000921416)
(0.891277 0 0.00348002)
(0.862874 0 0.00133284)
(0.89394 0 0.00365365)
(0.866287 0 0.00180721)
(0.895883 0 0.00355647)
(0.869273 0 0.00221922)
(0.871966 0 0.00233406)
(0.150151 0 -0.432339)
(0.0737554 0 -0.508032)
(0.290099 0 -0.380102)
(0.199096 0 -0.471453)
(0.406448 0 -0.304272)
(0.306586 0 -0.383267)
(0.500496 0 -0.234215)
(0.39872 0 -0.298144)
(0.575724 0 -0.174958)
(0.471781 0 -0.226049)
(0.635075 0 -0.125851)
(0.529655 0 -0.166325)
(0.681035 0 -0.0855726)
(0.575006 0 -0.117197)
(0.71578 0 -0.0529647)
(0.60984 0 -0.0771663)
(0.741498 0 -0.0269002)
(0.635915 0 -0.0451785)
(0.760669 0 -0.00628307)
(0.654912 0 -0.0203826)
(0.774929 0 0.00938355)
(0.669398 0 -0.00145649)
(0.783887 0 0.0202588)
(0.680773 0 0.01321)
(0.788901 0 0.0267542)
(0.687992 0 0.0226571)
(0.791312 0 0.0294231)
(0.692412 0 0.0276227)
(0.792452 0 0.0289251)
(0.69512 0 0.0287108)
(0.793417 0 0.0260182)
(0.697063 0 0.0267507)
(0.795024 0 0.0215074)
(0.698971 0 0.0226764)
(0.797768 0 0.0162062)
(0.701316 0 0.0174152)
(0.801802 0 0.0108737)
(0.704296 0 0.0118644)
(0.806925 0 0.00612283)
(0.707835 0 0.00681313)
(0.812605 0 0.00237047)
(0.711656 0 0.00285251)
(0.818016 0 -0.00014082)
(0.715199 0 0.000339233)
(0.822753 0 -0.00144645)
(0.717974 0 -0.000956866)
(0.82683 0 -0.001804)
(0.719901 0 -0.00138371)
(0.830488 0 -0.00150703)
(0.721089 0 -0.00130388)
(0.834045 0 -0.000878143)
(0.721773 0 -0.000995199)
(0.837754 0 -0.00014386)
(0.722129 0 -0.000618431)
(0.841622 0 0.000596968)
(0.722395 0 -0.000179826)
(0.84516 0 0.00128197)
(0.722559 0 0.000444531)
(0.722486 0 0.00138957)
(0.120351 0 -0.556789)
(0.0534032 0 -0.625908)
(0.224246 0 -0.484661)
(0.149358 0 -0.570809)
(0.307109 0 -0.386996)
(0.217161 0 -0.460638)
(0.373537 0 -0.29898)
(0.277578 0 -0.358705)
(0.426954 0 -0.225251)
(0.323618 0 -0.273597)
(0.469506 0 -0.164271)
(0.36064 0 -0.203307)
(0.502871 0 -0.114195)
(0.390063 0 -0.14551)
(0.528382 0 -0.0736326)
(0.413023 0 -0.0983028)
(0.547424 0 -0.0416666)
(0.430442 0 -0.0605832)
(0.561785 0 -0.0172343)
(0.443373 0 -0.0317257)
(0.573526 0 0.000961304)
(0.452701 0 -0.0105111)
(0.583463 0 0.0140117)
(0.462343 0 0.00572709)
(0.59048 0 0.0223946)
(0.469752 0 0.0174985)
(0.595355 0 0.0262921)
(0.474512 0 0.0241232)
(0.599053 0 0.0263601)
(0.477335 0 0.026119)
(0.602133 0 0.0235646)
(0.478872 0 0.024643)
(0.604952 0 0.0189367)
(0.479448 0 0.0207924)
(0.6077 0 0.0135055)
(0.479244 0 0.0156223)
(0.610356 0 0.00823612)
(0.478363 0 0.0101726)
(0.612723 0 0.0039298)
(0.476791 0 0.00534123)
(0.614508 0 0.00107408)
(0.474487 0 0.00176818)
(0.61552 0 -0.000408113)
(0.471583 0 -0.000260656)
(0.615421 0 -0.00100404)
(0.467806 0 -0.00089957)
(0.614364 0 -0.00115773)
(0.462417 0 -0.000786076)
(0.612432 0 -0.00113507)
(0.45522 0 -0.00023797)
(0.609699 0 -0.00104371)
(0.446498 0 0.000477664)
(0.606599 0 -0.00086898)
(0.436803 0 0.0010126)
(0.603338 0 -0.000522885)
(0.426709 0 0.0014956)
(0.599961 0 0.000234486)
(0.416785 0 0.00213818)
(0.406627 0 0.00291902)
(0.0857394 0 -0.647884)
(0.0320287 0 -0.709884)
(0.149394 0 -0.555092)
(0.0931997 0 -0.631682)
(0.195067 0 -0.440527)
(0.116417 0 -0.503283)
(0.230569 0 -0.340871)
(0.142763 0 -0.39107)
(0.258875 0 -0.258352)
(0.158343 0 -0.298793)
(0.281473 0 -0.190316)
(0.171157 0 -0.222948)
(0.299442 0 -0.134421)
(0.181181 0 -0.160758)
(0.313356 0 -0.0890707)
(0.189168 0 -0.109831)
(0.323824 0 -0.0534181)
(0.195456 0 -0.0690515)
(0.331964 0 -0.0262188)
(0.200463 0 -0.0381555)
(0.339292 0 -0.00549228)
(0.204009 0 -0.0161627)
(0.347345 0 0.00943548)
(0.20885 0 -0.000336255)
(0.352338 0 0.018769)
(0.210236 0 0.0138272)
(0.355208 0 0.0233552)
(0.209583 0 0.0220633)
(0.356221 0 0.0239499)
(0.206104 0 0.0254085)
(0.355554 0 0.0215628)
(0.200187 0 0.0250996)
(0.353358 0 0.0172137)
(0.191758 0 0.0222596)
(0.34977 0 0.0119899)
(0.180582 0 0.0179635)
(0.34492 0 0.00692332)
(0.167206 0 0.0132618)
(0.338962 0 0.00280661)
(0.152442 0 0.00904672)
(0.332172 0 0.000143705)
(0.136632 0 0.00589143)
(0.324473 0 -0.00100812)
(0.120916 0 0.00430425)
(0.315367 0 -0.000869038)
(0.105627 0 0.00437189)
(0.303776 0 0.000194405)
(0.0906303 0 0.00576554)
(0.289517 0 0.00158736)
(0.0759283 0 0.00763142)
(0.273485 0 0.00281889)
(0.0614201 0 0.00911627)
(0.256671 0 0.00375367)
(0.0468947 0 0.00985893)
(0.240044 0 0.00459911)
(0.0320181 0 0.0100372)
(0.224679 0 0.00523211)
(0.0173129 0 0.0098444)
(0.00364948 0 0.00848664)
(0.0462405 0 -0.700687)
(0.00858842 0 -0.755174)
(0.0652699 0 -0.587033)
(0.0296092 0 -0.64988)
(0.0711536 0 -0.460407)
(0.00558554 0 -0.508777)
(0.0731398 0 -0.354726)
(-0.0051625 0 -0.392881)
(0.0728129 0 -0.268241)
(-0.0231642 0 -0.298502)
(0.0716342 0 -0.19753)
(-0.0387746 0 -0.221923)
(0.070297 0 -0.139723)
(-0.0528553 0 -0.159624)
(0.0692025 0 -0.0929247)
(-0.0646234 0 -0.108924)
(0.0686498 0 -0.056709)
(-0.0742505 0 -0.0686045)
(0.0696878 0 -0.0312771)
(-0.0831644 0 -0.0389754)
(0.0716595 0 -0.0131579)
(-0.0947877 0 -0.0176832)
(0.0694225 0 0.00282553)
(-0.10943 0 0.00134819)
(0.0656807 0 0.0158772)
(-0.118769 0 0.0165781)
(0.0587179 0 0.0234866)
(-0.128271 0 0.0270616)
(0.0488514 0 0.0264846)
(-0.139983 0 0.0323239)
(0.0355762 0 0.0263456)
(-0.153999 0 0.0341843)
(0.018516 0 0.0241189)
(-0.17059 0 0.0336588)
(-0.00202768 0 0.0206253)
(-0.190011 0 0.0313661)
(-0.0249911 0 0.0167554)
(-0.211631 0 0.0278892)
(-0.049181 0 0.013335)
(-0.234491 0 0.0240915)
(-0.0735472 0 0.0110583)
(-0.258042 0 0.0206879)
(-0.0969088 0 0.0104165)
(-0.281124 0 0.0181556)
(-0.118072 0 0.0111732)
(-0.302746 0 0.0166235)
(-0.136269 0 0.0126047)
(-0.32191 0 0.0160513)
(-0.151706 0 0.0140645)
(-0.33794 0 0.0161506)
(-0.165369 0 0.0149995)
(-0.351085 0 0.0164789)
(-0.178258 0 0.0151913)
(-0.362468 0 0.0166398)
(-0.19069 0 0.0145913)
(-0.373425 0 0.0164235)
(-0.201852 0 0.012772)
(-0.384126 0 0.0154431)
(-0.392442 0 0.0132021)
(-0.00233859 0 -0.709018)
(-0.0192942 0 -0.752883)
(-0.0283314 0 -0.575659)
(-0.0431757 0 -0.625023)
(-0.0634241 0 -0.442398)
(-0.113943 0 -0.47601)
(-0.0985629 0 -0.336354)
(-0.166396 0 -0.360846)
(-0.131948 0 -0.251243)
(-0.22083 0 -0.268785)
(-0.162051 0 -0.183295)
(-0.269355 0 -0.19576)
(-0.188074 0 -0.128998)
(-0.312574 0 -0.137541)
(-0.210076 0 -0.0854198)
(-0.34988 0 -0.0906948)
(-0.229868 0 -0.0503867)
(-0.381653 0 -0.052593)
(-0.251557 0 -0.0226405)
(-0.410296 0 -0.0218439)
(-0.276807 0 -0.000967925)
(-0.438092 0 0.00178975)
(-0.298784 0 0.0156981)
(-0.4641 0 0.0178967)
(-0.314859 0 0.0274915)
(-0.481312 0 0.0283965)
(-0.328847 0 0.0349154)
(-0.4969 0 0.0371033)
(-0.343957 0 0.0389843)
(-0.51249 0 0.0429139)
(-0.360889 0 0.0403661)
(-0.528704 0 0.0457715)
(-0.379539 0 0.0395963)
(-0.545885 0 0.0461208)
(-0.399603 0 0.0371928)
(-0.564095 0 0.0444556)
(-0.420784 0 0.0338131)
(-0.583228 0 0.0413815)
(-0.442626 0 0.0301796)
(-0.603112 0 0.0376759)
(-0.464552 0 0.0268417)
(-0.623458 0 0.0340024)
(-0.485798 0 0.0241181)
(-0.643742 0 0.0307527)
(-0.505489 0 0.0221096)
(-0.663227 0 0.0280227)
(-0.522719 0 0.0207441)
(-0.680896 0 0.0257901)
(-0.53699 0 0.0198989)
(-0.695792 0 0.0240266)
(-0.548528 0 0.0193882)
(-0.707627 0 0.0226962)
(-0.558082 0 0.0188927)
(-0.717018 0 0.0216663)
(-0.566299 0 0.0179229)
(-0.725063 0 0.0206445)
(-0.573555 0 0.0162146)
(-0.732261 0 0.0190825)
(-0.736971 0 0.017104)
(-0.0512147 0 -0.667958)
(-0.0533671 0 -0.702722)
(-0.128674 0 -0.52092)
(-0.124699 0 -0.550948)
(-0.208105 0 -0.387878)
(-0.243021 0 -0.401844)
(-0.284821 0 -0.285817)
(-0.340448 0 -0.290907)
(-0.355299 0 -0.205999)
(-0.432186 0 -0.20605)
(-0.418635 0 -0.143237)
(-0.512876 0 -0.140714)
(-0.47447 0 -0.0933433)
(-0.582874 0 -0.0901608)
(-0.522964 0 -0.0530732)
(-0.642525 0 -0.0505153)
(-0.564978 0 -0.0207519)
(-0.692606 0 -0.0186048)
(-0.599867 0 0.00347813)
(-0.731961 0 0.00571395)
(-0.626054 0 0.0196763)
(-0.762795 0 0.0219856)
(-0.646334 0 0.0305958)
(-0.785916 0 0.0331672)
(-0.664988 0 0.0392569)
(-0.806752 0 0.0421112)
(-0.681867 0 0.0459422)
(-0.824906 0 0.0492204)
(-0.697971 0 0.0500811)
(-0.841513 0 0.0542006)
(-0.714147 0 0.051698)
(-0.85747 0 0.0568419)
(-0.730717 0 0.0511063)
(-0.873306 0 0.0571925)
(-0.747749 0 0.0487993)
(-0.88925 0 0.0555671)
(-0.765304 0 0.0454611)
(-0.905443 0 0.0525639)
(-0.783395 0 0.041798)
(-0.922047 0 0.0489272)
(-0.801884 0 0.0382848)
(-0.939172 0 0.0452301)
(-0.820311 0 0.0350769)
(-0.956665 0 0.0416786)
(-0.837854 0 0.0321338)
(-0.973928 0 0.0381784)
(-0.853492 0 0.0294168)
(-0.989915 0 0.0346293)
(-0.866418 0 0.0269889)
(-1.00351 0 0.0311603)
(-0.876445 0 0.0249444)
(-1.01413 0 0.0280988)
(-0.884071 0 0.0232157)
(-1.02212 0 0.0256787)
(-0.890118 0 0.0214875)
(-1.02852 0 0.0237507)
(-0.895663 0 0.0196754)
(-1.03388 0 0.0218638)
(-1.03695 0 0.0202776)
(-0.107851 0 -0.576322)
(-0.0957829 0 -0.597088)
(-0.237311 0 -0.420503)
(-0.217907 0 -0.427144)
(-0.365297 0 -0.293226)