/*--------------------------------*- C++ -*----------------------------------*\
  =========                 |
  \\      /  F ield         | OpenFOAM: The Open Source CFD Toolbox
   \\    /   O peration     | Website:  https://openfoam.org
    \\  /    A nd           | Version:  dev
     \\/     M anipulation  |
\*---------------------------------------------------------------------------*/
FoamFile
{
    version     2.0;
    format      ascii;
    class       surfaceScalarField;
    location    "2.3";
    object      phi;
}
// * * * * * * * * * * * * * * * * * * * * * * * * * * * * * * * * * * * * * //

dimensions      [0 3 -1 0 0 0 0];

internalField   nonuniform List<scalar> 
5457
(
0.198417
0.00158257
0.19648
0.00193774
0.194191
0.00228863
0.191507
0.0026843
0.188425
0.00308207
0.184947
0.00347778
0.181067
0.00387971
0.176772
0.00429523
0.172042
0.0047295
0.166856
0.00518652
0.161186
0.0056698
0.155004
0.00618227
0.148278
0.00672611
0.140975
0.00730235
0.133065
0.00791034
0.124518
0.00854707
0.115312
0.00920627
0.105434
0.0098773
0.0948905
0.0105439
0.0837075
0.011183
0.0719436
0.0117639
0.0596964
0.0122473
0.047109
0.0125874
0.0343704
0.0127386
0.0216771
0.0126933
0.00902889
0.0126482
-0.00292011
0.011949
-0.00847259
0.00555248
-0.00804229
-0.000430295
-0.00804229
0.199928
0.0016546
0.199175
0.00269055
0.197964
0.00350013
0.19633
0.00431822
0.194269
0.00514302
0.191778
0.00596889
0.18885
0.00680784
0.185471
0.00767335
0.181625
0.00857572
0.177288
0.00952326
0.172435
0.0105232
0.167035
0.0115819
0.161057
0.012704
0.154467
0.0138923
0.147232
0.0151463
0.139318
0.0164608
0.130699
0.0178246
0.121359
0.0192176
0.111294
0.0206086
0.100525
0.0219525
0.0891013
0.0231876
0.0771147
0.0242339
0.06471
0.024992
0.0521041
0.0253446
0.0396455
0.0251518
0.0280976
0.0241962
0.0185876
0.021459
0.0087906
0.0153495
0.00118057
0.00717973
-0.00686172
0.19978
0.00187422
0.199086
0.00338477
0.197945
0.00464161
0.196407
0.00585555
0.19448
0.00707003
0.19216
0.00828895
0.189442
0.0095264
0.186315
0.0108
0.182766
0.0121249
0.178776
0.0135134
0.174322
0.0149766
0.16938
0.0165242
0.16392
0.0181638
0.157912
0.0199005
0.151323
0.0217354
0.144121
0.0236633
0.136275
0.0256705
0.127761
0.0277317
0.118564
0.0298054
0.108686
0.03183
0.098155
0.0337188
0.0870336
0.0353552
0.0754381
0.0365876
0.0635624
0.0372203
0.0517222
0.036992
0.0403887
0.0355297
0.0297318
0.0321159
0.0191613
0.02592
0.00959441
0.0167466
0.00273269
0.199703
0.00217134
0.199007
0.00408045
0.197886
0.00576269
0.196374
0.00736719
0.194485
0.00895903
0.192218
0.010556
0.18957
0.0121752
0.186532
0.0138372
0.183097
0.0155606
0.179249
0.0173612
0.174973
0.0192529
0.170249
0.021248
0.165056
0.0233566
0.159371
0.0255858
0.153168
0.027938
0.146422
0.0304091
0.139108
0.0329854
0.1312
0.0356392
0.122681
0.0383245
0.11354
0.0409705
0.103784
0.0434751
0.0934424
0.0456969
0.0825824
0.0474476
0.071321
0.0484816
0.0598307
0.0484823
0.0483084
0.047052
0.0368042
0.04362
0.0251832
0.037541
0.0133331
0.0285967
0.0160658
0.199667
0.00250412
0.198964
0.00478409
0.197862
0.00686458
0.196379
0.00884961
0.19453
0.0108087
0.192314
0.0127716
0.189729
0.0147602
0.186769
0.0167971
0.183426
0.0189036
0.179689
0.0210983
0.175545
0.0233972
0.170978
0.0258144
0.165974
0.0283616
0.160512
0.0310471
0.154576
0.0338744
0.148145
0.0368404
0.141198
0.0399316
0.133717
0.0431209
0.12568
0.0463613
0.117071
0.0495795
0.107878
0.0526679
0.0980999
0.0554749
0.0877511
0.0577964
0.0768666
0.0593662
0.0654982
0.0598507
0.0536993
0.0588509
0.0414472
0.0558721
0.0285831
0.0504052
0.0148499
0.0423299
0.0309157
0.199653
0.00285151
0.198948
0.00548854
0.19787
0.00794309
0.196425
0.0102945
0.194624
0.0126096
0.192469
0.0149262
0.189958
0.017271
0.187086
0.0196692
0.183846
0.0221443
0.180227
0.0247169
0.176219
0.0274051
0.171809
0.0302244
0.166983
0.0331876
0.161726
0.0363041
0.156022
0.0395783
0.149855
0.0430077
0.143206
0.0465804
0.136056
0.0502705
0.128384
0.0540335
0.120165
0.0577988
0.111371
0.0614616
0.101973
0.0648728
0.0919404
0.0678293
0.0812412
0.0700654
0.0698431
0.0712487
0.0577078
0.0709862
0.0447537
0.0688262
0.0308443
0.0643145
0.0158707
0.0573035
0.0467864
0.19965
0.00320165
0.198953
0.00618492
0.197903
0.00899331
0.196503
0.011695
0.19476
0.0143528
0.192676
0.0170093
0.190252
0.0196958
0.187481
0.0224401
0.184357
0.0252677
0.180873
0.0282013
0.177017
0.0312605
0.172779
0.0344624
0.168146
0.0378211
0.163103
0.041347
0.157636
0.0450456
0.151727
0.0489161
0.145359
0.0529486
0.138509
0.0571204
0.131151
0.0613918
0.123251
0.0656994
0.114764
0.0699476
0.105638
0.0739996
0.0958012
0.0776657
0.0851724
0.0806943
0.0736564
0.0827647
0.0611518
0.0834908
0.0475479
0.0824302
0.0327537
0.0791087
0.0167804
0.0732768
0.0635668
0.199654
0.0035472
0.198974
0.00686544
0.197958
0.0100097
0.196608
0.0130445
0.194931
0.0160298
0.192929
0.019011
0.190602
0.0220232
0.187945
0.0250968
0.184954
0.0282592
0.18162
0.0315349
0.177935
0.0349454
0.173888
0.0385093
0.169467
0.0422421
0.164659
0.0461557
0.159447
0.0502577
0.153813
0.0545495
0.147737
0.0590246
0.141192
0.0636656
0.134144
0.0684403
0.126547
0.0732959
0.118342
0.0781521
0.109451
0.0828913
0.0997695
0.087347
0.0891722
0.0912916
0.0775123
0.0944246
0.064637
0.0963661
0.0504097
0.0966575
0.034763
0.0947554
0.0177873
0.0902525
0.0813541
0.199664
0.00388324
0.199006
0.00752366
0.198029
0.0109865
0.196737
0.0143368
0.195134
0.0176328
0.193223
0.020922
0.191003
0.0242424
0.188473
0.0276268
0.185628
0.0311047
0.182461
0.0347022
0.178964
0.0384425
0.175127
0.0423459
0.170939
0.0464296
0.166388
0.0507077
0.161455
0.0551902
0.156123
0.0598821
0.150365
0.0647818
0.144152
0.0698792
0.13744
0.0751521
0.130173
0.0805623
0.122276
0.0860493
0.113646
0.0915214
0.104149
0.0968439
0.0936171
0.101824
0.0818505
0.106191
0.0686381
0.109578
0.0537937
0.111502
0.0372312
0.111318
0.0190808
0.108403
0.100435
0.199677
0.00420623
0.199046
0.00815432
0.198114
0.0119185
0.196885
0.0155659
0.195363
0.0191548
0.193552
0.0227338
0.19145
0.0263435
0.189058
0.0300191
0.186371
0.0337915
0.183385
0.0376887
0.180092
0.0417355
0.176484
0.0459538
0.17255
0.050363
0.168279
0.0549795
0.163652
0.0598166
0.15865
0.0648837
0.153247
0.0701857
0.147405
0.075721
0.141077
0.0814802
0.134196
0.087443
0.126672
0.0935731
0.118382
0.0998112
0.109162
0.106064
0.0988005
0.112186
0.0870366
0.117955
0.0735774
0.123038
0.0581396
0.12694
0.0405465
0.128911
0.0208989
0.128051
0.121334
0.199693
0.00451351
0.199094
0.00875313
0.198212
0.0128007
0.197051
0.0167264
0.195617
0.0205892
0.193912
0.0244388
0.191937
0.028318
0.189693
0.0322635
0.187176
0.0363082
0.184383
0.0404815
0.181309
0.0448096
0.177947
0.0493163
0.174287
0.0540229
0.170318
0.0589487
0.166024
0.0641105
0.161385
0.0695228
0.156373
0.0751974
0.150951
0.0811432
0.145066
0.087365
0.138646
0.0938625
0.131592
0.100628
0.123764
0.10764
0.114972
0.114856
0.104961
0.122196
0.0934009
0.129515
0.0798842
0.136554
0.0639586
0.142865
0.0452297
0.14764
0.0236098
0.14967
0.144944
0.19971
0.00480304
0.199147
0.00931659
0.198319
0.013629
0.197232
0.0178136
0.19589
0.0219304
0.194299
0.0260305
0.192459
0.0301579
0.190371
0.0343513
0.188034
0.0386448
0.185447
0.043069
0.182605
0.0476516
0.179503
0.0524181
0.176134
0.0573917
0.172489
0.0625944
0.168553
0.0680466
0.164307
0.073768
0.159727
0.0797778
0.154775
0.0860952
0.1494
0.09274
0.14353
0.0997331
0.137061
0.107096
0.129849
0.114852
0.121688
0.123017
0.11229
0.131594
0.101252
0.140553
0.0880298
0.149777
0.0719134
0.158982
0.0520822
0.167471
0.0278851
0.173868
0.172829
0.19973
0.0050732
0.199205
0.00984181
0.198434
0.0143997
0.197424
0.0188231
0.196181
0.0231735
0.194709
0.027503
0.19301
0.0318569
0.191086
0.0362749
0.188938
0.0407925
0.186566
0.0454414
0.183967
0.0502504
0.181139
0.0552462
0.178077
0.060454
0.174773
0.065898
0.171218
0.071602
0.167395
0.0775904
0.163284
0.0838892
0.158852
0.0905273
0.154053
0.0975384
0.148823
0.104963
0.143066
0.112853
0.136646
0.121272
0.12936
0.130302
0.120913
0.140042
0.110859
0.150607
0.0985254
0.16211
0.0828916
0.174615
0.0624342
0.187928
0.035128
0.201174
0.207957
0.19975
0.00532272
0.199266
0.0103265
0.198556
0.0151098
0.197627
0.0197516
0.196486
0.0243145
0.195138
0.0288517
0.193585
0.0334093
0.191832
0.0380282
0.18988
0.0427445
0.187731
0.0475908
0.185384
0.0525967
0.18284
0.05779
0.180097
0.0631972
0.177151
0.0688441
0.173996
0.0747574
0.170621
0.0809653
0.167011
0.087499
0.163143
0.0943953
0.158982
0.101699
0.154478
0.109468
0.149555
0.117776
0.144103
0.126725
0.137954
0.136451
0.13085
0.147146
0.122377
0.15908
0.111839
0.172648
0.0980079
0.188447
0.0785411
0.207395
0.0486769
0.231038
0.256634
0.199772
0.00555065
0.19933
0.0107689
0.198683
0.0157569
0.197838
0.0205961
0.196803
0.0253501
0.195581
0.0300727
0.19418
0.034811
0.192602
0.0396063
0.190851
0.0444953
0.18893
0.0495111
0.186843
0.0546837
0.184592
0.0600415
0.182178
0.0656116
0.179601
0.0714211
0.17686
0.0774982
0.173952
0.0838735
0.170869
0.0905817
0.1676
0.0976645
0.164125
0.105174
0.160416
0.113177
0.15643
0.121763
0.152099
0.131055
0.147326
0.141224
0.141951
0.15252
0.135714
0.165318
0.128143
0.180218
0.118301
0.198288
0.103937
0.221759
0.0777316
0.257244
0.334365
0.005683
-0.005683
0.0109263
-0.00524329
0.0154328
-0.00450655
0.0192891
-0.00385629
0.0226153
-0.00332616
0.0255084
-0.00289311
0.0280458
-0.00253743
0.0302901
-0.00224428
0.0322899
-0.00199984
0.0340792
-0.00178923
0.035672
-0.00159287
0.0370582
-0.00138619
0.0382094
-0.00115111
0.0391032
-0.000893809
0.0397559
-0.000652714
0.0402078
-0.000451962
0.0404569
-0.00024906
0.0404766
-1.96775e-05
0.0403155
0.000161065
0.0400629
0.000252561
0.0397893
0.000273691
0.0395501
0.000239144
0.0394152
0.000134945
0.0394621
-4.69469e-05
0.0397366
-0.000274491
0.0402895
-0.000552883
0.0411308
-0.000841318
0.0422582
-0.00112743
0.0436463
-0.00138809
-0.00138925
0.00470042
-0.0103834
0.00929474
-0.0098376
0.013336
-0.00854786
0.016843
-0.0073632
0.0199137
-0.0063969
0.0226307
-0.00561014
0.0250566
-0.00496328
0.0272396
-0.00442732
0.0292186
-0.00397877
0.0310249
-0.00359555
0.0326784
-0.0032464
0.0341768
-0.00288463
0.035494
-0.00246823
0.0365943
-0.00199417
0.0374824
-0.00154084
0.0382271
-0.00119661
0.0388374
-0.000859387
0.0392865
-0.000468755
0.0395475
-9.99183e-05
0.0396295
0.000170562
0.0395468
0.00035633
0.0392969
0.000489058
0.0388799
0.000551928
0.0383185
0.000514447
0.0376912
0.000352846
0.0370542
8.40806e-05
0.0364557
-0.000242743
0.0359625
-0.00063421
0.035746
-0.00117166
-0.00200256
0.00360046
-0.0139839
0.00706593
-0.0133031
0.0100951
-0.011577
0.0127187
-0.00998688
0.0150054
-0.00868356
0.0170116
-0.00761628
0.0187812
-0.00673293
0.0203458
-0.00599193
0.02173
-0.00536301
0.0229594
-0.00482492
0.0240585
-0.00434548
0.025033
-0.00385918
0.0258609
-0.0032961
0.026478
-0.00261123
0.0268708
-0.00193373
0.0271871
-0.00151283
0.0272892
-0.00096148
0.0268104
1.00549e-05
0.0256169
0.00109358
0.0239561
0.00183136
0.0220283
0.00228406
0.0199848
0.00253262
0.0179555
0.00258124
0.0160636
0.00240626
0.0144978
0.00191865
0.0135029
0.00107903
0.0131247
0.00013548
0.0134362
-0.000945722
0.0144336
-0.00216912
-0.00358151
0.00246624
-0.0164501
0.00464183
-0.0154786
0.00645897
-0.0133942
0.00799597
-0.0115239
0.00928918
-0.00997677
0.010368
-0.00869511
0.011258
-0.00762287
0.0119729
-0.00670686
0.0125173
-0.0059074
0.0128991
-0.0052067
0.0131411
-0.00458755
0.0132711
-0.00398918
0.0133241
-0.00334908
0.0131952
-0.00248227
0.0124697
-0.00120824
0.0108056
0.000151199
0.00863496
0.0012092
0.00678111
0.0018639
0.00526143
0.00261325
0.00379867
0.00329413
0.00236743
0.00371531
0.00104738
0.00385267
-7.97666e-05
0.00370839
-0.000908483
0.00323498
-0.00140552
0.00241568
-0.00157193
0.00124544
-0.00126722
-0.000169232
-0.00050975
-0.00170319
0.000665617
-0.00334449
-0.00452433
0.001206
-0.0176561
0.00197711
-0.0162498
0.00246768
-0.0138847
0.00278002
-0.0118362
0.00291232
-0.0101091
0.00287957
-0.00866236
0.00269391
-0.0074372
0.00236047
-0.00637342
0.00186708
-0.005414
0.00116914
-0.00450876
0.000199709
-0.00361811
-0.00107205
-0.00271742
-0.00269495
-0.00172619
-0.00454828
-0.000628941
-0.00619397
0.000437442
-0.0073927
0.00134993
-0.00836966
0.00218617
-0.00943967
0.00293391
-0.0104344
0.00360799
-0.0112883
0.004148
-0.0119998
0.0044268
-0.0125472
0.00440008
-0.0128957
0.00405687
-0.0130435
0.00338279
-0.013009
0.00238123
-0.0128254
0.0010618
-0.0124844
-0.000510206
-0.0120062
-0.00218135
-0.0115465
-0.00380424
-0.00503231
-0.000223659
-0.0174325
-0.00088655
-0.0155869
-0.00177412
-0.0129972
-0.00278902
-0.0108213
-0.00393434
-0.00896375
-0.00520192
-0.00739478
-0.00658737
-0.00605175
-0.00808395
-0.00487684
-0.00967969
-0.00381827
-0.0113494
-0.00283905
-0.0130576
-0.0019099
-0.0147652
-0.0010098
-0.0163766
-0.000114775
-0.0177005
0.000694925
-0.0187563
0.00149328
-0.0197004
0.00229398
-0.0205477
0.00303349
-0.021297
0.0036832
-0.0219126
0.00422355
-0.0223602
0.00459564
-0.0226499
0.00471652
-0.0227936
0.00454379
-0.0228004
0.00406363
-0.0226914
0.00327378
-0.0224954
0.00218526
-0.0222484
0.000814848
-0.0219865
-0.000772158
-0.0217304
-0.00243743
-0.0215083
-0.00402639
-0.00525827
-0.00166882
-0.0157636
-0.00384287
-0.0134128
-0.00610674
-0.0107333
-0.00841491
-0.00851314
-0.0107193
-0.00665941
-0.0129938
-0.00512028
-0.0152109
-0.0038346
-0.0173456
-0.00274218
-0.0193795
-0.00178435
-0.021288
-0.000930566
-0.0230444
-0.000153445
-0.0245889
0.000534704
-0.0258796
0.0011759
-0.0269981
0.00181344
-0.0279817
0.00247688
-0.0288178
0.00313003
-0.0295098
0.0037255
-0.0300546
0.00422804
-0.0304382
0.00460707
-0.0306556
0.00481306
-0.0307274
0.00478838
-0.030681
0.00449737
-0.0305432
0.0039258
-0.0303429
0.00307349
-0.0301104
0.00195273
-0.0298816
0.000586112
-0.0296966
-0.000957183
-0.029571
-0.002563
-0.0295043
-0.00409313
-0.00526792
-0.00316299
-0.0126007
-0.00674112
-0.00983468
-0.0102624
-0.00721205
-0.0136194
-0.00515611
-0.0167572
-0.00352158
-0.0196541
-0.0022234
-0.0222957
-0.00119296
-0.0246809
-0.000357037
-0.0267876
0.000322399
-0.0286102
0.000891967
-0.0301699
0.00140629
-0.0315359
0.00190072
-0.0327589
0.00239888
-0.033843
0.00289757
-0.0347652
0.00339905
-0.035515
0.00387979
-0.0360947
0.00430524
-0.0365087
0.00464206
-0.0367588
0.00485711
-0.0368554
0.00490967
-0.036825
0.00475802
-0.0367011
0.0043735
-0.0365175
0.00374216
-0.0363059
0.00286192
-0.0360965
0.00174326
-0.0359238
0.000413414
-0.0358213
-0.00105965
-0.0358023
-0.00258201
-0.0358672
-0.00402821
-0.00510386
-0.0046901
-0.00791055
-0.0095626
-0.00496218
-0.0141497
-0.00262494
-0.0182914
-0.00101441
-0.021932
0.000119
-0.0250538
0.00089837
-0.0277075
0.00146077
-0.0299665
0.00190195
-0.0319186
0.00227452
-0.0336446
0.00261795
-0.0351845
0.00294618
-0.0365546
0.00327084
-0.0377558
0.00360008
-0.038789
0.00393077
-0.0396458
0.0042559
-0.0403228
0.00455675
-0.0408243
0.00480675
-0.0411591
0.00497679
-0.0413381
0.00503614
-0.0413801
0.00495167
-0.0413145
0.00469242
-0.0411768
0.00423584
-0.0410031
0.00356845
-0.0408263
0.00268505
-0.0406757
0.00159266
-0.0405821
0.000319882
-0.0405721
-0.00106965
-0.040657
-0.00249717
-0.0408391
-0.00384608
-0.0048225
-0.00655092
-0.00135963
-0.0125648
0.00105171
-0.0176643
0.00247456
-0.0219463
0.00326752
-0.0255224
0.00369511
-0.0285531
0.00392907
-0.0311707
0.00407841
-0.0334495
0.00418077
-0.0354432
0.00426817
-0.0371881
0.00436292
-0.0387172
0.00447522
-0.0400535
0.00460711
-0.041207
0.00475367
-0.0421813
0.00490503
-0.0429754
0.00505003
-0.0435918
0.00517314
-0.0440386
0.00525352
-0.044328
0.0052662
-0.044476
0.00518416
-0.0445051
0.00498076
-0.0444457
0.00463308
-0.0443338
0.00412385
-0.0442055
0.0034402
-0.0440938
0.00257331
-0.0440263
0.00152516
-0.0440285
0.000322104
-0.0441203
-0.00097783
-0.0443111
-0.00230635
-0.0446013
-0.0035559
-0.00444746
-0.00761418
0.00625455
-0.0141476
0.00758515
-0.0195368
0.0078638
-0.0240304
0.00776107
-0.0277864
0.00745106
-0.0309397
0.00708238
-0.0336025
0.00674126
-0.0358774
0.00645562
-0.037837
0.00622782
-0.0395309
0.00605681
-0.040998
0.00594235
-0.0422672
0.00587625
-0.0433536
0.00584012
-0.0442627
0.00581415
-0.0449969
0.00578423
-0.0455626
0.00573884
-0.0459717
0.00566256
-0.0462394
0.00553389
-0.046384
0.00532876
-0.0464289
0.00502573
-0.0464044
0.00460854
-0.0463455
0.00406491
-0.046288
0.00338274
-0.0462639
0.00254915
-0.046298
0.00155928
-0.0464096
0.000433714
-0.0466122
-0.000775165
-0.0469129
-0.00200567
-0.0473083
-0.00316057
-0.00398014
-0.00814652
0.0144011
-0.0153715
0.0148102
-0.0212196
0.0137119
-0.025884
0.0124255
-0.0296462
0.0112133
-0.0327196
0.0101557
-0.035268
0.00928964
-0.0374207
0.00860831
-0.0392598
0.00806699
-0.0408367
0.00763371
-0.0421942
0.00729985
-0.0433668
0.00704879
-0.0443717
0.00684503
-0.0452123
0.00665472
-0.04589
0.00646202
-0.0464139
0.00626274
-0.0467998
0.00604838
-0.0470653
0.00579942
-0.047229
0.00549247
-0.0473129
0.00510965
-0.0473454
0.00464099
-0.0473602
0.00407971
-0.0473925
0.00341507
-0.0474733
0.00262994
-0.0476244
0.00171035
-0.0478579
0.000667266
-0.0481805
-0.000452557
-0.0485963
-0.00158984
-0.0490999
-0.00265699
-0.00341454
-0.00934091
0.023742
-0.0173342
0.0228034
-0.0233178
0.0196955
-0.0277823
0.01689
-0.0312563
0.0146872
-0.0340225
0.012922
-0.0362778
0.0115449
-0.0381836
0.0105141
-0.0398207
0.00970407
-0.0412213
0.00903437
-0.0424257
0.00850423
-0.0434766
0.00809971
-0.0443915
0.00775991
-0.0451647
0.00742791
-0.0457914
0.00708876
-0.0462823
0.00675366
-0.0466588
0.00642485
-0.0469412
0.00608179
-0.0471456
0.0056969
-0.0472899
0.00525396
-0.047399
0.00475005
-0.0475049
0.00418564
-0.0476427
0.00355284
-0.047843
0.00283028
-0.0481251
0.0019924
-0.0484935
0.00103569
-0.0489455
-5.59665e-07
-0.0494828
-0.00105252
-0.0501026
-0.00203717
-0.00274191
-0.0115368
0.0352787
-0.0206006
0.0318672
-0.0262316
0.0253266
-0.0298805
0.0205388
-0.0326907
0.0174975
-0.0349047
0.015136
-0.0366721
0.0133123
-0.0382091
0.0120511
-0.0395822
0.0110772
-0.0407598
0.0102119
-0.0417703
0.0095147
-0.0426791
0.00900853
-0.0435045
0.00858529
-0.0442188
0.00814225
-0.0448023
0.00767225
-0.0452684
0.00721971
-0.0456493
0.00680575
-0.0459692
0.00640171
-0.0462384
0.00596615
-0.0464665
0.00548208
-0.0466727
0.00495621
-0.0468869
0.00439984
-0.0471444
0.00381035
-0.0474769
0.0031628
-0.047902
0.00241751
-0.0484172
0.00155089
-0.0490103
0.000592538
-0.0496797
-0.000383159
-0.0504269
-0.00128999
-0.00195101
-0.0155594
0.0508381
-0.0260795
0.0423874
-0.0305204
0.0297675
-0.0321666
0.022185
-0.033886
0.0192168
-0.0353437
0.0165938
-0.0364061
0.0143747
-0.0374569
0.0131019
-0.0385566
0.012177
-0.0394874
0.0111427
-0.0402584
0.0102857
-0.0410069
0.00975698
-0.0417595
0.00933791
-0.0424366
0.00881936
-0.042988
0.0082236
-0.0434352
0.00766692
-0.0438346
0.00720516
-0.0442179
0.00678501
-0.0445827
0.00633094
-0.0449238
0.00582317
-0.0452518
0.00528426
-0.0455943
0.0047423
-0.0459874
0.00420347
-0.0464653
0.00364073
-0.0470462
0.00299836
-0.0477208
0.00222554
-0.0484655
0.0013372
-0.0492768
0.00042816
-0.0501652
-0.000401562
-0.00101843
0.207447
0.00576366
0.207034
0.011182
0.20643
0.0163602
0.205645
0.0213815
0.204684
0.0263106
0.203555
0.0312017
0.202264
0.0361022
0.200816
0.041054
0.199218
0.0460938
0.197474
0.0512549
0.195591
0.0565673
0.193573
0.0620593
0.191426
0.0677582
0.189156
0.0736914
0.186767
0.0798874
0.184263
0.0863774
0.181647
0.0931971
0.178922
0.10039
0.176088
0.108008
0.173142
0.116122
0.170081
0.124823
0.166901
0.134235
0.163598
0.144528
0.160173
0.155945
0.156651
0.16884
0.153129
0.18374
0.149977
0.20144
0.148886
0.22285
0.160693
0.245436
0.258443
0.236615
0.21249
0.00595633
0.212117
0.0115553
0.211572
0.0169045
0.210866
0.0220884
0.210004
0.0271723
0.208995
0.0322107
0.207846
0.0372511
0.206565
0.0423353
0.205159
0.0474999
0.203636
0.0527776
0.202005
0.0581982
0.200275
0.0637894
0.198455
0.0695778
0.196557
0.0755899
0.194591
0.0818532
0.192571
0.0883976
0.190511
0.0952571
0.188428
0.102472
0.186345
0.110092
0.184289
0.118178
0.182302
0.126811
0.180443
0.136093
0.178814
0.146157
0.177585
0.157174
0.177081
0.169344
0.177958
0.182864
0.181636
0.197762
0.190729
0.213757
0.206248
0.229917
0.245299
0.219391
0.217657
0.00612652
0.217328
0.0118848
0.216848
0.017384
0.216228
0.0227092
0.215474
0.027926
0.214596
0.033089
0.213602
0.0382452
0.212501
0.0434361
0.211303
0.0486977
0.210018
0.054062
0.208659
0.0595576
0.207237
0.065211
0.205768
0.0710474
0.204267
0.0770912
0.202752
0.0833677
0.201246
0.0899035
0.199775
0.0967281
0.198372
0.103876
0.197077
0.111386
0.195949
0.119307
0.195063
0.127696
0.194535
0.136621
0.194534
0.146159
0.195323
0.156384
0.197314
0.167354
0.201117
0.179061
0.2075
0.191379
0.217118
0.204139
0.229676
0.21736
0.228461
0.246514
0.222951
0.00627224
0.222669
0.0121666
0.22226
0.017793
0.221733
0.0232365
0.221096
0.0285629
0.220359
0.0338262
0.219531
0.0390728
0.218624
0.0443434
0.217648
0.0496731
0.216618
0.0550923
0.215547
0.0606284
0.214452
0.066306
0.213352
0.0721477
0.212268
0.0781753
0.211225
0.0844102
0.210255
0.0908743
0.209392
0.0975906
0.208684
0.104584
0.208188
0.111882
0.207981
0.119514
0.208165
0.127512
0.208881
0.135905
0.210322
0.144718
0.21275
0.153956
0.216511
0.163592
0.222023
0.173549
0.229731
0.18367
0.240201
0.19367
0.254343
0.203218
0.21006
0.272743
0.228374
0.00639162
0.228143
0.0123972
0.22781
0.0181263
0.227383
0.0236639
0.22687
0.0290751
0.226284
0.034413
0.225633
0.0397234
0.224931
0.0450456
0.224191
0.0504131
0.223428
0.0558551
0.22266
0.0613965
0.221906
0.0670597
0.22119
0.0728642
0.220537
0.0788282
0.219979
0.0849684
0.219553
0.0913005
0.219303
0.0978398
0.219286
0.104601
0.219571
0.111597
0.220246
0.11884
0.221422
0.126335
0.223245
0.134082
0.225899
0.142064
0.229615
0.150241
0.234669
0.158538
0.241391
0.166828
0.250154
0.174907
0.261402
0.182422
0.275603
0.189017
0.193609
0.292054
0.233929
0.00648299
0.233753
0.0125732
0.2335
0.0183793
0.233179
0.0239853
0.232798
0.0294553
0.23237
0.0348413
0.231906
0.0401878
0.231419
0.0455326
0.230924
0.0509075
0.23044
0.0563394
0.229985
0.0618511
0.229583
0.0674618
0.22926
0.0731878
0.229045
0.0790428
0.228975
0.0850382
0.229092
0.0911834
0.229447
0.0974852
0.2301
0.103948
0.231126
0.110571
0.232616
0.11735
0.234682
0.12427
0.237458
0.131306
0.241108
0.138414
0.245824
0.145525
0.251824
0.152538
0.259349
0.159303
0.268639
0.165617
0.27987
0.171191
0.293134
0.175753
0.178794
0.307948
0.239619
0.00654483
0.239501
0.0126919
0.239332
0.0185479
0.239122
0.0241956
0.23888
0.0296974
0.238617
0.0351042
0.238346
0.0404586
0.238082
0.0457966
0.237842
0.0511481
0.237644
0.0565376
0.23751
0.0619852
0.237465
0.0675067
0.237538
0.0731149
0.237762
0.0788188
0.238175
0.0846245
0.238824
0.0905347
0.23976
0.0965485
0.241048
0.10266
0.24276
0.108859
0.244985
0.115125
0.247824
0.12143
0.251398
0.127732
0.25584
0.133971
0.2613
0.140066
0.267932
0.145905
0.275886
0.151349
0.28528
0.156223
0.296157
0.160314
0.308504
0.163406
0.165236
0.322062
0.245448
0.0065759
0.245389
0.0127506
0.245309
0.0186286
0.245214
0.0242902
0.245115
0.0297964
0.245023
0.035196
0.244952
0.0405298
0.244916
0.0458319
0.244935
0.0511297
0.245027
0.0564452
0.245217
0.0617956
0.24553
0.0671935
0.245997
0.0726477
0.246653
0.0781629
0.247538
0.08374
0.248697
0.0893756
0.250183
0.0950619
0.252058
0.100785
0.254391
0.106526
0.257262
0.112255
0.260759
0.117934
0.26498
0.123511
0.270029
0.128922
0.276013
0.134082
0.28303
0.138888
0.29116
0.143219
0.300449
0.146934
0.310886
0.149877
0.322403
0.151889
0.152842
0.334797
0.251418
0.00657516
0.251421
0.0127477
0.251431
0.0186187
0.251455
0.0242661
0.251503
0.0297485
0.251586
0.0351129
0.251718
0.0403979
0.251915
0.0456351
0.252195
0.0508498
0.252579
0.0560611
0.253091
0.0612834
0.253759
0.066526
0.254612
0.0717939
0.255687
0.077088
0.257023
0.0824043
0.258664
0.0877346
0.260661
0.0930652
0.263069
0.0983766
0.265952
0.103643
0.269378
0.108829
0.273419
0.113893
0.278151
0.118779
0.283649
0.123424
0.289982
0.127749
0.297205
0.131665
0.305354
0.135071
0.314427
0.13786
0.324381
0.139923
0.335116
0.141155
0.141497
0.34646
0.257532
0.00654186
0.257598
0.0126815
0.257701
0.0185162
0.257846
0.0241207
0.258043
0.0295513
0.258304
0.0348526
0.258641
0.0400609
0.25907
0.0452054
0.259612
0.0503087
0.260285
0.0553876
0.261115
0.0604533
0.262129
0.0655124
0.263356
0.0705664
0.264832
0.0756125
0.266593
0.0806432
0.268681
0.085646
0.271143
0.0906033
0.274028
0.0954918
0.277389
0.100282
0.281282
0.104936
0.285763
0.109412
0.290886
0.113656
0.296702
0.117608
0.30325
0.121201
0.310554
0.124361
0.318615
0.127009
0.327407
0.129068
0.336866
0.130465
0.346887
0.131134
0.131055
0.357329
0.263794
0.00647554
0.263924
0.0125512
0.26412
0.0183199
0.264388
0.0238529
0.264736
0.0292038
0.265174
0.0344145
0.265716
0.039519
0.266377
0.044544
0.267176
0.0495097
0.268133
0.0544301
0.269273
0.059314
0.27062
0.064165
0.272204
0.0689821
0.274058
0.0737594
0.276214
0.0784864
0.278712
0.0831481
0.281591
0.0877243
0.284893
0.0921895
0.288662
0.0965131
0.29294
0.100659
0.297767
0.104584
0.303181
0.108242
0.30921
0.111579
0.315871
0.114541
0.323165
0.117067
0.331073
0.119101
0.339552
0.120588
0.348534
0.121483
0.357919
0.121748
0.121384
0.36759
0.270207
0.006376
0.270401
0.0123566
0.270692
0.0180296
0.271082
0.0234627
0.271579
0.0287063
0.272194
0.0337998
0.272938
0.0387746
0.273827
0.043655
0.274879
0.0484585
0.276112
0.0531971
0.277549
0.057877
0.279214
0.0624996
0.281134
0.0670615
0.283339
0.0715548
0.285858
0.075967
0.288725
0.0802815
0.291972
0.0844768
0.295635
0.0885274
0.299744
0.0924033
0.304333
0.0960702
0.309427
0.0994901
0.315047
0.102622
0.321205
0.105421
0.327903
0.107843
0.335125
0.109845
0.342841
0.111385
0.351002
0.112428
0.359538
0.112947
0.368361
0.112925
0.112373
0.377372
0.276773
0.00624334
0.277032
0.0120977
0.277416
0.0176458
0.277928
0.022951
0.278574
0.0280605
0.279362
0.0330112
0.280305
0.0378318
0.281416
0.0425441
0.282711
0.0471635
0.284209
0.0516997
0.285929
0.0561569
0.287894
0.0605347
0.290127
0.064828
0.292654
0.0690275
0.295502
0.0731196
0.298696
0.0770871
0.302264
0.0809089
0.306231
0.0845602
0.310622
0.0880131
0.315455
0.0912369
0.320746
0.0941986
0.326504
0.0968636
0.332728
0.0991969
0.339407
0.101164
0.346518
0.102735
0.354022
0.10388
0.361871
0.10458
0.369998
0.10482
0.378326
0.104597
0.103928
0.386771
0.283498
0.00607794
0.28382
0.0117755
0.284296
0.0171697
0.284928
0.0223197
0.285719
0.0272695
0.286677
0.032053
0.287812
0.0366963
0.289137
0.0412192
0.290666
0.0456348
0.292415
0.0499509
0.294401
0.0541702
0.296645
0.0582908
0.299167
0.0623065
0.301987
0.0662072
0.305128
0.0699792
0.308609
0.0736056
0.312452
0.0770662
0.316674
0.0803383
0.32129
0.0833971
0.326311
0.0862158
0.331742
0.0887669
0.337583
0.0910226
0.343824
0.0929561
0.350446
0.0945425
0.35742
0.0957605
0.364707
0.0965931
0.372257
0.0970294
0.380012
0.0970657
0.387903
0.0967054
0.0959688
0.395862
0.290384
0.00588043
0.290768
0.0113912
0.291334
0.0166035
0.292082
0.0215719
0.293014
0.0263372
0.294137
0.0309306
0.295458
0.0353756
0.296987
0.0396897
0.298737
0.0438844
0.300723
0.0479657
0.302958
0.0519351
0.305459
0.0557897
0.308243
0.0595227
0.311326
0.063124
0.314725
0.0665803
0.318455
0.0698755
0.32253
0.0729914
0.32696
0.0759078
0.331754
0.0786031
0.336915
0.0810552
0.34244
0.0832418
0.348321
0.0851415
0.354543
0.0867346
0.361081
0.0880041
0.367905
0.0889364
0.374976
0.0895226
0.382246
0.0897591
0.389663
0.0896484
0.39717
0.0891986
0.0884307
0.404708
0.297435
0.00565168
0.297879
0.0109465
0.298533
0.0159496
0.299394
0.0207113
0.300462
0.0252689
0.301742
0.0296508
0.303239
0.0338782
0.304963
0.0379665
0.306921
0.0419255
0.309127
0.04576
0.311592
0.0494706
0.314328
0.0530537
0.317348
0.0565026
0.320664
0.0598074
0.324289
0.0629557
0.328231
0.065933
0.3325
0.0687232
0.337098
0.0713089
0.342029
0.0736722
0.347289
0.0757952
0.35287
0.0776608
0.358759
0.079253
0.364935
0.0805583
0.371373
0.0815657
0.378042
0.0822679
0.384903
0.0826618
0.391913
0.0827487
0.399026
0.0825351
0.406193
0.0820315
0.0812587
0.413365
0.304654
0.00539272
0.305157
0.0104435
0.305895
0.0152114
0.306864
0.0197424
0.308063
0.0240705
0.309492
0.0282211
0.311157
0.0322135
0.313062
0.036061
0.315216
0.0397721
0.317625
0.0433505
0.3203
0.0467961
0.323248
0.0501053
0.326479
0.0532714
0.330001
0.0562854
0.333821
0.0591362
0.337943
0.0618109
0.34237
0.0642959
0.347103
0.0665767
0.352136
0.0686389
0.357462
0.0704687
0.36307
0.0720532
0.368941
0.0733815
0.375055
0.0744447
0.381384
0.0752368
0.387897
0.0757552
0.394558
0.0760006
0.401329
0.0759777
0.408169
0.0756951
0.415035
0.0751648
0.0744062
0.421888
0.312046
0.00510479
0.312605
0.00988453
0.313424
0.0143926
0.314496
0.0186703
0.315818
0.0227484
0.31739
0.0266499
0.319211
0.0303916
0.321287
0.0339855
0.32362
0.0374385
0.326217
0.0407538
0.329082
0.0439308
0.332222
0.0469659
0.33564
0.049853
0.339341
0.0525842
0.343328
0.0551496
0.347601
0.0575384
0.352157
0.0597393
0.356993
0.0617407
0.3621
0.0635315
0.367468
0.0651013
0.37308
0.0664412
0.378917
0.067544
0.384957
0.0684048
0.391173
0.0690212
0.397534
0.0693939
0.404008
0.0695264
0.410561
0.0694253
0.417156
0.0691003
0.423757
0.0685638
0.0678336
0.430329
0.319615
0.00478918
0.320227
0.00927225
0.321123
0.0134969
0.322293
0.0175002
0.323732
0.0213096
0.325436
0.0249456
0.327405
0.028423
0.329638
0.0317522
0.332138
0.0349391
0.334905
0.0379863
0.337943
0.040893
0.341253
0.0436559
0.344836
0.0462697
0.348693
0.0487273
0.352822
0.0510206
0.35722
0.0531407
0.361881
0.0550786
0.366796
0.0568252
0.371955
0.0583723
0.377344
0.0597126
0.382945
0.0608403
0.388737
0.0617514
0.394698
0.0624438
0.400802
0.062918
0.407019
0.0631766
0.41332
0.063225
0.419675
0.0630709
0.426051
0.0627243
0.432417
0.0621972
0.0615059
0.438745
0.327365
0.00444727
0.328028
0.00860932
0.328997
0.0125284
0.330259
0.0162376
0.331808
0.019761
0.333636
0.0231168
0.335741
0.0263179
0.33812
0.0293732
0.340772
0.0322877
0.343695
0.0350636
0.346888
0.0376999
0.35035
0.040194
0.354078
0.0425411
0.35807
0.0447355
0.36232
0.0467705
0.366822
0.0486391
0.371566
0.0503342
0.376542
0.0518491
0.381736
0.0531782
0.387132
0.0543165
0.392712
0.0552608
0.398454
0.0560095
0.404335
0.0565626
0.41033
0.0569225
0.416414
0.0570932
0.422558
0.057081
0.428735
0.056894
0.434917
0.0565421
0.441078
0.0560365
0.0553918