/*--------------------------------*- C++ -*----------------------------------*\
  =========                 |
  \\      /  F ield         | OpenFOAM: The Open Source CFD Toolbox
   \\    /   O peration     | Website:  https://openfoam.org
    \\  /    A nd           | Version:  dev
     \\/     M anipulation  |
\*---------------------------------------------------------------------------*/
FoamFile
{
    version     2.0;
    format      ascii;
    class       surfaceVectorField;
    location    "6.4";
    object      Uf;
}
// * * * * * * * * * * * * * * * * * * * * * * * * * * * * * * * * * * * * * //

dimensions      [0 1 -1 0 0 0 0];

internalField   nonuniform List<vector> 
5457
(
(9.92088 0 0.0251095)
(9.97125 0 0.0387456)
(9.82402 0 0.0328266)
(9.92859 0 0.0485848)
(9.70961 0 0.0393118)
(9.85548 0 0.0587676)
(9.57544 0 0.0460113)
(9.7568 0 0.0705928)
(9.42138 0 0.0529486)
(9.63754 0 0.0830128)
(9.24755 0 0.0601659)
(9.49862 0 0.0959359)
(9.05363 0 0.0678106)
(9.33931 0 0.109612)
(8.83893 0 0.0760343)
(9.15875 0 0.124288)
(8.60253 0 0.0849701)
(8.9561 0 0.140167)
(8.34327 0 0.0947449)
(8.73039 0 0.157433)
(8.05986 0 0.105487)
(8.48041 0 0.17627)
(7.75081 0 0.117328)
(8.20478 0 0.196858)
(7.41457 0 0.130396)
(7.90196 0 0.219363)
(7.04951 0 0.144812)
(7.57031 0 0.243925)
(6.65404 0 0.160674)
(7.20819 0 0.270636)
(6.22672 0 0.178047)
(6.814 0 0.299504)
(5.76643 0 0.196931)
(6.38633 0 0.330419)
(5.27257 0 0.217236)
(5.92417 0 0.363089)
(4.74537 0 0.238739)
(5.4271 0 0.396981)
(4.1862 0 0.261035)
(4.89565 0 0.431242)
(3.59797 0 0.283491)
(4.33164 0 0.464624)
(2.98555 0 0.305205)
(3.7386 0 0.495429)
(2.35611 0 0.325071)
(3.12227 0 0.521516)
(1.7191 0 0.34255)
(2.49106 0 0.54056)
(1.08434 0 0.361883)
(1.85585 0 0.551675)
(0.451828 0 0.348682)
(1.24547 0 0.563021)
(-0.145844 0 0.102461)
(0.608907 0 0.544878)
(-0.423623 0 -0.207096)
(0.0946609 0 0.259367)
(-0.402157 0 -0.361258)
(-0.133676 0 -0.0205275)
(-0.119681 0 -0.393888)
(9.99641 0 0.051672)
(9.99705 0 0.0405042)
(9.95879 0 0.0708609)
(9.97851 0 0.0674537)
(9.89824 0 0.087986)
(9.93378 0 0.0898689)
(9.81659 0 0.105984)
(9.86453 0 0.113554)
(9.71359 0 0.124921)
(9.77438 0 0.138513)
(9.58909 0 0.144853)
(9.66436 0 0.164645)
(9.44275 0 0.166089)
(9.53398 0 0.192331)
(9.27391 0 0.188967)
(9.38251 0 0.22203)
(9.08167 0 0.213783)
(9.2092 0 0.254148)
(8.86491 0 0.240816)
(9.01317 0 0.289064)
(8.62231 0 0.270338)
(8.79332 0 0.327153)
(8.3524 0 0.302609)
(8.54837 0 0.368788)
(8.05357 0 0.33786)
(8.27684 0 0.41432)
(7.72412 0 0.376266)
(7.97718 0 0.464051)
(7.36238 0 0.417907)
(7.64772 0 0.518195)
(6.96672 0 0.462714)
(7.28683 0 0.576814)
(6.53583 0 0.510393)
(6.89295 0 0.639734)
(6.06883 0 0.56034)
(6.46481 0 0.706437)
(5.56559 0 0.611528)
(6.00159 0 0.775919)
(5.02709 0 0.662392)
(5.50325 0 0.846534)
(4.45587 0 0.710715)
(4.97088 0 0.915816)
(3.85649 0 0.753545)
(4.40717 0 0.980315)
(3.23618 0 0.7872)
(3.81703 0 1.03546)
(2.60581 0 0.807503)
(3.20845 0 1.07549)
(1.98278 0 0.810467)
(2.59338 0 1.09315)
(1.40528 0 0.776896)
(1.9962 0 1.07708)
(0.929743 0 0.646397)
(1.41949 0 0.978405)
(0.439847 0 0.384334)
(0.937566 0 0.716793)
(0.0591679 0 -0.118619)
(0.443784 0 0.343518)
(0.174919 0 -0.335937)
(9.98903 0 0.0594302)
(9.99481 0 0.0458769)
(9.95434 0 0.0894754)
(9.97368 0 0.0848531)
(9.8973 0 0.11803)
(9.92984 0 0.119172)
(9.82047 0 0.147897)
(9.86357 0 0.153974)
(9.72417 0 0.17942)
(9.77736 0 0.190406)
(9.60822 0 0.212774)
(9.67227 0 0.228635)
(9.47235 0 0.248391)
(9.54811 0 0.269127)
(9.31608 0 0.286773)
(9.40432 0 0.312495)
(9.13869 0 0.328396)
(9.24035 0 0.359324)
(8.93925 0 0.373722)
(9.0555 0 0.410174)
(8.71665 0 0.423207)
(8.8489 0 0.465598)
(8.46961 0 0.477297)
(8.61952 0 0.526153)
(8.19668 0 0.536401)
(8.36616 0 0.592374)
(7.89633 0 0.600845)
(8.08753 0 0.664741)
(7.56692 0 0.670814)
(7.7822 0 0.743622)
(7.20684 0 0.746261)
(7.44874 0 0.829194)
(6.81457 0 0.826788)
(7.08568 0 0.921325)
(6.38887 0 0.911489)
(6.6917 0 1.01941)
(5.92903 0 0.998765)
(6.26572 0 1.12218)
(5.43514 0 1.0861)
(5.80712 0 1.22743)
(4.90854 0 1.16983)
(5.31607 0 1.33176)
(4.35242 0 1.2449)
(4.79397 0 1.4302)
(3.77258 0 1.30455)
(4.24397 0 1.51588)
(3.17872 0 1.33984)
(3.67181 0 1.57943)
(2.58662 0 1.33812)
(3.08632 0 1.60775)
(2.01986 0 1.27297)
(2.50292 0 1.58158)
(1.48694 0 1.09541)
(1.92873 0 1.46425)
(0.958295 0 0.769166)
(1.38525 0 1.2104)
(0.479877 0 0.202445)
(0.82954 0 0.801032)
(0.43373 0 0.134073)
(9.98515 0 0.0716129)
(9.99367 0 0.0531471)
(9.95039 0 0.113629)
(9.97088 0 0.102289)
(9.89437 0 0.154131)
(9.92691 0 0.147951)
(9.81882 0 0.195571)
(9.86185 0 0.193719)
(9.72442 0 0.238809)
(9.77747 0 0.241275)
(9.61113 0 0.284322)
(9.67467 0 0.291161)
(9.47875 0 0.332718)
(9.55344 0 0.343953)
(9.32696 0 0.384672)
(9.41336 0 0.400369)
(9.15524 0 0.440845)
(9.25401 0 0.461137)
(8.96292 0 0.501883)
(9.07485 0 0.52696)
(8.74917 0 0.568428)
(8.87521 0 0.598535)
(8.51305 0 0.641113)
(8.65431 0 0.676563)
(8.25347 0 0.720533)
(8.41123 0 0.761723)
(7.96926 0 0.807193)
(8.145 0 0.85464)
(7.65918 0 0.901442)
(7.85455 0 0.955823)
(7.32193 0 1.00335)
(7.53876 0 1.06558)
(6.95621 0 1.11258)
(7.19646 0 1.18385)
(6.56085 0 1.22814)
(6.82653 0 1.31009)
(6.13489 0 1.34818)
(6.42789 0 1.44293)
(5.67784 0 1.46961)
(5.99966 0 1.57991)
(5.18999 0 1.58778)
(5.54134 0 1.71709)
(4.67286 0 1.69603)
(5.05305 0 1.84855)
(4.12979 0 1.78515)
(4.53596 0 1.96584)
(3.56665 0 1.84253)
(3.99272 0 2.05731)
(2.99205 0 1.85072)
(3.42759 0 2.10714)
(2.41584 0 1.78248)
(2.84763 0 2.09448)
(1.84054 0 1.60045)
(2.25622 0 1.98873)
(1.25939 0 1.27842)
(1.66031 0 1.75303)
(0.666774 0 0.789529)
(1.02396 0 1.36775)
(0.523035 0 0.787136)
(9.98337 0 0.084406)
(9.99316 0 0.0612903)
(9.94821 0 0.136835)
(9.96959 0 0.119925)
(9.89315 0 0.188029)
(9.92575 0 0.176237)
(9.81907 0 0.240165)
(9.862 0 0.232694)
(9.72663 0 0.294463)
(9.77964 0 0.291083)
(9.6159 0 0.351655)
(9.6794 0 0.35227)
(9.48672 0 0.412466)
(9.56128 0 0.416973)
(9.33879 0 0.477672)
(9.42498 0 0.486004)
(9.17172 0 0.548047)
(9.2701 0 0.5602)
(8.98493 0 0.624352)
(9.09621 0 0.640383)
(8.77779 0 0.707342)
(8.90275 0 0.727365)
(8.54954 0 0.797764)
(8.68908 0 0.821955)
(8.29936 0 0.896327)
(8.45445 0 0.924942)
(8.02635 0 1.00365)
(8.19808 0 1.03706)
(7.72958 0 1.12021)
(7.91913 0 1.15892)
(7.40806 0 1.24617)
(7.6167 0 1.29093)
(7.06077 0 1.38128)
(7.28986 0 1.43315)
(6.68669 0 1.52459)
(6.93763 0 1.58511)
(6.28485 0 1.6742)
(6.55899 0 1.74551)
(5.85438 0 1.8268)
(6.15286 0 1.9119)
(5.3947 0 1.97726)
(5.71821 0 2.08018)
(4.90574 0 2.11806)
(5.25407 0 2.2441)
(4.38824 0 2.23861)
(4.75972 0 2.39461)
(3.84393 0 2.32455)
(4.23494 0 2.5192)
(3.27543 0 2.35695)
(3.67988 0 2.60124)
(2.68539 0 2.31059)
(3.09571 0 2.6197)
(2.07268 0 2.155)
(2.48168 0 2.54731)
(1.42937 0 1.86738)
(1.83991 0 2.35371)
(0.74261 0 1.41955)
(1.13136 0 2.02451)
(0.543304 0 1.51448)
(9.98264 0 0.0974959)
(9.99299 0 0.0697915)
(9.94744 0 0.159772)
(9.96925 0 0.137581)
(9.89355 0 0.221344)
(9.92597 0 0.203923)
(9.82134 0 0.284087)
(9.86381 0 0.270683)
(9.73134 0 0.349343)
(9.78386 0 0.339577)
(9.62367 0 0.418013)
(9.68665 0 0.411691)
(9.4982 0 0.490933)
(9.57219 0 0.487897)
(9.35466 0 0.568969)
(9.44022 0 0.569098)
(9.1927 0 0.652999)
(9.29044 0 0.656228)
(9.01184 0 0.743894)
(9.12243 0 0.750209)
(8.81152 0 0.842514)
(8.93573 0 0.851953)
(8.5911 0 0.949708)
(8.72974 0 0.962365)
(8.34986 0 1.06629)
(8.50383 0 1.08232)
(8.08707 0 1.19297)
(8.25729 0 1.21265)
(7.80193 0 1.33031)
(7.98938 0 1.35405)
(7.4936 0 1.47861)
(7.6993 0 1.50703)
(7.16119 0 1.6377)
(7.38617 0 1.67177)
(6.80372 0 1.80676)
(7.04903 0 1.84793)
(6.4201 0 1.98398)
(6.68675 0 2.03438)
(6.00912 0 2.16615)
(6.298 0 2.22885)
(5.56939 0 2.34812)
(5.88118 0 2.4275)
(5.09945 0 2.52222)
(5.43433 0 2.62427)
(4.59773 0 2.67758)
(4.9551 0 2.81031)
(4.06268 0 2.7995)
(4.44083 0 2.97323)
(3.49268 0 2.86911)
(3.8885 0 3.09663)
(2.88581 0 2.86291)
(3.29521 0 3.15989)
(2.238 0 2.75392)
(2.65688 0 3.1379)
(1.54243 0 2.52101)
(1.97483 0 3.00317)
(0.793643 0 2.13132)
(1.20723 0 2.74058)
(0.556732 0 2.2918)
(9.9825 0 0.110624)
(9.99302 0 0.0783598)
(9.94771 0 0.182321)
(9.96954 0 0.155034)
(9.89523 0 0.253812)
(9.92722 0 0.230881)
(9.82524 0 0.326761)
(9.86697 0 0.307503)
(9.73814 0 0.402548)
(9.78978 0 0.386515)
(9.63404 0 0.482227)
(9.69606 0 0.469141)
(9.51286 0 0.56675)
(9.5858 0 0.55639)
(9.37439 0 0.657086)
(9.45881 0 0.649263)
(9.21829 0 0.754207)
(9.31482 0 0.74878)
(9.04415 0 0.85908)
(9.15348 0 0.855956)
(8.85146 0 0.972659)
(8.97435 0 0.971796)
(8.63964 0 1.09588)
(8.77692 0 1.09729)
(8.40804 0 1.22964)
(8.56059 0 1.23342)
(8.15596 0 1.37476)
(8.32471 0 1.38108)
(7.88265 0 1.53187)
(8.06854 0 1.54109)
(7.58728 0 1.7014)
(7.79126 0 1.71406)
(7.2689 0 1.88331)
(7.49196 0 1.90032)
(6.92642 0 2.07699)
(7.16954 0 2.09972)
(6.55851 0 2.28088)
(6.82266 0 2.31142)
(6.16346 0 2.49208)
(6.44958 0 2.53352)
(5.73912 0 2.70586)
(6.04809 0 2.76267)
(5.28272 0 2.91501)
(5.61523 0 2.99349)
(4.79081 0 3.10917)
(5.14722 0 3.21787)
(4.25928 0 3.27421)
(4.63936 0 3.42429)
(3.68337 0 3.39186)
(4.08603 0 3.59715)
(3.05803 0 3.43968)
(3.48129 0 3.71653)
(2.37772 0 3.39178)
(2.81834 0 3.75811)
(1.63789 0 3.22615)
(2.09914 0 3.69396)
(0.839123 0 2.90082)
(1.27891 0 3.50445)
(0.573353 0 3.11367)
(9.98273 0 0.123579)
(9.99316 0 0.0868155)
(9.94873 0 0.204305)
(9.97027 0 0.172089)
(9.89794 0 0.285246)
(9.92927 0 0.25697)
(9.83051 0 0.367958)
(9.87124 0 0.342981)
(9.74671 0 0.453844)
(9.79716 0 0.43167)
(9.64669 0 0.544069)
(9.70736 0 0.524342)
(9.53039 0 0.639699)
(9.60182 0 0.622126)
(9.39763 0 0.741791)
(9.48039 0 0.726116)
(9.24814 0 0.851407)
(9.34287 0 0.837416)
(9.08154 0 0.969601)
(9.18896 0 0.957124)
(8.89738 0 1.09742)
(9.01826 0 1.08634)
(8.69512 0 1.23588)
(8.83031 0 1.22613)
(8.47414 0 1.38598)
(8.62456 0 1.37758)
(8.23378 0 1.54864)
(8.40038 0 1.54169)
(7.97324 0 1.72461)
(8.15703 0 1.71939)
(7.69162 0 1.91446)
(7.89365 0 1.91144)
(7.38786 0 2.11837)
(7.60921 0 2.11838)
(7.06062 0 2.33599)
(7.30243 0 2.34031)
(6.70821 0 2.56615)
(6.97165 0 2.57679)
(6.32836 0 2.80651)
(6.61472 0 2.82646)
(5.91809 0 3.05307)
(6.22871 0 3.08673)
(5.47344 0 3.29955)
(5.80973 0 3.3532)
(4.98929 0 3.53668)
(5.35264 0 3.61901)
(4.45931 0 3.75143)
(4.85085 0 3.87401)
(3.87619 0 3.92647)
(4.29639 0 4.10395)
(3.2323 0 4.03985)
(3.68052 0 4.28969)
(2.52081 0 4.06497)
(2.99348 0 4.40676)
(1.73835 0 3.9761)
(2.23735 0 4.42455)
(0.889461 0 3.71871)
(1.36334 0 4.31625)
(0.598743 0 3.98484)
(9.98321 0 0.1362)
(9.99339 0 0.0950381)
(9.95032 0 0.225567)
(9.97131 0 0.188585)
(9.90151 0 0.31549)
(9.93193 0 0.282043)
(9.83694 0 0.407495)
(9.87644 0 0.376952)
(9.75685 0 0.503003)
(9.8058 0 0.474831)
(9.66136 0 0.603267)
(9.72031 0 0.577039)
(9.55047 0 0.709448)
(9.61997 0 0.684803)
(9.42405 0 0.822691)
(9.50466 0 0.799305)
(9.28185 0 0.944136)
(9.37424 0 0.921723)
(9.12358 0 1.07492)
(9.22845 0 1.05324)
(8.94881 0 1.21618)
(9.06698 0 1.19503)
(8.75707 0 1.36904)
(8.8894 0 1.34827)
(8.54778 0 1.53458)
(8.69522 0 1.51412)
(8.32027 0 1.71384)
(8.48384 0 1.69371)
(8.07372 0 1.90775)
(8.25453 0 1.88811)
(7.80715 0 2.11704)
(8.00638 0 2.09828)
(7.51934 0 2.34217)
(7.73827 0 2.32498)
(7.20869 0 2.58318)
(7.44875 0 2.5687)
(6.87311 0 2.83942)
(7.13586 0 2.82948)
(6.50978 0 3.1093)
(6.79702 0 3.10667)
(6.11488 0 3.38983)
(6.42868 0 3.39865)
(5.68331 0 3.67605)
(6.02604 0 3.70233)
(5.20836 0 3.96023)
(5.58267 0 4.01252)
(4.68163 0 4.23101)
(5.09019 0 4.32099)
(4.09315 0 4.47232)
(4.53813 0 4.6154)
(3.43238 0 4.66253)
(3.91455 0 4.87786)
(2.69001 0 4.77311)
(3.20553 0 5.08355)
(1.86175 0 4.77234)
(2.41114 0 5.19791)
(0.954127 0 4.58964)
(1.47619 0 5.18422)
(0.639148 0 4.91935)
(9.98386 0 0.148365)
(9.99368 0 0.102941)
(9.95235 0 0.245965)
(9.97261 0 0.204389)
(9.90579 0 0.344392)
(9.9351 0 0.305963)
(9.84438 0 0.445189)
(9.88242 0 0.409261)
(9.76834 0 0.549801)
(9.81553 0 0.515806)
(9.67781 0 0.659548)
(9.73472 0 0.626999)
(9.57282 0 0.775676)
(9.64 0 0.744145)
(9.45329 0 0.899406)
(9.53131 0 0.868503)
(9.31904 0 1.03196)
(9.40855 0 1.00132)
(9.1698 0 1.17454)
(9.27154 0 1.14386)
(9.00525 0 1.32839)
(9.12001 0 1.29737)
(8.82495 0 1.49471)
(8.95364 0 1.46312)
(8.62837 0 1.6747)
(8.77197 0 1.64236)
(8.41487 0 1.86955)
(8.57445 0 1.83636)
(8.18363 0 2.08034)
(8.3604 0 2.04635)
(7.93363 0 2.30807)
(8.12892 0 2.27351)
(7.6635 0 2.55352)
(7.87883 0 2.51889)
(7.37145 0 2.8172)
(7.60856 0 2.78342)
(7.05506 0 3.09915)
(7.31599 0 3.06772)
(6.71102 0 3.39869)
(6.99821 0 3.372)
(6.33479 0 3.71411)
(6.65118 0 3.69582)
(5.92022 0 4.04213)
(6.26938 0 4.03771)
(5.45912 0 4.3771)
(5.84526 0 4.39456)
(4.94088 0 4.70991)
(5.36871 0 4.76076)
(4.35252 0 5.02654)
(4.82659 0 5.12676)
(3.67937 0 5.30615)
(4.20294 0 5.47705)
(2.9073 0 5.51811)
(3.47765 0 5.78742)
(2.02749 0 5.6229)
(2.6448 0 6.0194)
(1.045 0 5.52931)
(1.63755 0 6.12377)
(0.704388 0 5.94287)
(9.98465 0 0.159977)
(9.99402 0 0.11046)
(9.95473 0 0.265376)
(9.97409 0 0.219395)
(9.91065 0 0.371812)
(9.93868 0 0.328605)
(9.85267 0 0.480874)
(9.88905 0 0.439767)
(9.78101 0 0.594034)
(9.82619 0 0.554422)
(9.69582 0 0.712669)
(9.75039 0 0.674012)
(9.59718 0 0.838095)
(9.66168 0 0.799903)
(9.48504 0 0.971603)
(9.56005 0 0.933421)
(9.35929 0 1.11448)
(9.44545 0 1.07588)
(9.21975 0 1.26802)
(9.31778 0 1.2286)
(9.06615 0 1.43351)
(9.17687 0 1.3929)
(8.89813 0 1.61227)
(9.02243 0 1.57014)
(8.71524 0 1.80563)
(8.85413 0 1.76168)
(8.51688 0 2.01489)
(8.67148 0 1.9689)
(8.30229 0 2.24137)
(8.47388 0 2.19321)
(8.07042 0 2.48632)
(8.26048 0 2.43602)
(7.81991 0 2.75092)
(8.03014 0 2.69873)
(7.54885 0 3.03621)
(7.78132 0 2.9827)
(7.25465 0 3.34301)
(7.51185 0 3.28925)
(6.93368 0 3.67175)
(7.21869 0 3.61953)
(6.58092 0 4.02222)
(6.89762 0 3.97445)
(6.18943 0 4.3932)
(6.54271 0 4.35441)
(5.74972 0 4.78168)
(6.14566 0 4.75889)
(5.24902 0 5.18179)
(5.69499 0 5.18564)
(4.67081 0 5.58285)
(5.17494 0 5.6293)
(3.99473 0 5.96655)
(4.5649 0 6.07885)
(3.19822 0 6.30165)
(3.8361 0 6.51358)
(2.26158 0 6.54054)
(2.97057 0 6.89396)
(1.18048 0 6.56488)
(1.87891 0 7.15763)
(0.812686 0 7.09908)
(9.98554 0 0.170959)
(9.9944 0 0.117543)
(9.95739 0 0.283692)
(9.97572 0 0.233513)
(9.91601 0 0.397626)
(9.94259 0 0.34986)
(9.8617 0 0.5144)
(9.89624 0 0.46834)
(9.7947 0 0.635522)
(9.83765 0 0.590527)
(9.71518 0 0.762414)
(9.76714 0 0.717895)
(9.62326 0 0.896452)
(9.68477 0 0.851859)
(9.51896 0 1.03899)
(9.59057 0 0.993802)
(9.40223 0 1.19136)
(9.48458 0 1.14509)
(9.27296 0 1.35493)
(9.36676 0 1.3071)
(9.13097 0 1.53107)
(9.23701 0 1.48122)
(8.97599 0 1.72118)
(9.09518 0 1.66886)
(8.80766 0 1.9267)
(8.941 0 1.87149)
(8.62549 0 2.14908)
(8.77412 0 2.09062)
(8.4288 0 2.38984)
(8.59404 0 2.32782)
(8.21665 0 2.65053)
(8.40006 0 2.58472)
(7.98772 0 2.93274)
(8.19117 0 2.86306)
(7.7402 0 3.23808)
(7.96597 0 3.16468)
(7.4715 0 3.56821)
(7.72246 0 3.49158)
(7.178 0 3.92475)
(7.45777 0 3.84589)
(6.85454 0 4.3092)
(7.16784 0 4.22994)
(6.49387 0 4.72271)
(6.84686 0 4.64619)
(6.0857 0 5.1656)
(6.48647 0 5.09707)
(5.6156 0 5.63637)
(6.07465 0 5.58456)
(5.06348 0 6.12986)
(5.59393 0 6.10915)
(4.40204 0 6.63377)
(5.01944 0 6.66762)
(3.5959 0 7.12112)
(4.31231 0 7.24851)
(2.60407 0 7.54041)
(3.43536 0 7.82005)
(1.39412 0 7.74009)
(2.25615 0 8.31472)
(1.00243 0 8.46454)
(9.9865 0 0.181247)
(9.9948 0 0.124152)
(9.96027 0 0.300824)
(9.97747 0 0.246673)
(9.92177 0 0.421723)
(9.94676 0 0.369637)
(9.87134 0 0.545637)
(9.90388 0 0.494873)
(9.80924 0 0.674107)
(9.84978 0 0.623989)
(9.73569 0 0.808597)
(9.7848 0 0.758489)
(9.65082 0 0.950526)
(9.70904 0 0.899827)
(9.55473 0 1.10129)
(9.6226 0 1.04943)
(9.44745 0 1.26229)
(9.52558 0 1.2087)
(9.32894 0 1.43494)
(9.41802 0 1.37907)
(9.19912 0 1.62065)
(9.29992 0 1.56196)
(9.05783 0 1.82093)
(9.17122 0 1.75886)
(8.90484 0 2.03729)
(9.03181 0 1.9713)
(8.73979 0 2.27134)
(8.88146 0 2.20091)
(8.56214 0 2.52479)
(8.71985 0 2.44938)
(8.37114 0 2.79946)
(8.54646 0 2.71859)
(8.16569 0 3.09732)
(8.36055 0 3.01055)
(7.94418 0 3.42057)
(8.16098 0 3.32754)
(7.70434 0 3.77168)
(7.94613 0 3.67218)
(7.44287 0 4.15346)
(7.71363 0 4.04754)
(7.15503 0 4.56918)
(7.46003 0 4.45729)
(6.83394 0 5.02257)
(7.18031 0 4.90594)
(6.46953 0 5.51774)
(6.86708 0 5.39899)
(6.04695 0 6.05882)
(6.50928 0 5.94316)
(5.54394 0 6.64883)
(6.08994 0 6.54632)
(4.92687 0 7.28704)
(5.58293 0 7.21689)
(4.1447 0 7.96135)
(4.9422 0 7.96158)
(3.12141 0 8.63331)
(4.10886 0 8.77552)
(1.75595 0 9.12732)
(2.87795 0 9.62051)
(1.36439 0 10.1844)
(9.98754 0 0.190793)
(9.99523 0 0.130256)
(9.96333 0 0.316698)
(9.97932 0 0.258816)
(9.92786 0 0.44401)
(9.95115 0 0.387857)
(9.88148 0 0.574474)
(9.91188 0 0.519271)
(9.8245 0 0.709662)
(9.86244 0 0.654697)
(9.75713 0 0.851067)
(9.80318 0 0.795664)
(9.6796 0 1.00014)
(9.73427 0 0.943654)
(9.59203 0 1.15833)
(9.65584 0 1.10012)
(9.49454 0 1.32705)
(9.56808 0 1.26651)
(9.38718 0 1.50776)
(9.4711 0 1.44426)
(9.26999 0 1.70194)
(9.36502 0 1.63484)
(9.14293 0 1.91113)
(9.2499 0 1.83979)
(9.00591 0 2.13694)
(9.12576 0 2.06069)
(8.85875 0 2.38108)
(8.99255 0 2.29924)
(8.70112 0 2.64543)
(8.85016 0 2.55726)
(8.53252 0 2.93204)
(8.69833 0 2.83676)
(8.35217 0 3.24321)
(8.53663 0 3.14001)
(8.15889 0 3.58164)
(8.36437 0 3.46964)
(7.95096 0 3.95051)
(8.18048 0 3.82875)
(7.72581 0 4.35371)
(7.98338 0 4.22117)
(7.47971 0 4.79608)
(7.77071 0 4.65168)
(7.20707 0 5.28383)
(7.53896 0 5.12649)
(6.89953 0 5.82492)
(7.2829 0 5.65381)
(6.54411 0 6.42971)
(6.99454 0 6.24477)
(6.12006 0 7.1116)
(6.66113 0 6.91487)
(5.59264 0 7.88772)
(6.26212 0 7.68636)
(4.90036 0 8.77787)
(5.75704 0 8.59271)
(3.92624 0 9.80124)
(5.08659 0 9.68508)
(2.43264 0 10.8559)
(3.97857 0 11.0488)
(2.14552 0 12.567)
(9.98862 0 0.199557)
(9.99567 0 0.135831)
(9.96652 0 0.331252)
(9.98124 0 0.269897)
(9.9342 0 0.464405)
(9.95571 0 0.40446)
(9.89203 0 0.600805)
(9.92017 0 0.54146)
(9.84031 0 0.742047)
(9.87553 0 0.682564)
(9.77933 0 0.889649)
(9.82217 0 0.829317)
(9.70933 0 1.04509)
(9.76029 0 0.98322)
(9.63053 0 1.20983)
(9.69012 0 1.14574)
(9.5431 0 1.38532)
(9.61188 0 1.31835)
(9.4472 0 1.57303)
(9.5258 0 1.50249)
(9.34298 0 1.77449)
(9.43209 0 1.69966)
(9.23056 0 1.99126)
(9.33096 0 1.91141)
(9.10999 0 2.225)
(9.22257 0 2.13935)
(8.9813 0 2.47753)
(9.10708 0 2.38523)
(8.84442 0 2.75081)
(8.98461 0 2.65093)
(8.69918 0 3.04706)
(8.85521 0 2.93856)
(8.54521 0 3.36883)
(8.71884 0 3.25054)
(8.38191 0 3.71917)
(8.57534 0 3.5897)
(8.20832 0 4.10178)
(8.42439 0 3.95946)
(8.023 0 4.52132)
(8.26539 0 4.3641)
(7.82374 0 4.98383)
(8.09745 0 4.80907)
(7.60725 0 5.49736)
(7.91919 0 5.30163)
(7.3685 0 6.07296)
(7.72863 0 5.85162)
(7.09956 0 6.72628)
(7.52291 0 6.47298)
(6.78727 0 7.4805)
(7.29775 0 7.18629)
(6.40805 0 8.37233)
(7.04767 0 8.02392)
(5.91488 0 9.46619)
(6.76245 0 9.04233)
(5.19513 0 10.9082)
(6.46101 0 10.3571)
(3.88329 0 13.1776)
(6.18809 0 12.3034)
(5.2561 0 16.3704)
(0.187499 0 -0.1108)
(0.109938 0 -0.183644)
(0.364158 0 -0.0928155)
(0.26691 0 -0.168939)
(0.507415 0 -0.0694301)
(0.421571 0 -0.133763)
(0.616706 0 -0.0486492)
(0.549823 0 -0.0996364)
(0.696671 0 -0.0318962)
(0.647647 0 -0.0711794)
(0.752651 0 -0.0189406)
(0.719641 0 -0.0486536)
(0.789625 0 -0.00923298)
(0.771577 0 -0.0313753)
(0.812011 0 -0.00221474)
(0.808362 0 -0.0185476)
(0.823616 0 0.00263095)
(0.833904 0 -0.00938806)
(0.827651 0 0.00573405)
(0.851322 0 -0.00318733)
(0.826785 0 0.00739563)
(0.86309 0 0.000667817)
(0.822708 0 0.00799339)
(0.871103 0 0.00307004)
(0.817198 0 0.00795153)
(0.876823 0 0.0040513)
(0.811334 0 0.00752299)
(0.881384 0 0.00420905)
(0.80587 0 0.00686961)
(0.885605 0 0.00382965)
(0.801287 0 0.00611343)
(0.890035 0 0.00313651)
(0.797832 0 0.00535071)
(0.895005 0 0.00230899)
(0.795538 0 0.00467029)
(0.900653 0 0.00149654)
(0.794217 0 0.0041625)
(0.906928 0 0.000841281)
(0.793446 0 0.00389522)
(0.913598 0 0.000479227)
(0.792666 0 0.00387018)
(0.920293 0 0.000473819)
(0.791323 0 0.00402028)
(0.926594 0 0.000796132)
(0.78904 0 0.00425812)
(0.932141 0 0.00132173)
(0.785602 0 0.00452292)
(0.936693 0 0.00194319)
(0.780854 0 0.00479469)
(0.940104 0 0.00262039)
(0.774595 0 0.00505132)
(0.942227 0 0.0033728)
(0.766656 0 0.00525169)
(0.942864 0 0.00417673)
(0.757017 0 0.00526142)
(0.941658 0 0.00495146)
(0.746561 0 0.00457491)
(0.938857 0 0.00524467)
(0.935098 0 0.00397794)
(0.173487 0 -0.265798)
(0.0917341 0 -0.353563)
(0.338832 0 -0.230134)
(0.237305 0 -0.32706)
(0.476328 0 -0.179392)
(0.373018 0 -0.262145)
(0.585636 0 -0.133407)
(0.487007 0 -0.199289)
(0.671077 0 -0.0959888)
(0.576146 0 -0.147234)
(0.737342 0 -0.0668047)
(0.644759 0 -0.106245)
(0.788639 0 -0.0447015)
(0.69763 0 -0.0749052)
(0.828573 0 -0.0284604)
(0.738714 0 -0.0516341)
(0.860108 0 -0.0169296)
(0.771137 0 -0.0348997)
(0.885536 0 -0.00909654)
(0.797322 0 -0.0232718)
(0.906481 0 -0.00412923)
(0.819084 0 -0.0154849)
(0.924482 0 -0.00128969)
(0.837732 0 -0.0104845)
(0.940444 0 6.28851e-05)
(0.854319 0 -0.00768484)
(0.955238 0 0.000398411)
(0.869567 0 -0.00641031)
(0.969469 0 6.66358e-05)
(0.884013 0 -0.00614517)
(0.983544 0 -0.000652285)
(0.898037 0 -0.00649512)
(0.997691 0 -0.00151903)
(0.911885 0 -0.00714373)
(1.01197 0 -0.00231481)
(0.925683 0 -0.00781971)
(1.02629 0 -0.00284121)
(0.939446 0 -0.0082821)
(1.04047 0 -0.00295597)
(0.953095 0 -0.00834025)
(1.05426 0 -0.00262604)
(0.966486 0 -0.00789796)
(1.0674 0 -0.00193412)
(0.979434 0 -0.00699448)
(1.07971 0 -0.00100953)
(0.991781 0 -0.00580396)
(1.09108 0 5.94905e-05)
(1.00346 0 -0.00448482)
(1.10142 0 0.00128173)
(1.0145 0 -0.00308769)
(1.11049 0 0.00271263)
(1.02489 0 -0.00151079)
(1.1179 0 0.00418304)
(1.03445 0 0.000277311)
(1.12334 0 0.0052341)
(1.04295 0 0.00215526)
(1.12751 0 0.00513136)
(1.05011 0 0.00315269)
(1.05726 0 0.0027709)
(0.146798 0 -0.421228)
(0.0716888 0 -0.497343)
(0.282469 0 -0.365967)
(0.194084 0 -0.456803)
(0.393545 0 -0.28847)
(0.297331 0 -0.36586)
(0.481381 0 -0.218581)
(0.384439 0 -0.279366)
(0.55018 0 -0.16189)
(0.451601 0 -0.208474)
(0.60391 0 -0.117748)
(0.503399 0 -0.152943)
(0.646054 0 -0.0843705)
(0.543502 0 -0.110668)
(0.679555 0 -0.0598645)
(0.574867 0 -0.0793909)
(0.706804 0 -0.042414)
(0.599894 0 -0.0569431)
(0.729602 0 -0.0303663)
(0.620454 0 -0.0412793)
(0.749251 0 -0.0223264)
(0.637878 0 -0.0306386)
(0.766777 0 -0.0172529)
(0.653072 0 -0.0236812)
(0.782811 0 -0.0143642)
(0.666665 0 -0.0194733)
(0.797843 0 -0.0129944)
(0.679101 0 -0.0172015)
(0.812195 0 -0.0126145)
(0.690648 0 -0.0162045)
(0.826084 0 -0.0128144)
(0.70148 0 -0.0159993)
(0.839658 0 -0.0132547)
(0.711728 0 -0.0162141)
(0.853013 0 -0.0136401)
(0.7215 0 -0.0165323)
(0.866175 0 -0.0137226)
(0.730877 0 -0.0166662)
(0.879093 0 -0.0133322)
(0.739889 0 -0.0163747)
(0.89164 0 -0.0124293)
(0.748489 0 -0.0155169)
(0.903711 0 -0.0111295)
(0.756591 0 -0.0141514)
(0.915336 0 -0.00961506)
(0.764159 0 -0.0125339)
(0.926643 0 -0.00800818)
(0.77128 0 -0.0108759)
(0.937816 0 -0.00626948)
(0.778156 0 -0.0092541)
(0.948857 0 -0.00426368)
(0.784976 0 -0.00746014)
(0.959459 0 -0.00212722)
(0.791718 0 -0.00530056)
(0.969579 0 -0.00031341)
(0.798351 0 -0.00304327)
(0.97864 0 0.000830473)
(0.804057 0 -0.00139221)
(0.809738 0 -0.000262065)
(0.117381 0 -0.542351)
(0.051535 0 -0.612311)
(0.217813 0 -0.46652)
(0.145002 0 -0.552846)
(0.296494 0 -0.366368)
(0.209464 0 -0.439326)
(0.357661 0 -0.277939)
(0.266262 0 -0.33513)
(0.405166 0 -0.20693)
(0.307573 0 -0.25076)
(0.44199 0 -0.151934)
(0.339162 0 -0.184947)
(0.470694 0 -0.11053)
(0.363146 0 -0.135026)
(0.493426 0 -0.0802555)
(0.381366 0 -0.0982253)
(0.511939 0 -0.0587349)
(0.395425 0 -0.0719199)
(0.527443 0 -0.0438054)
(0.406616 0 -0.0535257)
(0.540664 0 -0.0337267)
(0.415742 0 -0.0408343)
(0.552141 0 -0.0272386)
(0.423135 0 -0.0323231)
(0.56231 0 -0.0233596)
(0.429048 0 -0.02695)
(0.571417 0 -0.0212551)
(0.433756 0 -0.0237386)
(0.579574 0 -0.020291)
(0.437314 0 -0.0219217)
(0.586871 0 -0.0200071)
(0.439772 0 -0.0209932)
(0.593411 0 -0.0200387)
(0.44121 0 -0.0205841)
(0.599304 0 -0.0200665)
(0.441762 0 -0.0203765)
(0.604633 0 -0.0198051)
(0.441605 0 -0.020061)
(0.609421 0 -0.0190368)
(0.44088 0 -0.0193523)
(0.613576 0 -0.017708)
(0.439613 0 -0.0180399)
(0.617014 0 -0.0160038)
(0.437761 0 -0.0161901)
(0.619899 0 -0.0141739)
(0.43531 0 -0.0142036)
(0.622479 0 -0.0123404)
(0.432319 0 -0.0123345)
(0.625171 0 -0.0104031)
(0.429072 0 -0.0107395)
(0.628048 0 -0.00818422)
(0.425757 0 -0.00901076)
(0.630642 0 -0.00592584)
(0.422703 0 -0.00666537)
(0.632603 0 -0.00424833)
(0.419976 0 -0.00405049)
(0.634001 0 -0.00284076)
(0.413951 0 -0.00209339)
(0.406026 0 -0.00030597)
(0.0830531 0 -0.630757)
(0.0302159 0 -0.693656)
(0.143972 0 -0.533951)
(0.0891479 0 -0.611103)
(0.186736 0 -0.416174)
(0.109898 0 -0.479256)
(0.218429 0 -0.315253)
(0.134359 0 -0.364023)
(0.242037 0 -0.235056)
(0.147031 0 -0.271774)
(0.259429 0 -0.17326)
(0.155953 0 -0.200063)
(0.272105 0 -0.126935)
(0.161101 0 -0.145782)
(0.281336 0 -0.0932116)
(0.163282 0 -0.105873)
(0.288282 0 -0.0692837)
(0.163281 0 -0.0775389)
(0.293542 0 -0.0525311)
(0.161897 0 -0.0576802)
(0.297145 0 -0.0409507)
(0.159512 0 -0.043613)
(0.299121 0 -0.033234)
(0.155779 0 -0.0338112)
(0.299776 0 -0.0283013)
(0.150533 0 -0.0274315)
(0.299148 0 -0.0251738)
(0.143982 0 -0.0232876)
(0.297189 0 -0.0232036)
(0.136122 0 -0.0205493)
(0.293939 0 -0.021976)
(0.127037 0 -0.0187685)
(0.289539 0 -0.0211683)
(0.116846 0 -0.0176444)
(0.284211 0 -0.0204897)
(0.10581 0 -0.0169004)
(0.278173 0 -0.0196399)
(0.0942268 0 -0.0162149)
(0.271572 0 -0.0183395)
(0.0822813 0 -0.0152468)
(0.264325 0 -0.0165291)
(0.0699161 0 -0.0136393)
(0.256229 0 -0.0145322)
(0.0569922 0 -0.0113898)
(0.247485 0 -0.012829)
(0.042467 0 -0.00914206)
(0.238389 0 -0.0115892)
(0.0260663 0 -0.00719323)
(0.229494 0 -0.0104389)
(0.00903562 0 -0.00583029)
(0.221228 0 -0.00858253)
(-0.00766889 0 -0.00455647)
(0.212336 0 -0.00539035)
(-0.0229107 0 -0.00198725)
(0.200234 0 -0.00163576)
(-0.0345774 0 0.00216633)
(0.18568 0 0.000910463)
(-0.0456196 0 0.0052062)
(-0.0582081 0 0.00496769)
(0.0434149 0 -0.68137)
(0.00650643 0 -0.736178)
(0.0603091 0 -0.563901)
(0.025048 0 -0.627259)
(0.0645669 0 -0.433782)
(-0.000668153 0 -0.483231)
(0.0647694 0 -0.325997)
(-0.011642 0 -0.364208)
(0.0618431 0 -0.240867)
(-0.0302483 0 -0.269169)
(0.0568654 0 -0.175543)
(-0.0473547 0 -0.195737)
(0.0504222 0 -0.126747)
(-0.0645352 0 -0.140315)
(0.042969 0 -0.091469)
(-0.08183 0 -0.0996981)
(0.0349958 0 -0.0666823)
(-0.0993371 0 -0.0710887)
(0.0265931 0 -0.0492208)
(-0.116639 0 -0.0510431)
(0.0172775 0 -0.0366806)
(-0.133419 0 -0.0364287)
(0.00652782 0 -0.027859)
(-0.15031 0 -0.0257168)
(-0.00599829 0 -0.0220593)
(-0.167981 0 -0.0182222)
(-0.019636 0 -0.0183252)
(-0.187296 0 -0.0134978)
(-0.0343951 0 -0.0158134)
(-0.207621 0 -0.0102047)
(-0.0501514 0 -0.0142087)
(-0.228452 0 -0.00798586)
(-0.0666821 0 -0.0133416)
(-0.249828 0 -0.00659893)
(-0.0837124 0 -0.01295)
(-0.271715 0 -0.0057899)
(-0.100967 0 -0.0125797)
(-0.294013 0 -0.0052242)
(-0.11839 0 -0.0115975)
(-0.316562 0 -0.00441045)
(-0.136384 0 -0.00940321)
(-0.339103 0 -0.00271239)
(-0.156324 0 -0.00596137)
(-0.360965 0 0.000433166)
(-0.179298 0 -0.00236625)
(-0.381734 0 0.00415778)
(-0.204071 0 8.39743e-05)
(-0.40207 0 0.00680922)
(-0.22838 0 0.00144031)
(-0.42209 0 0.00758546)
(-0.250602 0 0.00298276)
(-0.441183 0 0.00741777)
(-0.26887 0 0.00569365)
(-0.458253 0 0.00762426)
(-0.281565 0 0.00829127)
(-0.471104 0 0.0086877)
(-0.29027 0 0.00842412)
(-0.479362 0 0.00957231)
(-0.48577 0 0.00845986)
(-0.00525441 0 -0.687241)
(-0.0221209 0 -0.731032)
(-0.0336681 0 -0.550936)
(-0.0494922 0 -0.600086)
(-0.0694967 0 -0.41511)
(-0.122091 0 -0.449777)
(-0.104587 0 -0.307062)
(-0.173913 0 -0.332218)
(-0.138036 0 -0.222587)
(-0.226999 0 -0.239395)
(-0.16931 0 -0.158495)
(-0.274199 0 -0.168556)
(-0.198639 0 -0.111157)
(-0.31695 0 -0.115427)
(-0.226501 0 -0.0775954)
(-0.356346 0 -0.0766137)
(-0.252839 0 -0.0545924)
(-0.394092 0 -0.0497813)
(-0.27772 0 -0.0382597)
(-0.43139 0 -0.0313908)
(-0.301641 0 -0.0257566)
(-0.466626 0 -0.0179802)
(-0.325333 0 -0.0161057)
(-0.497981 0 -0.00787709)
(-0.349968 0 -0.00899997)
(-0.526462 0 -0.00010993)
(-0.375659 0 -0.00418466)
(-0.553146 0 0.00494381)
(-0.401806 0 -0.00117097)
(-0.578808 0 0.00812157)
(-0.428036 0 0.000757161)
(-0.60368 0 0.00996481)
(-0.454547 0 0.00208171)
(-0.627982 0 0.0111148)
(-0.481534 0 0.00309712)
(-0.651877 0 0.0118165)
(-0.508955 0 0.00409737)
(-0.675527 0 0.0122428)
(-0.536354 0 0.0054571)
(-0.699025 0 0.0126299)
(-0.562618 0 0.0075294)
(-0.722166 0 0.0132365)
(-0.585736 0 0.0101319)
(-0.744122 0 0.0141403)
(-0.604738 0 0.0122777)
(-0.763161 0 0.0151579)
(-0.620732 0 0.0130334)
(-0.779297 0 0.01585)
(-0.635085 0 0.0124541)
(-0.793671 0 0.0155067)
(-0.6481 0 0.0114514)
(-0.806665 0 0.0144305)
(-0.659464 0 0.0109647)
(-0.818088 0 0.0136033)
(-0.668866 0 0.010965)
(-0.82772 0 0.0135176)
(-0.676259 0 0.0104732)
(-0.835261 0 0.0132805)
(-0.8396 0 0.012131)
(-0.0561506 0 -0.642547)
(-0.0577043 0 -0.676036)
(-0.136992 0 -0.494388)
(-0.134787 0 -0.522778)
(-0.2175 0 -0.360935)
(-0.257402 0 -0.374605)
(-0.293216 0 -0.258552)
(-0.356082 0 -0.26319)
(-0.361539 0 -0.180415)
(-0.448212 0 -0.178578)
(-0.422144 0 -0.121871)
(-0.529284 0 -0.115883)
(-0.47609 0 -0.0781046)
(-0.599986 0 -0.0696495)
(-0.526008 0 -0.045591)
(-0.661695 0 -0.0352539)
(-0.574415 0 -0.0224607)
(-0.713632 0 -0.0106215)
(-0.621039 0 -0.00710408)
(-0.759068 0 0.00543581)
(-0.663245 0 0.00273567)
(-0.799159 0 0.0145694)
(-0.699534 0 0.00930331)
(-0.83403 0 0.0194484)
(-0.729982 0 0.0138598)
(-0.864467 0 0.0222759)
(-0.756421 0 0.0167965)
(-0.890958 0 0.0239232)
(-0.780569 0 0.0185184)
(-0.915162 0 0.025047)
(-0.803395 0 0.0194683)
(-0.937953 0 0.0255851)
(-0.825054 0 0.0198738)
(-0.959538 0 0.0255871)
(-0.845607 0 0.0198851)
(-0.979939 0 0.0252252)
(-0.865268 0 0.0196959)
(-0.999273 0 0.0247664)
(-0.884344 0 0.0195316)
(-1.01787 0 0.0244943)
(-0.902978 0 0.0195617)
(-1.03607 0 0.0245518)
(-0.920961 0 0.0197951)
(-1.05393 0 0.0248027)
(-0.937717 0 0.0199539)
(-1.07095 0 0.024858)
(-0.952528 0 0.0195469)
(-1.08637 0 0.0242216)
(-0.965337 0 0.018423)
(-1.09977 0 0.0225761)
(-0.976382 0 0.017091)
(-1.11118 0 0.0203822)
(-0.985783 0 0.0161293)
(-1.12081 0 0.0185495)
(-0.9935 0 0.0154252)
(-1.12892 0 0.0174818)
(-1.00008 0 0.0144839)