/*--------------------------------*- C++ -*----------------------------------*\
  =========                 |
  \\      /  F ield         | OpenFOAM: The Open Source CFD Toolbox
   \\    /   O peration     | Website:  https://openfoam.org
    \\  /    A nd           | Version:  dev
     \\/     M anipulation  |
\*---------------------------------------------------------------------------*/
FoamFile
{
    version     2.0;
    format      ascii;
    class       volVectorField;
    location    "0.5";
    object      U;
}
// * * * * * * * * * * * * * * * * * * * * * * * * * * * * * * * * * * * * * //

dimensions      [0 1 -1 0 0 0 0];

internalField   nonuniform List<vector> 
2790
(
(9.94396 0 0.0205394)
(9.87561 0 0.0296096)
(9.77501 0 0.0360067)
(9.64919 0 0.0425587)
(9.50387 0 0.0493635)
(9.33997 0 0.0563713)
(9.15671 0 0.0637125)
(8.9532 0 0.071549)
(8.72865 0 0.0800183)
(8.48211 0 0.0892436)
(8.21241 0 0.0993473)
(7.91823 0 0.110453)
(7.5981 0 0.122684)
(7.2505 0 0.136154)
(6.87392 0 0.150963)
(6.46696 0 0.167176)
(6.02845 0 0.184806)
(5.55769 0 0.20378)
(5.05465 0 0.223896)
(4.52032 0 0.244763)
(3.95709 0 0.265719)
(3.36923 0 0.285691)
(2.76344 0 0.302972)
(2.14957 0 0.314775)
(1.5416 0 0.316303)
(0.959395 0 0.298952)
(0.433515 0 0.247806)
(0.0207073 0 0.13841)
(-0.207101 0 -0.0489808)
(-0.0985317 0 -0.187198)
(9.99847 0 0.0407515)
(9.98135 0 0.0624474)
(9.93555 0 0.0791907)
(9.86393 0 0.0966328)
(9.77077 0 0.115062)
(9.65708 0 0.134328)
(9.52226 0 0.154687)
(9.36549 0 0.176494)
(9.18599 0 0.200059)
(8.98281 0 0.225655)
(8.75482 0 0.253548)
(8.50067 0 0.283991)
(8.21888 0 0.317217)
(7.90789 0 0.353413)
(7.56609 0 0.39269)
(7.19195 0 0.435032)
(6.78414 0 0.480234)
(6.3417 0 0.527816)
(5.86432 0 0.576918)
(5.3526 0 0.626167)
(4.80853 0 0.673522)
(4.23593 0 0.716081)
(3.64102 0 0.749826)
(3.0331 0 0.769233)
(2.42515 0 0.766589)
(1.83432 0 0.730882)
(1.28189 0 0.64651)
(0.794747 0 0.492774)
(0.393919 0 0.246144)
(0.133496 0 -0.124174)
(9.99556 0 0.0432881)
(9.97545 0 0.0753792)
(9.9316 0 0.10343)
(9.86464 0 0.132384)
(9.77754 0 0.162956)
(9.67141 0 0.195131)
(9.54596 0 0.229261)
(9.40057 0 0.265853)
(9.23462 0 0.305388)
(9.04733 0 0.348315)
(8.83774 0 0.395077)
(8.6047 0 0.446106)
(8.3469 0 0.501807)
(8.06292 0 0.562519)
(7.75124 0 0.628468)
(7.41036 0 0.699689)
(7.0388 0 0.775918)
(6.63532 0 0.856458)
(6.19906 0 0.939996)
(5.72981 0 1.02439)
(5.22836 0 1.10639)
(4.69689 0 1.18137)
(4.13945 0 1.24296)
(3.56239 0 1.28264)
(2.9746 0 1.28921)
(2.38725 0 1.2484)
(1.81227 0 1.14306)
(1.26158 0 0.9561)
(0.732536 0 0.680848)
(0.318853 0 0.308822)
(9.994 0 0.049613)
(9.9717 0 0.0933582)
(9.92768 0 0.133693)
(9.86199 0 0.174236)
(9.77668 0 0.216306)
(9.67282 0 0.260316)
(9.55035 0 0.306802)
(9.40885 0 0.356434)
(9.24785 0 0.409874)
(9.06679 0 0.467756)
(8.86496 0 0.530699)
(8.64151 0 0.599316)
(8.39545 0 0.674188)
(8.12569 0 0.75583)
(7.83108 0 0.844625)
(7.51039 0 0.940737)
(7.16242 0 1.04398)
(6.78597 0 1.15363)
(6.38003 0 1.26821)
(5.94388 0 1.38518)
(5.4773 0 1.50062)
(4.98081 0 1.60881)
(4.45602 0 1.70186)
(3.90583 0 1.76928)
(3.33453 0 1.79783)
(2.74747 0 1.77162)
(2.14999 0 1.67353)
(1.54786 0 1.48922)
(0.928379 0 1.21804)
(0.405557 0 0.846153)
(9.99328 0 0.0573599)
(9.96983 0 0.111155)
(9.92573 0 0.162262)
(9.8612 0 0.213388)
(9.77773 0 0.266204)
(9.67617 0 0.321491)
(9.55655 0 0.37993)
(9.41852 0 0.442284)
(9.2617 0 0.509324)
(9.08563 0 0.581797)
(8.88973 0 0.660439)
(8.6733 0 0.745969)
(8.43558 0 0.839081)
(8.1757 0 0.940401)
(7.89278 0 1.05042)
(7.58586 0 1.16941)
(7.25396 0 1.29728)
(6.89604 0 1.43338)
(6.51108 0 1.57623)
(6.09806 0 1.72325)
(5.65603 0 1.87028)
(5.18422 0 2.01122)
(4.68214 0 2.13753)
(4.14976 0 2.23796)
(3.58754 0 2.29849)
(2.99646 0 2.30285)
(2.37752 0 2.23429)
(1.73418 0 2.07918)
(1.04791 0 1.83749)
(0.453957 0 1.48401)
(9.99299 0 0.0657171)
(9.96912 0 0.128941)
(9.92537 0 0.190309)
(9.86227 0 0.251899)
(9.78103 0 0.315405)
(9.68226 0 0.381826)
(9.566 0 0.451973)
(9.43198 0 0.526696)
(9.27986 0 0.606866)
(9.10923 0 0.69334)
(8.91959 0 0.786961)
(8.71033 0 0.888555)
(8.48076 0 0.998917)
(8.23016 0 1.11877)
(7.95773 0 1.24871)
(7.66263 0 1.38912)
(7.34397 0 1.54)
(7.00073 0 1.70084)
(6.63179 0 1.87033)
(6.23585 0 2.04602)
(5.81134 0 2.22393)
(5.35645 0 2.39809)
(4.86905 0 2.56008)
(4.34684 0 2.69866)
(3.78742 0 2.7998)
(3.18864 0 2.84718)
(2.54868 0 2.82387)
(1.87056 0 2.71516)
(1.13115 0 2.51875)
(0.48496 0 2.19487)
(9.99294 0 0.0742851)
(9.96916 0 0.146597)
(9.92618 0 0.217716)
(9.86483 0 0.289363)
(9.78617 0 0.363163)
(9.69066 0 0.440268)
(9.57832 0 0.521636)
(9.44894 0 0.608217)
(9.30224 0 0.700981)
(9.13784 0 0.800885)
(8.95528 0 0.908868)
(8.754 0 1.02585)
(8.53337 0 1.15272)
(8.2927 0 1.2903)
(8.03122 0 1.43927)
(7.74807 0 1.60014)
(7.4423 0 1.77305)
(7.11279 0 1.95769)
(6.7582 0 2.153)
(6.37683 0 2.35688)
(5.96651 0 2.56581)
(5.52449 0 2.77438)
(5.0473 0 2.97477)
(4.5308 0 3.15637)
(3.97037 0 3.30554)
(3.36151 0 3.40596)
(2.7002 0 3.43981)
(1.9899 0 3.38973)
(1.203 0 3.24888)
(0.510692 0 2.96089)
(9.99304 0 0.0828294)
(9.96971 0 0.163931)
(9.92788 0 0.244319)
(9.86861 0 0.325566)
(9.79288 0 0.409236)
(9.70108 0 0.496585)
(9.5932 0 0.588699)
(9.46909 0 0.686629)
(9.3285 0 0.791429)
(9.17112 0 0.904149)
(8.99651 0 1.02582)
(8.80416 0 1.15746)
(8.59348 0 1.30006)
(8.36378 0 1.45453)
(8.11428 0 1.62169)
(7.84407 0 1.80218)
(7.55206 0 1.99636)
(7.23695 0 2.20416)
(6.89708 0 2.42489)
(6.53029 0 2.65696)
(6.13379 0 2.89755)
(5.7039 0 3.14209)
(5.23591 0 3.3838)
(4.72405 0 3.6131)
(4.16169 0 3.81713)
(3.5421 0 3.97957)
(2.85893 0 4.08122)
(2.11584 0 4.10076)
(1.28046 0 4.02455)
(0.538927 0 3.77726)
(9.99323 0 0.0911998)
(9.97062 0 0.180774)
(9.93028 0 0.269971)
(9.87339 0 0.360342)
(9.80095 0 0.453419)
(9.71327 0 0.550529)
(9.61036 0 0.652863)
(9.49209 0 0.761565)
(9.35828 0 0.877775)
(9.20865 0 1.00263)
(9.04283 0 1.13725)
(8.86035 0 1.28274)
(8.66066 0 1.44021)
(8.44307 0 1.61069)
(8.20679 0 1.79515)
(7.95086 0 1.99441)
(7.67407 0 2.20908)
(7.37489 0 2.43943)
(7.05137 0 2.68525)
(6.70088 0 2.94562)
(6.32 0 3.21858)
(5.90415 0 3.50073)
(5.44742 0 3.78668)
(4.94238 0 4.06829)
(4.38024 0 4.33394)
(3.7516 0 4.56763)
(3.04684 0 4.74865)
(2.26847 0 4.85074)
(1.37808 0 4.85108)
(0.576301 0 4.6515)
(9.9935 0 0.0992927)
(9.97181 0 0.196983)
(9.93323 0 0.29453)
(9.87903 0 0.393529)
(9.81019 0 0.495508)
(9.72702 0 0.601848)
(9.62953 0 0.713828)
(9.51764 0 0.832675)
(9.39121 0 0.959609)
(9.25003 0 1.09585)
(9.09378 0 1.2426)
(8.92205 0 1.40107)
(8.73433 0 1.57247)
(8.52999 0 1.75797)
(8.30824 0 1.95871)
(8.06808 0 2.17574)
(7.80823 0 2.40996)
(7.52702 0 2.66207)
(7.22223 0 2.93243)
(6.89089 0 3.22092)
(6.529 0 3.52667)
(6.13122 0 3.84771)
(5.69046 0 4.1804)
(5.1976 0 4.51865)
(4.64131 0 4.85278)
(4.00868 0 5.16798)
(3.28499 0 5.44263)
(2.46877 0 5.64527)
(1.51245 0 5.74121)
(0.630881 0 5.60287)
(9.99382 0 0.107032)
(9.97321 0 0.21244)
(9.93664 0 0.317866)
(9.88538 0 0.424976)
(9.82045 0 0.535319)
(9.74214 0 0.650319)
(9.65049 0 0.771326)
(9.54544 0 0.899646)
(9.42694 0 1.03657)
(9.29483 0 1.18338)
(9.14885 0 1.34138)
(8.98868 0 1.51186)
(8.81388 0 1.69615)
(8.62387 0 1.89556)
(8.41792 0 2.11142)
(8.19505 0 2.34501)
(7.95399 0 2.59758)
(7.69302 0 2.87031)
(7.4098 0 3.16421)
(7.10117 0 3.48008)
(6.76278 0 3.8183)
(6.38874 0 4.17861)
(5.971 0 4.5596)
(5.49884 0 4.95795)
(4.95817 0 5.36708)
(4.33154 0 5.77503)
(3.59668 0 6.16134)
(2.74323 0 6.49082)
(1.70729 0 6.715)
(0.715511 0 6.66568)
(9.99418 0 0.11436)
(9.97479 0 0.227048)
(9.94041 0 0.339862)
(9.89234 0 0.454548)
(9.83158 0 0.572686)
(9.75845 0 0.695741)
(9.67298 0 0.825123)
(9.57521 0 0.962199)
(9.46512 0 1.10832)
(9.34262 0 1.26485)
(9.20755 0 1.43314)
(9.05967 0 1.61459)
(8.89863 0 1.81063)
(8.72395 0 2.02271)
(8.53499 0 2.25233)
(8.33089 0 2.50104)
(8.11045 0 2.77045)
(7.87205 0 3.06221)
(7.61342 0 3.37805)
(7.33145 0 3.71974)
(7.02177 0 4.08904)
(6.67833 0 4.48763)
(6.29264 0 4.91677)
(5.85285 0 5.37675)
(5.34241 0 5.86573)
(4.73891 0 6.37738)
(4.01 0 6.89679)
(3.12943 0 7.39074)
(2.00219 0 7.79987)
(0.85468 0 7.89995)
(9.99457 0 0.121231)
(9.9765 0 0.240727)
(9.94449 0 0.360415)
(9.89981 0 0.482123)
(9.84345 0 0.607465)
(9.77575 0 0.737942)
(9.69679 0 0.87501)
(9.60665 0 1.02009)
(9.50538 0 1.17459)
(9.39297 0 1.33991)
(9.26935 0 1.51749)
(9.13438 0 1.70879)
(8.98783 0 1.91533)
(8.82936 0 2.13869)
(8.65847 0 2.38056)
(8.47447 0 2.64271)
(8.27637 0 2.92708)
(8.06277 0 3.23581)
(7.83169 0 3.57129)
(7.58037 0 3.93626)
(7.30484 0 4.33389)
(6.9995 0 4.76787)
(6.65624 0 5.24243)
(6.26324 0 5.76226)
(5.80292 0 6.33195)
(5.24915 0 6.95454)
(4.55915 0 7.62822)
(3.68368 0 8.33562)
(2.47015 0 9.02667)
(1.10165 0 9.41941)
(9.99499 0 0.127609)
(9.97831 0 0.253412)
(9.9488 0 0.379442)
(9.90769 0 0.507599)
(9.85593 0 0.639534)
(9.79388 0 0.776778)
(9.72169 0 0.920824)
(9.63947 0 1.07313)
(9.54735 0 1.23514)
(9.44541 0 1.40831)
(9.33369 0 1.59412)
(9.21215 0 1.79409)
(9.0807 0 2.00981)
(8.93917 0 2.24297)
(8.78726 0 2.49539)
(8.6245 0 2.76906)
(8.45021 0 3.06619)
(8.26337 0 3.38934)
(8.06251 0 3.74147)
(7.84548 0 4.12616)
(7.60924 0 4.54784)
(7.34933 0 5.01207)
(7.05919 0 5.52598)
(6.7289 0 6.09882)
(6.34288 0 6.7427)
(5.87603 0 7.47341)
(5.28146 0 8.31147)
(4.48952 0 9.28019)
(3.25741 0 10.4035)
(1.58661 0 11.4734)
(9.99543 0 0.133468)
(9.98021 0 0.26505)
(9.95331 0 0.39687)
(9.91589 0 0.530883)
(9.86888 0 0.668773)
(9.81267 0 0.812095)
(9.74744 0 0.962368)
(9.67338 0 1.12108)
(9.59068 0 1.2897)
(9.49952 0 1.46971)
(9.40002 0 1.66262)
(9.29231 0 1.86999)
(9.17642 0 2.09347)
(9.05239 0 2.33482)
(8.92014 0 2.59595)
(8.77951 0 2.879)
(8.63019 0 3.18639)
(8.47164 0 3.52095)
(8.30308 0 3.88608)
(8.1233 0 4.28598)
(7.93053 0 4.72596)
(7.72222 0 5.21299)
(7.49457 0 5.75641)
(7.24184 0 6.36917)
(6.95486 0 7.06994)
(6.61864 0 7.88696)
(6.20173 0 8.86669)
(5.65504 0 10.0945)
(4.69052 0 11.7853)
(2.67822 0 14.7063)
(-0.390105 0 0.475807)
(-1.16199 0 0.588866)
(-2.13165 0 0.593824)
(-3.12921 0 0.578082)
(-4.14651 0 0.554266)
(-5.16922 0 0.526426)
(-6.18597 0 0.495948)
(-7.18684 0 0.463411)
(-8.16254 0 0.429052)
(-9.10382 0 0.392921)
(-10.001 0 0.354954)
(-10.8436 0 0.315019)
(-11.6203 0 0.272962)
(-12.3182 0 0.228656)
(-12.9239 0 0.182025)
(-13.4229 0 0.133134)
(-13.8008 0 0.0820602)
(-14.0428 0 0.0290013)
(-14.1334 0 -0.0263362)
(-14.0595 0 -0.0860856)
(-13.8122 0 -0.147597)
(-13.3825 0 -0.210692)
(-12.7652 0 -0.276217)
(-11.9541 0 -0.346299)
(-10.9352 0 -0.425128)
(-9.67452 0 -0.522464)
(-8.11561 0 -0.66439)
(-6.20724 0 -0.910546)
(-3.82654 0 -1.35316)
(1.75932 0 -2.18001)
(-0.570534 0 1.16613)
(-1.39038 0 1.31455)
(-2.37794 0 1.35465)
(-3.37202 0 1.36092)
(-4.37846 0 1.34487)
(-5.38518 0 1.31325)
(-6.38206 0 1.26961)
(-7.35984 0 1.21596)
(-8.30967 0 1.15336)
(-9.22259 0 1.08218)
(-10.0891 0 1.00237)
(-10.8989 0 0.913557)
(-11.6403 0 0.815261)
(-12.3007 0 0.707059)
(-12.8662 0 0.588769)
(-13.3222 0 0.460649)
(-13.6539 0 0.323486)
(-13.8465 0 0.178543)
(-13.8859 0 0.0270727)
(-13.7602 0 -0.130228)
(-13.4668 0 -0.286767)
(-12.9983 0 -0.44062)
(-12.3498 0 -0.59214)
(-11.5153 0 -0.743561)
(-10.483 0 -0.899542)
(-9.227 0 -1.07303)
(-7.70907 0 -1.30456)
(-5.90348 0 -1.68927)
(-3.73205 0 -2.35502)
(-0.134119 0 -3.31838)
(-0.60121 0 2.07017)
(-1.41372 0 2.22294)
(-2.38396 0 2.26422)
(-3.33781 0 2.26357)
(-4.29466 0 2.22976)
(-5.2457 0 2.17091)
(-6.18391 0 2.0921)
(-7.10216 0 1.99645)
(-7.99319 0 1.88569)
(-8.8493 0 1.76049)
(-9.66194 0 1.62074)
(-10.4214 0 1.46587)
(-11.1168 0 1.2951)
(-11.7354 0 1.10778)
(-12.2637 0 0.903743)
(-12.6868 0 0.683583)
(-12.9898 0 0.44894)
(-13.1579 0 0.2024)
(-13.1762 0 -0.0523301)
(-13.0359 0 -0.310263)
(-12.733 0 -0.567923)
(-12.2616 0 -0.821947)
(-11.6182 0 -1.07257)
(-10.7984 0 -1.32286)
(-9.79334 0 -1.57906)
(-8.58683 0 -1.85692)
(-7.16197 0 -2.20009)
(-5.52579 0 -2.69827)
(-3.66599 0 -3.451)
(-1.12509 0 -4.44072)
(-0.572597 0 2.98477)
(-1.33892 0 3.11793)
(-2.26067 0 3.13747)
(-3.15 0 3.11493)
(-4.03793 0 3.05564)
(-4.91753 0 2.96748)
(-5.78492 0 2.85559)
(-6.63526 0 2.72325)
(-7.46296 0 2.57213)
(-8.26142 0 2.40261)
(-9.02274 0 2.21409)
(-9.73746 0 2.00535)
(-10.3943 0 1.7749)
(-10.9804 0 1.52143)
(-11.4809 0 1.24424)
(-11.8801 0 0.943692)
(-12.1622 0 0.621595)
(-12.3112 0 0.28138)
(-12.3113 0 -0.0716575)
(-12.1574 0 -0.429818)
(-11.8478 0 -0.784735)
(-11.3786 0 -1.13267)
(-10.7482 0 -1.47425)
(-9.95366 0 -1.81355)
(-8.98935 0 -2.15814)
(-7.84752 0 -2.52519)
(-6.52841 0 -2.95664)
(-5.06401 0 -3.52861)
(-3.49586 0 -4.31132)
(-1.61258 0 -5.2527)
(-0.518027 0 3.83805)
(-1.21184 0 3.94636)
(-2.05789 0 3.93918)
(-2.86311 0 3.89224)
(-3.6684 0 3.8081)
(-4.46669 0 3.69383)
(-5.25637 0 3.55373)
(-6.03421 0 3.3904)
(-6.79569 0 3.20475)
(-7.53482 0 2.99628)
(-8.24384 0 2.76341)
(-8.91305 0 2.5039)
(-9.5307 0 2.21535)
(-10.083 0 1.89577)
(-10.5543 0 1.54415)
(-10.928 0 1.16116)
(-11.1872 0 0.749873)
(-11.3151 0 0.316136)
(-11.2956 0 -0.131415)
(-11.129 0 -0.582364)
(-10.8153 0 -1.02657)
(-10.3533 0 -1.45962)
(-9.74351 0 -1.88271)
(-8.98421 0 -2.3007)
(-8.0722 0 -2.72135)
(-7.00642 0 -3.15994)
(-5.79919 0 -3.65091)
(-4.4988 0 -4.25325)
(-3.18427 0 -5.01601)
(-1.74129 0 -5.85899)
(-0.449501 0 4.59674)
(-1.05177 0 4.6859)
(-1.80136 0 4.65563)
(-2.50714 0 4.58744)
(-3.21831 0 4.48255)
(-3.92626 0 4.34748)
(-4.63103 0 4.18543)
(-5.33023 0 3.99798)
(-6.01998 0 3.78497)
(-6.69455 0 3.54476)
(-7.3462 0 3.27461)
(-7.96502 0 2.9712)
(-8.53886 0 2.63114)
(-9.05337 0 2.25168)
(-9.49224 0 1.83137)
(-9.83779 0 1.37087)
(-10.072 0 0.874166)
(-10.1771 0 0.349549)
(-10.1364 0 -0.190634)
(-9.95782 0 -0.731664)
(-9.64272 0 -1.25996)
(-9.19325 0 -1.77127)
(-8.6118 0 -2.26822)
(-7.89749 0 -2.75701)
(-7.0485 0 -3.24494)
(-6.06814 0 -3.74318)
(-4.97613 0 -4.27483)
(-3.82948 0 -4.88017)
(-2.72898 0 -5.59243)
(-1.60139 0 -6.3091)
(-0.372519 0 5.24184)
(-0.868648 0 5.3207)
(-1.50628 0 5.27391)
(-2.10038 0 5.19035)
(-2.70717 0 5.07089)
(-3.31571 0 4.92171)
(-3.92745 0 4.74482)
(-4.54041 0 4.54058)
(-5.15106 0 4.30751)
(-5.75389 0 4.0426)
(-6.34119 0 3.74181)
(-6.90302 0 3.40055)
(-7.4271 0 3.01432)
(-7.89879 0 2.57945)
(-8.30131 0 2.09396)
(-8.61602 0 1.55855)
(-8.82331 0 0.978455)
(-8.90373 0 0.365528)
(-8.84051 0 -0.26266)
(-8.65127 0 -0.88689)
(-8.338 0 -1.49043)
(-7.90672 0 -2.06993)
(-7.36141 0 -2.63058)
(-6.70126 0 -3.18038)
(-5.92467 0 -3.72576)
(-5.0373 0 -4.27236)
(-4.0627 0 -4.82999)
(-3.06092 0 -5.4203)
(-2.13999 0 -6.06449)
(-1.25365 0 -6.64526)
(-0.290434 0 5.76024)
(-0.668792 0 5.83845)
(-1.18263 0 5.7826)
(-1.65496 0 5.69095)
(-2.14815 0 5.56438)
(-2.64844 0 5.40874)
(-3.15873 0 5.22472)
(-3.67719 0 5.01138)
(-4.20057 0 4.76579)
(-4.72353 0 4.48354)
(-5.23859 0 4.1592)
(-5.73606 0 3.78694)
(-6.20387 0 3.36104)
(-6.62754 0 2.87684)
(-6.99014 0 2.33164)
(-7.27216 0 1.72595)
(-7.45155 0 1.06606)
(-7.50602 0 0.367933)
(-7.41897 0 -0.343962)
(-7.2213 0 -1.04463)
(-6.91382 0 -1.71391)
(-6.50669 0 -2.35086)
(-6.00487 0 -2.96465)
(-5.40668 0 -3.56575)
(-4.7098 0 -4.1592)
(-3.92056 0 -4.74445)
(-3.06448 0 -5.3173)
(-2.20058 0 -5.88207)
(-1.43207 0 -6.45)
(-0.742137 0 -6.89629)
(-0.205627 0 6.14226)
(-0.45669 0 6.2299)
(-0.837839 0 6.17266)
(-1.17998 0 6.08078)
(-1.55155 0 5.95514)
(-1.93548 0 5.80119)
(-2.33636 0 5.61808)
(-2.75229 0 5.40352)
(-3.18021 0 5.15315)
(-3.61503 0 4.86113)
(-4.04962 0 4.52075)
(-4.47486 0 4.12497)
(-4.87939 0 3.66678)
(-5.24935 0 3.14026)
(-5.56824 0 2.5417)
(-5.81593 0 1.87111)
(-5.96715 0 1.13547)
(-5.99501 0 0.355488)
(-5.88434 0 -0.434659)
(-5.68237 0 -1.20378)
(-5.38641 0 -1.92767)
(-5.01021 0 -2.61012)
(-4.55867 0 -3.26605)
(-4.02845 0 -3.90905)
(-3.4161 0 -4.54212)
(-2.72724 0 -5.1576)
(-1.98973 0 -5.73772)
(-1.25783 0 -6.27282)
(-0.621987 0 -6.76231)
(-0.0991866 0 -7.08431)
(-0.120111 0 6.38103)
(-0.235982 0 6.4883)
(-0.47815 0 6.43708)
(-0.68322 0 6.35295)
(-0.926657 0 6.23648)
(-1.18734 0 6.09257)
(-1.47206 0 5.91851)
(-1.77843 0 5.71062)
(-2.10354 0 5.46316)
(-2.44247 0 5.169)
(-2.78841 0 4.82021)
(-3.13314 0 4.40893)
(-3.46655 0 3.92675)
(-3.7761 0 3.36627)
(-4.04667 0 2.72239)
(-4.2584 0 1.99405)
(-4.38152 0 1.18812)
(-4.38103 0 0.330215)
(-4.24711 0 -0.535144)
(-4.04946 0 -1.36269)
(-3.77426 0 -2.12801)
(-3.43733 0 -2.84307)
(-3.04263 0 -3.53008)
(-2.58455 0 -4.20661)
(-2.05902 0 -4.87279)
(-1.46979 0 -5.5129)
(-0.849361 0 -6.09369)
(-0.24422 0 -6.59946)
(0.271752 0 -7.01044)
(0.650716 0 -7.22292)
(-0.0361917 0 6.47271)
(-0.0103049 0 6.60918)
(-0.109555 0 6.57167)
(-0.171968 0 6.50306)
(-0.282571 0 6.40418)
(-0.414829 0 6.27872)
(-0.578491 0 6.12163)
(-0.770113 0 5.92771)
(-0.986764 0 5.68996)
(-1.22346 0 5.40043)
(-1.47329 0 5.05104)
(-1.72895 0 4.63209)
(-1.98215 0 4.13415)
(-2.22226 0 3.54793)
(-2.4369 0 2.86595)
(-2.608 0 2.08553)
(-2.69908 0 1.21482)
(-2.66255 0 0.286251)
(-2.51536 0 -0.642874)
(-2.33677 0 -1.51486)
(-2.09673 0 -2.30852)
(-1.80955 0 -3.04562)
(-1.4783 0 -3.75498)
(-1.09549 0 -4.45812)
(-0.656906 0 -5.15171)
(-0.164394 0 -5.81457)
(0.344047 0 -6.39174)
(0.817133 0 -6.85681)
(1.22961 0 -7.19946)
(1.50045 0 -7.3272)
(0.0462007 0 6.41692)
(0.214867 0 6.58711)
(0.264417 0 6.57256)
(0.344503 0 6.52649)
(0.370294 0 6.45437)
(0.368758 0 6.35658)
(0.328918 0 6.22556)
(0.255341 0 6.05444)
(0.151383 0 5.83557)
(0.0224445 0 5.55966)
(-0.127318 0 5.21312)
(-0.287164 0 4.79451)
(-0.451273 0 4.29029)
(-0.611506 0 3.69007)
(-0.76047 0 2.98472)
(-0.886624 0 2.17046)
(-0.936044 0 1.25197)
(-0.840137 0 0.259363)
(-0.698647 0 -0.732198)
(-0.56231 0 -1.64031)
(-0.376641 0 -2.45516)
(-0.151663 0 -3.21244)
(0.111726 0 -3.94609)
(0.417685 0 -4.67225)
(0.771047 0 -5.38631)
(1.15797 0 -6.04983)
(1.55944 0 -6.61866)
(1.9305 0 -7.05849)
(2.25391 0 -7.34577)
(2.427 0 -7.40046)
(0.132566 0 6.21029)
(0.442216 0 6.42297)
(0.642289 0 6.43823)
(0.862165 0 6.42087)
(1.02513 0 6.38443)
(1.15161 0 6.32258)
(1.23305 0 6.22456)
(1.27537 0 6.0818)
(1.28327 0 5.88623)
(1.26297 0 5.62902)
(1.21924 0 5.29639)
(1.15989 0 4.88482)
(1.0921 0 4.38284)
(1.02257 0 3.77992)
(0.956271 0 3.0662)
(0.899674 0 2.23367)
(0.910467 0 1.28158)
(1.05558 0 0.239448)
(1.15942 0 -0.793944)
(1.24098 0 -1.72987)
(1.35533 0 -2.5631)
(1.50311 0 -3.32948)
(1.68828 0 -4.07667)
(1.91837 0 -4.82568)
(2.19287 0 -5.5597)
(2.49698 0 -6.23527)
(2.80972 0 -6.79974)
(3.08872 0 -7.2133)
(3.32785 0 -7.45049)
(3.40802 0 -7.44413)
(0.232267 0 5.8446)
(0.676277 0 6.1246)
(1.02166 0 6.16815)
(1.38015 0 6.18638)
(1.67907 0 6.19727)
(1.92783 0 6.18109)
(2.12416 0 6.12331)
(2.27647 0 6.01448)
(2.39137 0 5.84644)
(2.47581 0 5.61068)
(2.53538 0 5.29448)
(2.57634 0 4.89234)
(2.60618 0 4.3945)
(2.63127 0 3.79095)
(2.65645 0 3.0718)
(2.68839 0 2.22772)
(2.76013 0 1.26383)
(2.88855 0 0.221018)
(2.96764 0 -0.818404)
(3.00487 0 -1.76857)
(3.05034 0 -2.61796)
(3.12435 0 -3.40441)
(3.24001 0 -4.17461)
(3.40451 0 -4.94644)
(3.61266 0 -5.69809)
(3.84569 0 -6.37972)
(4.07958 0 -6.93556)
(4.27454 0 -7.32319)
(4.43353 0 -7.51567)
(4.42332 0 -7.4584)
(0.358863 0 5.31285)
(0.922636 0 5.72753)
(1.39506 0 5.77438)
(1.89946 0 5.83392)
(2.33182 0 5.90398)
(2.69292 0 5.94239)
(2.9934 0 5.93114)
(3.2461 0 5.86108)
(3.45948 0 5.72439)
(3.64101 0 5.51309)
(3.79691 0 5.21616)
(3.93269 0 4.82675)
(4.05501 0 4.33612)
(4.16953 0 3.73496)
(4.28023 0 3.01383)
(4.39043 0 2.16507)
(4.50686 0 1.19961)
(4.63182 0 0.163198)
(4.69036 0 -0.853192)
(4.68787 0 -1.78891)
(4.67447 0 -2.63971)
(4.68617 0 -3.44215)
(4.74587 0 -4.23692)
(4.85996 0 -5.03386)
(5.01644 0 -5.80244)
(5.19032 0 -6.48724)
(5.35433 0 -7.031)
(5.47172 0 -7.39158)
(5.55358 0 -7.54284)
(5.45421 0 -7.44265)
(9.99589 0 0.138878)
(9.98221 0 0.275799)
(9.95805 0 0.412951)
(9.92451 0 0.552337)
(9.88249 0 0.695668)
(9.8324 0 0.84451)
(9.77448 0 1.0004)
(9.70898 0 1.16484)
(9.63618 0 1.33931)
(9.55634 0 1.5253)
(9.46972 0 1.72434)
(9.37657 0 1.938)
(9.27712 0 2.16795)
(9.1716 0 2.41599)
(9.06021 0 2.68407)
(8.94312 0 2.9744)
(8.82046 0 3.28951)
(8.69231 0 3.63237)
(8.55868 0 4.00659)
(8.41949 0 4.41664)
(8.27463 0 4.86826)
(8.12395 0 5.36898)
(7.9674 0 5.92904)
(7.80536 0 6.56282)
(7.63928 0 7.2914)
(7.47469 0 8.14742)
(7.32645 0 9.18508)
(7.28722 0 10.4987)
(7.77558 0 12.2348)
(8.01475 0 14.9784)
(9.99637 0 0.143851)
(9.98431 0 0.285662)
(9.96303 0 0.427668)
(9.93354 0 0.571906)
(9.89671 0 0.7201)
(9.85297 0 0.873825)
(9.8026 0 1.03462)
(9.74594 0 1.20399)
(9.68334 0 1.38342)
(9.61516 0 1.57439)
(9.54179 0 1.77841)
(9.46362 0 1.99705)
(9.38107 0 2.23197)
(9.2946 0 2.48494)
(9.20469 0 2.75792)
(9.11187 0 3.05308)
(9.01676 0 3.37295)
(8.92004 0 3.72045)
(8.82257 0 4.09914)
(8.72548 0 4.51338)
(8.6303 0 4.96867)
(8.53934 0 5.47211)
(8.45627 0 6.03303)
(8.38733 0 6.66398)
(8.34377 0 7.38201)
(8.34785 0 8.21015)
(8.43922 0 9.1778)
(8.67318 0 10.3166)
(9.32382 0 11.5667)
(9.81276 0 12.6218)
(9.99688 0 0.148296)
(9.98649 0 0.294474)
(9.96819 0 0.440797)
(9.94291 0 0.589318)
(9.91144 0 0.74177)
(9.87424 0 0.899721)
(9.83165 0 1.0647)
(9.78406 0 1.2382)
(9.7319 0 1.42168)
(9.67565 0 1.6166)
(9.61579 0 1.82443)
(9.55288 0 2.04671)
(9.48753 0 2.28503)
(9.4204 0 2.54111)
(9.35228 0 2.81683)
(9.28406 0 3.11426)
(9.21678 0 3.43576)
(9.15175 0 3.78406)
(9.09061 0 4.16239)
(9.03551 0 4.57462)
(8.98938 0 5.02545)
(8.95643 0 5.52061)
(8.94281 0 6.06713)
(8.95788 0 6.67335)
(9.01588 0 7.34852)
(9.13844 0 8.10083)
(9.35581 0 8.93127)
(9.67425 0 9.82712)
(10.2199 0 10.7354)
(10.8667 0 11.4402)
(9.9974 0 0.152162)
(9.98873 0 0.302128)
(9.9735 0 0.452168)
(9.95253 0 0.604343)
(9.92655 0 0.760376)
(9.89603 0 0.92182)
(9.86138 0 1.09018)
(9.82303 0 1.26693)
(9.78149 0 1.45347)
(9.73732 0 1.65123)
(9.69113 0 1.86161)
(9.64361 0 2.08609)
(9.59555 0 2.32616)
(9.54782 0 2.58344)
(9.50146 0 2.85964)
(9.45769 0 3.15666)
(9.41797 0 3.47659)
(9.38408 0 3.82181)
(9.3583 0 4.19501)
(9.34352 0 4.59928)
(9.34362 0 5.03815)
(9.36376 0 5.51556)
(9.41104 0 6.03573)
(9.49507 0 6.60269)
(9.62861 0 7.2192)
(9.82766 0 7.88491)
(10.1138 0 8.59277)
(10.4931 0 9.32856)
(11.0307 0 10.0848)
(11.7875 0 10.7533)
(9.99792 0 0.155401)
(9.99102 0 0.308529)
(9.97892 0 0.461647)
(9.96232 0 0.616801)
(9.94191 0 0.775696)
(9.91818 0 0.939858)
(9.89154 0 1.11076)
(9.86251 0 1.28981)
(9.83166 0 1.47838)
(9.79961 0 1.67782)
(9.7671 0 1.88946)
(9.73493 0 2.11464)
(9.70403 0 2.35477)
(9.67548 0 2.61129)
(9.65052 0 2.88571)
(9.63063 0 3.17967)
(9.61758 0 3.49491)
(9.61353 0 3.83333)
(9.62115 0 4.19697)
(9.64378 0 4.58803)
(9.68567 0 5.00874)
(9.75226 0 5.4613)
(9.85045 0 5.94749)
(9.98893 0 6.46821)
(10.1784 0 7.02266)
(10.4312 0 7.60741)
(10.764 0 8.21517)
(11.1871 0 8.83275)
(11.7234 0 9.45178)
(12.4568 0 10.0014)
(9.99846 0 0.157969)
(9.99334 0 0.313592)
(9.98438 0 0.469104)
(9.9722 0 0.626524)
(9.95741 0 0.787525)
(9.94047 0 0.953592)
(9.92188 0 1.12615)
(9.90216 0 1.30654)
(9.88195 0 1.49608)
(9.86195 0 1.69601)
(9.84296 0 1.90757)
(9.82591 0 2.13198)
(9.81184 0 2.37048)
(9.80196 0 2.62431)
(9.79768 0 2.89476)
(9.80067 0 3.18312)
(9.81291 0 3.49077)
(9.83674 0 3.81905)
(9.87505 0 4.16933)
(9.93129 0 4.5429)
(10.0097 0 4.94082)
(10.1155 0 5.36378)
(10.2549 0 5.81177)
(10.4353 0 6.28367)
(10.6652 0 6.77665)
(10.9541 0 7.28561)
(11.3129 0 7.80232)
(11.7493 0 8.31271)
(12.2644 0 8.8024)
(12.9366 0 9.23254)
(9.99899 0 0.159826)
(9.99565 0 0.317239)
(9.98986 0 0.474427)
(9.98209 0 0.633365)
(9.97289 0 0.795682)
(9.96273 0 0.96281)
(9.95211 0 1.13611)
(9.94161 0 1.31686)
(9.93189 0 1.50628)
(9.92371 0 1.70552)
(9.91795 0 1.91568)
(9.91559 0 2.13784)
(9.91777 0 2.37306)
(9.9258 0 2.62237)
(9.94118 0 2.88677)
(9.96568 0 3.16724)
(10.0014 0 3.46471)
(10.0507 0 3.78001)
(10.1164 0 4.11385)
(10.202 0 4.4667)
(10.3114 0 4.83864)
(10.4492 0 5.22921)
(10.6206 0 5.63712)
(10.8317 0 6.05994)
(11.0887 0 6.49365)
(11.3982 0 6.93222)
(11.7663 0 7.36718)
(12.1973 0 7.7863)
(12.6858 0 8.17669)
(13.3027 0 8.5196)
(9.99952 0 0.160939)
(9.99795 0 0.319402)
(9.99529 0 0.477516)
(9.9919 0 0.637196)
(9.98823 0 0.800015)
(9.98475 0 0.96734)
(9.98196 0 1.14046)
(9.98048 0 1.32057)
(9.981 0 1.50879)
(9.9843 0 1.70614)
(9.99131 0 1.91361)
(10.003 0 2.13211)
(10.0207 0 2.3625)
(10.0456 0 2.60557)
(10.0794 0 2.86206)
(10.1237 0 3.13259)
(10.1807 0 3.4177)
(10.2526 0 3.71773)
(10.3423 0 4.03281)
(10.4528 0 4.3627)
(10.5875 0 4.70676)
(10.7504 0 5.06369)
(10.9457 0 5.43138)
(11.1778 0 5.80665)
(11.4512 0 6.18505)
(11.7698 0 6.56055)
(12.1368 0 6.92557)
(12.5544 0 7.27063)
(13.0156 0 7.5857)
(13.5823 0 7.8604)
(10 0 0.161279)
(10.0002 0 0.320028)
(10.0006 0 0.478292)
(10.0015 0 0.637918)
(10.0033 0 0.800407)
(10.0063 0 0.967054)
(10.0112 0 1.13907)
(10.0184 0 1.31754)
(10.0288 0 1.50349)
(10.0431 0 1.69781)
(10.0623 0 1.90135)
(10.0874 0 2.11484)
(10.1195 0 2.33895)
(10.1601 0 2.57425)
(10.2107 0 2.82118)
(10.2729 0 3.08007)
(10.3488 0 3.35106)
(10.4405 0 3.63409)
(10.5505 0 3.92879)
(10.6814 0 4.23443)
(10.8362 0 4.54978)
(11.018 0 4.87305)
(11.2299 0 5.20168)
(11.4752 0 5.53225)
(11.7566 0 5.86033)
(12.0764 0 6.18049)
(12.436 0 6.4863)
(12.8357 0 6.77044)
(13.2686 0 7.0251)
(13.7883 0 7.24374)
(10.0006 0 0.160825)
(10.0024 0 0.319073)
(10.0058 0 0.476696)
(10.0109 0 0.635456)
(10.0179 0 0.796776)
(10.0273 0 0.961869)
(10.0394 0 1.13185)
(10.0551 0 1.30771)
(10.0749 0 1.49035)
(10.0996 0 1.68055)
(10.1302 0 1.87899)
(10.1677 0 2.08625)
(10.2133 0 2.30279)
(10.2682 0 2.52895)
(10.3339 0 2.76495)
(10.412 0 3.01082)
(10.5042 0 3.26638)
(10.6127 0 3.53121)
(10.7393 0 3.8046)
(10.8865 0 4.08542)
(11.0565 0 4.37214)
(11.2516 0 4.66266)
(11.4743 0 4.95427)
(11.7264 0 5.2436)
(12.0097 0 5.52659)
(12.3251 0 5.79849)
(12.6728 0 6.054)
(13.0521 0 6.28743)
(13.4566 0 6.49288)
(13.9332 0 6.66611)
(10.0011 0 0.159562)
(10.0046 0 0.316509)
(10.0109 0 0.47269)
(10.02 0 0.629768)
(10.032 0 0.789081)
(10.0474 0 0.951751)
(10.0666 0 1.1188)
(10.0901 0 1.29111)
(10.1188 0 1.46946)
(10.1533 0 1.6545)
(10.1945 0 1.84677)
(10.2434 0 2.04668)
(10.3011 0 2.25452)
(10.3688 0 2.47043)
(10.4478 0 2.69439)
(10.5396 0 2.92619)
(10.6458 0 3.1654)
(10.768 0 3.41135)
(10.908 0 3.66305)
(11.0675 0 3.91917)
(11.2483 0 4.17796)
(11.4521 0 4.43725)
(11.6805 0 4.69439)
(11.9345 0 4.94623)
(12.215 0 5.18917)
(12.5221 0 5.4192)
(12.8551 0 5.63203)
(13.2129 0 5.82331)
(13.5897 0 5.98866)
(14.0269 0 6.12532)
(10.0015 0 0.157483)
(10.0066 0 0.312324)
(10.0157 0 0.466256)
(10.0286 0 0.620839)
(10.0454 0 0.777316)
(10.0665 0 0.936715)
(10.0923 0 1.09995)
(10.1233 0 1.26782)
(10.1601 0 1.44095)
(10.2036 0 1.61989)
(10.2545 0 1.80504)
(10.3137 0 1.99664)
(10.3822 0 2.19482)
(10.4612 0 2.39956)
(10.5517 0 2.61064)
(10.6552 0 2.82766)
(10.7728 0 3.05001)
(10.9059 0 3.27681)
(11.056 0 3.50693)
(11.2243 0 3.73892)
(11.4122 0 3.97098)
(11.6208 0 4.20098)
(11.8509 0 4.42645)
(12.103 0 4.64455)
(12.3774 0 4.8522)
(12.6735 0 5.04607)
(12.9903 0 5.22279)
(13.3262 0 5.37902)
(13.6764 0 5.51159)
(14.0778 0 5.61865)
(10.002 0 0.154586)
(10.0085 0 0.306517)
(10.0202 0 0.457402)
(10.0368 0 0.608687)
(10.0581 0 0.761519)
(10.0845 0 0.916826)
(10.1164 0 1.07543)
(10.1543 0 1.23799)
(10.1987 0 1.40507)
(10.2503 0 1.57706)
(10.3099 0 1.75423)
(10.3783 0 1.93671)
(10.4563 0 2.12447)
(10.5449 0 2.31734)
(10.6451 0 2.51497)
(10.7581 0 2.7168)
(10.8847 0 2.92209)
(11.0262 0 3.12986)
(11.1835 0 3.33888)
(11.3577 0 3.54768)
(11.5494 0 3.75453)
(11.7595 0 3.9574)
(11.9882 0 4.15407)
(12.2356 0 4.34207)
(12.5013 0 4.51881)
(12.7848 0 4.68159)
(13.0845 0 4.82776)
(13.399 0 4.95483)
(13.724 0 5.06048)
(14.0924 0 5.1435)
(10.0024 0 0.15088)
(10.0103 0 0.299105)
(10.0245 0 0.446154)
(10.0444 0 0.593358)
(10.0699 0 0.741761)
(10.1013 0 0.892193)
(10.1388 0 1.04537)
(10.1829 0 1.20187)
(10.2341 0 1.36211)
(10.2931 0 1.5264)
(10.3604 0 1.69488)
(10.4367 0 1.86757)
(10.5228 0 2.04433)
(10.6196 0 2.22486)
(10.7278 0 2.40869)
(10.8482 0 2.59518)
(10.9818 0 2.78351)
(11.1292 0 2.97264)
(11.2913 0 3.16134)
(11.4686 0 3.34818)
(11.6615 0 3.53151)
(11.8704 0 3.70952)
(12.0953 0 3.88023)
(12.3358 0 4.04156)
(12.5914 0 4.19135)
(12.8611 0 4.32745)
(13.1436 0 4.44783)
(13.4372 0 4.55061)
(13.7384 0 4.63413)
(14.0767 0 4.69762)
(10.0028 0 0.146377)
(10.012 0 0.290115)
(10.0284 0 0.43256)
(10.0514 0 0.574924)
(10.0808 0 0.718149)
(10.1166 0 0.862967)
(10.1593 0 1.01)
(10.209 0 1.15971)
(10.2663 0 1.31244)
(10.3317 0 1.46838)
(10.4057 0 1.62759)
(10.4888 0 1.78998)
(10.5818 0 1.95531)
(10.6851 0 2.12321)
(10.7996 0 2.29312)
(10.9257 0 2.46436)
(11.0642 0 2.63606)
(11.2155 0 2.80718)
(11.3802 0 2.97654)
(11.5584 0 3.14278)
(11.7503 0 3.30442)
(11.956 0 3.45983)
(12.1752 0 3.60732)
(12.4074 0 3.74513)
(12.6518 0 3.87153)
(12.9073 0 3.98483)
(13.1727 0 4.08345)
(13.4463 0 4.16601)
(13.7251 0 4.23135)
(14.0359 0 4.27899)
(10.0031 0 0.141098)
(10.0136 0 0.279589)
(10.032 0 0.416687)
(10.0579 0 0.553484)
(10.0907 0 0.690821)
(10.1306 0 0.829335)
(10.1778 0 0.969551)
(10.2326 0 1.11185)
(10.2952 0 1.25648)
(10.3661 0 1.40354)
(10.4458 0 1.553)
(10.5346 0 1.70471)
(10.6331 0 1.85836)
(10.7417 0 2.01351)
(10.8609 0 2.16957)
(10.9911 0 2.32582)
(11.1327 0 2.48141)
(11.2861 0 2.63533)
(11.4514 0 2.78647)
(11.6287 0 2.93359)
(11.818 0 3.07535)
(12.019 0 3.21037)
(12.2312 0 3.3372)
(12.454 0 3.4544)
(12.6866 0 3.56058)
(12.9279 0 3.65441)
(13.1765 0 3.73473)
(13.4312 0 3.80051)
(13.6891 0 3.85095)
(13.9746 0 3.88579)
(10.0035 0 0.135067)
(10.015 0 0.267579)
(10.0353 0 0.398618)
(10.0637 0 0.529158)
(10.0997 0 0.65994)
(10.1432 0 0.791513)
(10.1944 0 0.924313)
(10.2535 0 1.05864)
(10.3207 0 1.19466)
(10.3963 0 1.3324)
(10.4807 0 1.47178)
(10.5741 0 1.61256)
(10.6769 0 1.75441)
(10.7895 0 1.89684)
(10.912 0 2.03926)
(11.0449 0 2.18095)
(11.1882 0 2.32108)
(11.3421 0 2.45872)
(11.5066 0 2.59284)
(11.6816 0 2.72233)
(11.8668 0 2.84604)
(12.0619 0 2.96277)
(12.2663 0 3.07132)
(12.4792 0 3.17052)
(12.6997 0 3.25928)
(12.9269 0 3.33657)
(13.1595 0 3.40153)
(13.3963 0 3.45343)
(13.6349 0 3.49172)
(13.8973 0 3.5163)
(10.0038 0 0.128314)
(10.0162 0 0.254146)
(10.0382 0 0.378447)
(10.0689 0 0.50208)
(10.1076 0 0.62569)
(10.1543 0 0.749741)
(10.209 0 0.874589)
(10.2718 0 1.00046)
(10.3429 0 1.12745)
(10.4224 0 1.25554)
(10.5106 0 1.38459)
(10.6076 0 1.51432)
(10.7137 0 1.64436)
(10.8291 0 1.77424)
(10.9538 0 1.90335)
(11.088 0 2.03101)
(11.2317 0 2.15644)
(11.3848 0 2.27879)