/*--------------------------------*- C++ -*----------------------------------*\
  =========                 |
  \\      /  F ield         | OpenFOAM: The Open Source CFD Toolbox
   \\    /   O peration     | Website:  https://openfoam.org
    \\  /    A nd           | Version:  dev
     \\/     M anipulation  |
\*---------------------------------------------------------------------------*/
FoamFile
{
    version     2.0;
    format      ascii;
    class       surfaceVectorField;
    location    "0.5";
    object      Uf;
}
// * * * * * * * * * * * * * * * * * * * * * * * * * * * * * * * * * * * * * //

dimensions      [0 1 -1 0 0 0 0];

internalField   nonuniform List<vector> 
5457
(
(9.92082 0 0.0251287)
(9.97122 0 0.0387782)
(9.82386 0 0.0328463)
(9.92848 0 0.0486284)
(9.70939 0 0.0393218)
(9.85528 0 0.0588023)
(9.57521 0 0.0460017)
(9.75656 0 0.0705995)
(9.42122 0 0.0529093)
(9.63732 0 0.0829735)
(9.24758 0 0.0600858)
(9.49853 0 0.0958314)
(9.05399 0 0.0676776)
(9.33948 0 0.109422)
(8.83981 0 0.0758343)
(9.15934 0 0.123991)
(8.60413 0 0.084686)
(8.95732 0 0.139737)
(8.34586 0 0.0943558)
(8.73246 0 0.156839)
(8.06372 0 0.104967)
(8.48362 0 0.175474)
(7.75631 0 0.116642)
(8.20945 0 0.195812)
(7.42215 0 0.129499)
(7.90849 0 0.218008)
(7.05969 0 0.143647)
(7.57919 0 0.242186)
(6.66746 0 0.159166)
(7.22 0 0.268417)
(6.24416 0 0.176096)
(6.82945 0 0.296687)
(5.78884 0 0.194406)
(6.4063 0 0.326854)
(5.3011 0 0.213958)
(5.9497 0 0.358592)
(4.78142 0 0.234454)
(5.45948 0 0.391315)
(4.23151 0 0.255366)
(4.93646 0 0.424096)
(3.65476 0 0.275824)
(4.38281 0 0.455558)
(3.0568 0 0.294435)
(3.80258 0 0.483739)
(2.4462 0 0.308944)
(3.20223 0 0.505906)
(1.83552 0 0.315548)
(2.59133 0 0.518213)
(1.24292 0 0.307524)
(1.98337 0 0.515032)
(0.695183 0 0.273073)
(1.39686 0 0.487562)
(0.232592 0 0.192454)
(0.857705 0 0.421729)
(-0.0831484 0 0.0435948)
(0.407727 0 0.294813)
(-0.170629 0 -0.118915)
(0.0934088 0 0.0836582)
(0.017482 0 -0.167121)
(9.99634 0 0.0517291)
(9.99702 0 0.0405694)
(9.95864 0 0.0709191)
(9.9784 0 0.0675403)
(9.89803 0 0.088016)
(9.93358 0 0.0899366)
(9.81637 0 0.105958)
(9.86428 0 0.113564)
(9.71345 0 0.124811)
(9.77415 0 0.13843)
(9.58915 0 0.144629)
(9.66424 0 0.164429)
(9.44316 0 0.165721)
(9.53411 0 0.191942)
(9.27486 0 0.188417)
(9.38303 0 0.221423)
(9.08337 0 0.21301)
(9.2103 0 0.253271)
(8.86762 0 0.239768)
(9.01507 0 0.287854)
(8.62635 0 0.268951)
(8.79628 0 0.325534)
(8.35813 0 0.300802)
(8.55268 0 0.366662)
(8.06145 0 0.335531)
(8.28289 0 0.411564)
(7.7347 0 0.373287)
(7.9854 0 0.460512)
(7.37631 0 0.414114)
(7.65867 0 0.513676)
(6.98484 0 0.457903)
(7.30115 0 0.571069)
(6.55912 0 0.504309)
(6.91147 0 0.632453)
(6.09852 0 0.552661)
(6.48851 0 0.697232)
(5.60319 0 0.601837)
(6.03169 0 0.764299)
(5.07445 0 0.650127)
(5.54121 0 0.831865)
(4.51527 0 0.695055)
(5.01845 0 0.897236)
(3.9308 0 0.733155)
(4.46641 0 0.95656)
(3.32904 0 0.759645)
(3.89024 0 1.00449)
(2.72153 0 0.767895)
(3.29774 0 1.03373)
(2.12408 0 0.748522)
(2.69988 0 1.03428)
(1.55691 0 0.688192)
(2.11078 0 0.992428)
(1.04326 0 0.568723)
(1.54708 0 0.890001)
(0.601769 0 0.367986)
(1.02816 0 0.707044)
(0.235924 0 0.0587721)
(0.563227 0 0.433518)
(0.226174 0 0.0639523)
(9.98896 0 0.0595254)
(9.99478 0 0.045975)
(9.95418 0 0.0895721)
(9.97358 0 0.0849841)
(9.89707 0 0.11808)
(9.92964 0 0.119277)
(9.82022 0 0.147853)
(9.86332 0 0.153997)
(9.72397 0 0.179236)
(9.77711 0 0.190293)
(9.60818 0 0.2124)
(9.67211 0 0.228331)
(9.4726 0 0.247776)
(9.54815 0 0.268575)
(9.31678 0 0.285857)
(9.40471 0 0.311631)
(9.14001 0 0.327108)
(9.24123 0 0.358076)
(8.94142 0 0.371976)
(9.05706 0 0.408452)
(8.71992 0 0.420897)
(8.85135 0 0.463295)
(8.47428 0 0.474289)
(8.6231 0 0.523132)
(8.20312 0 0.532526)
(8.37117 0 0.588463)
(7.90499 0 0.595888)
(8.0943 0 0.659719)
(7.57834 0 0.664504)
(7.79116 0 0.737212)
(7.22169 0 0.738259)
(7.46038 0 0.821043)
(6.83368 0 0.816669)
(7.10061 0 0.91099)
(6.41324 0 0.898726)
(6.71065 0 1.00634)
(5.95986 0 0.982695)
(6.28955 0 1.10569)
(5.47386 0 1.06588)
(5.83685 0 1.20668)
(4.95677 0 1.14433)
(5.35283 0 1.30566)
(4.41183 0 1.21253)
(4.83885 0 1.3974)
(3.84441 0 1.26304)
(4.29773 0 1.47463)
(3.26238 0 1.28596)
(3.73411 0 1.52763)
(2.6761 0 1.26856)
(3.15457 0 1.54382)
(2.0973 0 1.1951)
(2.56736 0 1.50764)
(1.53639 0 1.04846)
(1.98113 0 1.40136)
(0.998938 0 0.816829)
(1.40472 0 1.20888)
(0.484468 0 0.492612)
(0.830457 0 0.925509)
(0.362205 0 0.538459)
(9.98509 0 0.071747)
(9.99364 0 0.053278)
(9.95024 0 0.113767)
(9.97077 0 0.102465)
(9.89414 0 0.154207)
(9.92671 0 0.148094)
(9.81857 0 0.195522)
(9.8616 0 0.193755)
(9.72421 0 0.238574)
(9.77721 0 0.241137)
(9.61106 0 0.283837)
(9.6745 0 0.290779)
(9.47894 0 0.331915)
(9.55345 0 0.343255)
(9.32754 0 0.383473)
(9.41368 0 0.399277)
(9.15637 0 0.439161)
(9.25478 0 0.459562)
(8.96478 0 0.499604)
(9.07621 0 0.524796)
(8.75197 0 0.565418)
(8.87735 0 0.595653)
(8.51701 0 0.637199)
(8.65741 0 0.672801)
(8.25886 0 0.715497)
(8.41551 0 0.756877)
(7.9764 0 0.800758)
(8.1507 0 0.848451)
(7.66844 0 0.893255)
(7.86193 0 0.947962)
(7.33375 0 0.992973)
(7.54813 0 1.05563)
(6.97113 0 1.09946)
(7.20819 0 1.1713)
(6.57949 0 1.2116)
(6.84101 0 1.29428)
(6.15796 0 1.32739)
(6.44556 0 1.4231)
(5.7061 0 1.44359)
(6.02097 0 1.55516)
(5.22411 0 1.55537)
(5.56666 0 1.68637)
(4.71314 0 1.65589)
(5.08251 0 1.81077)
(4.17554 0 1.73597)
(4.56908 0 1.92005)
(3.61503 0 1.78373)
(4.0278 0 2.00327)
(3.03644 0 1.78457)
(3.46104 0 2.04668)
(2.44493 0 1.72199)
(2.87196 0 2.03415)
(1.84454 0 1.58027)
(2.26376 0 1.94872)
(1.23688 0 1.35201)
(1.64102 0 1.77626)
(0.619785 0 1.02987)
(0.988145 0 1.51564)
(0.429757 0 1.1455)
(9.9833 0 0.0845788)
(9.99313 0 0.0614539)
(9.94806 0 0.137014)
(9.96948 0 0.120145)
(9.89292 0 0.188131)
(9.92555 0 0.176417)
(9.81881 0 0.240112)
(9.86174 0 0.232746)
(9.72641 0 0.294178)
(9.77938 0 0.290924)
(9.61582 0 0.35106)
(9.67922 0 0.351816)
(9.48687 0 0.411479)
(9.56127 0 0.41614)
(9.33931 0 0.476204)
(9.42525 0 0.484702)
(9.17273 0 0.545994)
(9.27078 0 0.558329)
(8.9866 0 0.621588)
(9.09743 0 0.637825)
(8.78027 0 0.703715)
(8.90466 0 0.723979)
(8.553 0 0.793081)
(8.69181 0 0.817567)
(8.30398 0 0.890346)
(8.45817 0 0.919333)
(8.03234 0 0.996068)
(8.20293 0 1.02995)
(7.73715 0 1.11063)
(7.92526 0 1.14997)
(7.41744 0 1.23411)
(7.62425 0 1.27971)
(7.07219 0 1.36614)
(7.29896 0 1.41913)
(6.7004 0 1.50566)
(6.94839 0 1.56763)
(6.30104 0 1.65062)
(6.57144 0 1.72382)
(5.87316 0 1.79765)
(6.16695 0 1.88515)
(5.41591 0 1.94159)
(5.73369 0 2.04753)
(4.92872 0 2.07513)
(5.27033 0 2.20489)
(4.41136 0 2.18835)
(4.7756 0 2.34871)
(3.86405 0 2.26859)
(4.2483 0 2.46771)
(3.28741 0 2.3007)
(3.68748 0 2.54785)
(2.6822 0 2.26816)
(3.09255 0 2.57287)
(2.04901 0 2.15581)
(2.4631 0 2.52598)
(1.38843 0 1.95689)
(1.80237 0 2.39305)
(0.70121 0 1.65864)
(1.08953 0 2.17284)
(0.469459 0 1.83229)
(9.98257 0 0.097707)
(9.99296 0 0.0699872)
(9.94729 0 0.159992)
(9.96914 0 0.137845)
(9.89332 0 0.221472)
(9.92577 0 0.204141)
(9.82108 0 0.284032)
(9.86355 0 0.270751)
(9.73112 0 0.349012)
(9.7836 0 0.339399)
(9.62357 0 0.417318)
(9.68646 0 0.41117)
(9.49832 0 0.489781)
(9.57216 0 0.486938)
(9.35512 0 0.56726)
(9.44046 0 0.567603)
(9.19361 0 0.65062)
(9.29105 0 0.654087)
(9.01334 0 0.74071)
(9.12354 0 0.747298)
(8.81372 0 0.838365)
(8.93743 0 0.848126)
(8.59413 0 0.944396)
(8.73216 0 0.957445)
(8.35385 0 1.05956)
(8.50707 0 1.07609)
(8.09212 0 1.18452)
(8.26143 0 1.20484)
(7.80812 0 1.31975)
(7.99447 0 1.34433)
(7.50098 0 1.46546)
(7.70535 0 1.49498)
(7.16976 0 1.62138)
(7.39313 0 1.6569)
(6.81339 0 1.7866)
(7.05676 0 1.82963)
(6.43067 0 1.95923)
(6.695 0 2.012)
(6.02018 0 2.13604)
(6.30634 0 2.20172)
(5.58024 0 2.31206)
(5.88893 0 2.39503)
(5.10889 0 2.48005)
(5.44047 0 2.5862)
(4.60391 0 2.6302)
(4.95818 0 2.76711)
(4.06287 0 2.74983)
(4.43882 0 2.92682)
(3.48337 0 2.82377)
(3.8789 0 3.05151)
(2.86324 0 2.83538)
(3.27508 0 3.12486)
(2.20119 0 2.76887)
(2.62444 0 3.12955)
(1.498 0 2.61578)
(1.93023 0 3.04964)
(0.757837 0 2.35488)
(1.16707 0 2.88066)
(0.497826 0 2.57455)
(9.98244 0 0.110873)
(9.99299 0 0.0785873)
(9.94756 0 0.182581)
(9.96943 0 0.155341)
(9.895 0 0.253968)
(9.92703 0 0.231136)
(9.82499 0 0.326704)
(9.86672 0 0.307587)
(9.73791 0 0.402176)
(9.78952 0 0.38632)
(9.63393 0 0.481438)
(9.69587 0 0.468557)
(9.51296 0 0.565444)
(9.58576 0 0.555314)
(9.3748 0 0.655154)
(9.45902 0 0.647588)
(9.21912 0 0.75153)
(9.31537 0 0.746392)
(9.0455 0 0.855522)
(9.15448 0 0.852729)
(8.85343 0 0.968059)
(8.97589 0 0.967584)
(8.64231 0 1.09004)
(8.77908 0 1.09192)
(8.41148 0 1.22233)
(8.56343 0 1.22669)
(8.1602 0 1.36567)
(8.32824 0 1.37274)
(7.88768 0 1.52066)
(8.07275 0 1.53083)
(7.593 0 1.68763)
(7.79607 0 1.70152)
(7.27514 0 1.86648)
(7.49718 0 1.88507)
(6.93287 0 2.05651)
(7.17487 0 2.08128)
(6.56467 0 2.25616)
(6.82764 0 2.28925)
(6.16863 0 2.4626)
(6.45356 0 2.50715)
(5.74228 0 2.67134)
(6.05015 0 2.73179)
(5.28249 0 2.87577)
(5.6142 0 2.95816)
(4.78542 0 3.06665)
(5.14161 0 3.17895)
(4.2466 0 3.23185)
(4.62742 0 3.38406)
(3.66129 0 3.35635)
(4.06603 0 3.56021)
(3.02518 0 3.42309)
(3.45181 0 3.69108)
(2.33564 0 3.41447)
(2.77957 0 3.75818)
(1.5939 0 3.31846)
(2.05287 0 3.74221)
(0.807112 0 3.10316)
(1.24173 0 3.63307)
(0.52481 0 3.36506)
(9.98267 0 0.123865)
(9.99313 0 0.0870739)
(9.94858 0 0.204605)
(9.97017 0 0.172438)
(9.89773 0 0.285428)
(9.92908 0 0.257261)
(9.83026 0 0.367901)
(9.871 0 0.34308)
(9.7465 0 0.453433)
(9.79691 0 0.431458)
(9.64658 0 0.543193)
(9.70717 0 0.523699)
(9.53048 0 0.638249)
(9.60178 0 0.62094)
(9.39801 0 0.739655)
(9.48059 0 0.724275)
(9.2489 0 0.848463)
(9.34339 0 0.834802)
(9.08277 0 0.965713)
(9.18988 0 0.953613)
(8.89915 0 1.09243)
(9.01967 0 1.08179)
(8.69748 0 1.22961)
(8.83226 0 1.22038)
(8.47712 0 1.37822)
(8.62707 0 1.37044)
(8.23734 0 1.53911)
(8.40343 0 1.53295)
(7.9773 0 1.71302)
(8.16054 0 1.70879)
(7.696 0 1.90043)
(7.89746 0 1.89868)
(7.39225 0 2.1015)
(7.61306 0 2.10311)
(7.06458 0 2.31585)
(7.30592 0 2.32219)
(6.71108 0 2.54231)
(6.97422 0 2.55543)
(6.32929 0 2.77869)
(6.61559 0 2.8016)
(5.91594 0 3.02128)
(6.2269 0 3.05828)
(5.46684 0 3.26439)
(5.80402 0 3.32147)
(4.97668 0 3.49982)
(5.34166 0 3.58507)
(4.43916 0 3.71634)
(4.83322 0 3.84019)
(3.84739 0 3.89932)
(4.27096 0 4.07452)
(3.19494 0 4.031)
(3.64685 0 4.27186)
(2.47755 0 4.09111)
(2.95289 0 4.4122)
(1.69625 0 4.0622)
(2.19215 0 4.47173)
(0.860421 0 3.89943)
(1.32927 0 4.43238)
(0.557614 0 4.20779)
(9.98315 0 0.136522)
(9.99336 0 0.0953265)
(9.95018 0 0.225905)
(9.97122 0 0.188974)
(9.9013 0 0.315696)
(9.93176 0 0.282368)
(9.83671 0 0.407436)
(9.87621 0 0.377066)
(9.75664 0 0.502554)
(9.80557 0 0.474601)
(9.66126 0 0.602307)
(9.72015 0 0.576338)
(9.55056 0 0.707864)
(9.61995 0 0.683511)
(9.42441 0 0.820365)
(9.50487 0 0.797306)
(9.28257 0 0.940948)
(9.37475 0 0.9189)
(9.12472 0 1.07074)
(9.22934 0 1.04947)
(8.95043 0 1.21087)
(9.0683 0 1.19018)
(8.7592 0 1.36242)
(8.8912 0 1.3422)
(8.5504 0 1.52647)
(8.69749 0 1.50666)
(8.32331 0 1.70403)
(8.48653 0 1.68469)
(8.07704 0 1.89597)
(8.25752 0 1.87732)
(7.81051 0 2.10303)
(8.00947 0 2.08549)
(7.52236 0 2.32563)
(7.74115 0 2.30996)
(7.21085 0 2.56381)
(7.45096 0 2.55121)
(6.8737 0 2.81699)
(7.1368 0 2.80931)
(6.50789 0 3.08373)
(6.79589 0 3.08372)
(6.1094 0 3.36134)
(6.4245 0 3.37303)
(5.67296 0 3.64542)
(6.01768 0 3.67454)
(5.19186 0 3.92917)
(5.56894 0 3.98368)
(4.65789 0 4.2027)
(5.06999 0 4.2933)
(4.06175 0 4.45218)
(4.51077 0 4.59264)
(3.39413 0 4.65922)
(3.88014 0 4.86613)
(2.64796 0 4.80031)
(3.16592 0 5.09245)
(1.82239 0 4.85091)
(2.36862 0 5.24258)
(0.927755 0 4.7501)
(1.44527 0 5.28793)
(0.603591 0 5.11647)
(9.9838 0 0.148722)
(9.99366 0 0.103258)
(9.95222 0 0.24634)
(9.97251 0 0.204817)
(9.90559 0 0.344621)
(9.93494 0 0.306319)
(9.84416 0 0.445128)
(9.8822 0 0.409386)
(9.76815 0 0.549313)
(9.81532 0 0.515557)
(9.67774 0 0.658507)
(9.73458 0 0.626239)
(9.57293 0 0.773961)
(9.64001 0 0.742749)
(9.45366 0 0.896901)
(9.53154 0 0.866352)
(9.31974 0 1.02854)
(9.40908 0 0.998302)
(9.1709 0 1.1701)
(9.27243 0 1.13985)
(9.00679 0 1.32278)
(9.12131 0 1.29225)
(8.82693 0 1.48779)
(8.95537 0 1.45677)
(8.63075 0 1.66633)
(8.77411 0 1.63464)
(8.41756 0 1.85954)
(8.57693 0 1.82714)
(8.18645 0 2.06852)
(8.36308 0 2.03548)
(7.93629 0 2.29425)
(8.13157 0 2.26083)
(7.66561 0 2.53752)
(7.88111 0 2.50427)
(7.37246 0 2.79887)
(7.61002 0 2.76673)
(7.05427 0 3.0784)
(7.31602 0 3.04891)
(6.70753 0 3.37562)
(6.99603 0 3.35113)
(6.32757 0 3.68911)
(6.64589 0 3.67315)
(5.90817 0 4.01604)
(6.25998 0 4.01382)
(5.44119 0 4.35154)
(5.83073 0 4.3706)
(4.91634 0 4.68771)
(5.34822 0 4.73868)
(4.32129 0 5.01226)
(4.79974 0 5.10979)
(3.6426 0 5.30694)
(4.17011 0 5.47026)
(2.86801 0 5.54516)
(3.44083 0 5.79862)
(1.99145 0 5.69381)
(2.606 0 6.06104)
(1.02117 0 5.67122)
(1.60987 0 6.21581)
(0.673196 0 6.11664)
(9.98459 0 0.160366)
(9.994 0 0.110804)
(9.9546 0 0.265783)
(9.974 0 0.219857)
(9.91047 0 0.372061)
(9.93853 0 0.328989)
(9.85248 0 0.480807)
(9.88886 0 0.439899)
(9.78086 0 0.593506)
(9.82602 0 0.55415)
(9.69578 0 0.711546)
(9.75029 0 0.673191)
(9.59732 0 0.836253)
(9.66173 0 0.798402)
(9.48545 0 0.968924)
(9.56033 0 0.931119)
(9.36003 0 1.11085)
(9.44603 0 1.07266)
(9.22087 0 1.26332)
(9.31872 0 1.22436)
(9.06768 0 1.42764)
(9.1782 0 1.38753)
(8.90006 0 1.60511)
(9.02418 0 1.56354)
(8.71752 0 1.79705)
(8.85625 0 1.75373)
(8.5194 0 2.00478)
(8.67391 0 1.95952)
(8.30484 0 2.22961)
(8.47645 0 2.18231)
(8.07273 0 2.4728)
(8.26297 0 2.42351)
(7.82157 0 2.73558)
(8.03222 0 2.68457)
(7.54933 0 3.01902)
(7.78253 0 2.96689)
(7.25326 0 3.32403)
(7.51161 0 3.27185)
(6.92962 0 3.65121)
(7.21631 0 3.60073)
(6.57327 0 4.00061)
(6.89228 0 3.95461)
(6.17725 0 4.37138)
(6.53353 0 4.33419)
(5.73217 0 4.76116)
(6.13182 0 4.73937)
(5.22561 0 5.16496)
(5.67584 0 5.16854)
(4.64167 0 5.57349)
(5.15029 0 5.6173)
(3.96106 0 5.97049)
(4.53523 0 6.07609)
(3.16276 0 6.32805)
(3.80334 0 6.5264)
(2.22933 0 6.60425)
(2.93633 0 6.9326)
(1.15918 0 6.69004)
(1.85474 0 7.2392)
(0.785095 0 7.25199)
(9.98548 0 0.171377)
(9.99438 0 0.117913)
(9.95727 0 0.284129)
(9.97564 0 0.234008)
(9.91585 0 0.39789)
(9.94245 0 0.350268)
(9.86153 0 0.514323)
(9.89608 0 0.468475)
(9.79458 0 0.634949)
(9.83752 0 0.590227)
(9.71519 0 0.761205)
(9.7671 0 0.717006)
(9.62347 0 0.89448)
(9.68489 0 0.850247)
(9.51944 0 1.03613)
(9.59093 0 0.991345)
(9.40304 0 1.18752)
(9.48525 0 1.14168)
(9.27415 0 1.35)
(9.36779 0 1.30263)
(9.13256 0 1.52495)
(9.23845 0 1.47559)
(8.97797 0 1.71378)
(9.09703 0 1.662)
(8.80998 0 1.91794)
(8.94323 0 1.86333)
(8.62802 0 2.13889)
(8.77665 0 2.0811)
(8.43135 0 2.37817)
(8.59673 0 2.3169)
(8.21893 0 2.63735)
(8.40268 0 2.57239)
(7.98936 0 2.91807)
(8.19341 0 2.84936)
(7.74069 0 3.22202)
(7.96741 0 3.14971)
(7.47023 0 3.55094)
(7.72256 0 3.4755)
(7.17423 0 3.9066)
(7.45591 0 3.829)
(6.84749 0 4.29071)
(7.16331 0 4.21269)
(6.48275 0 4.70476)
(6.83891 0 4.62926)
(6.06986 0 5.14951)
(6.47444 0 5.08147)
(5.59469 0 5.62417)
(6.05804 0 5.57176)
(5.03774 0 6.12461)
(5.57267 0 6.10136)
(4.37259 0 6.64019)
(4.99403 0 6.66816)
(3.56514 0 7.14672)
(4.28457 0 7.26253)
(2.57619 0 7.59775)
(3.40656 0 7.85601)
(1.37559 0 7.85051)
(2.23617 0 8.38734)
(0.978167 0 8.5993)
(9.98646 0 0.181693)
(9.99478 0 0.124544)
(9.96017 0 0.301286)
(9.9774 0 0.247195)
(9.92163 0 0.421996)
(9.94665 0 0.370062)
(9.87121 0 0.545543)
(9.90375 0 0.495003)
(9.80918 0 0.673483)
(9.84969 0 0.623652)
(9.73576 0 0.807295)
(9.78481 0 0.757524)
(9.65111 0 0.948417)
(9.70924 0 0.898096)
(9.5553 0 1.09826)
(9.62306 0 1.04681)
(9.44837 0 1.25824)
(9.52636 0 1.20508)
(9.33025 0 1.42976)
(9.41919 0 1.37435)
(9.20085 0 1.61428)
(9.30152 0 1.55607)
(9.05997 0 1.81329)
(9.17327 0 1.75174)
(8.90733 0 2.02834)
(9.03427 0 1.96291)
(8.74252 0 2.26107)
(8.88426 0 2.19122)
(8.56494 0 2.5132)
(8.72286 0 2.43842)
(8.37374 0 2.78659)
(8.54949 0 2.7064)
(8.16772 0 3.08329)
(8.36329 0 2.99725)
(7.9452 0 3.40556)
(8.16307 0 3.31331)
(7.7038 0 3.75596)
(7.9471 0 3.65728)
(7.44014 0 4.13745)
(7.71293 0 4.03234)
(7.14943 0 4.55347)
(7.45704 0 4.44231)
(6.82483 0 5.00799)
(7.17442 0 4.89186)
(6.45638 0 5.50545)
(6.85771 0 5.38674)
(6.02953 0 6.05051)
(6.49607 0 5.93399)
(5.52253 0 6.64696)
(6.0729 0 6.542)
(4.90251 0 7.29541)
(5.56259 0 7.22005)
(4.1195 0 7.98615)
(4.92031 0 7.97638)
(3.0988 0 8.68527)
(4.0866 0 8.80906)
(1.74105 0 9.22538)
(2.86378 0 9.68576)
(1.34413 0 10.3045)
(9.98749 0 0.191262)
(9.99521 0 0.130669)
(9.96324 0 0.31718)
(9.97926 0 0.259361)
(9.92775 0 0.444286)
(9.95106 0 0.388293)
(9.8814 0 0.574355)
(9.91179 0 0.519388)
(9.82449 0 0.708976)
(9.8624 0 0.654315)
(9.75729 0 0.849662)
(9.80328 0 0.794613)
(9.67999 0 0.997888)
(9.73457 0 0.941792)
(9.59272 0 1.15511)
(9.65643 0 1.09732)
(9.49561 0 1.32276)
(9.56902 0 1.26267)
(9.38868 0 1.50233)
(9.47247 0 1.43929)
(9.27194 0 1.6953)
(9.36686 0 1.62868)
(9.14533 0 1.90324)
(9.25223 0 1.83239)
(9.00872 0 2.12778)
(9.12856 0 2.05203)
(8.86187 0 2.37069)
(8.99578 0 2.28935)
(8.7044 0 2.63386)
(8.8537 0 2.54619)
(8.53572 0 2.9194)
(8.70201 0 2.82463)
(8.35497 0 3.2297)
(8.5402 0 3.127)
(8.16091 0 3.56751)
(8.36751 0 3.45599)
(7.95171 0 3.93611)
(8.18279 0 3.81481)
(7.72476 0 4.33952)
(7.98439 0 4.20737)
(7.47627 0 4.78273)
(7.76989 0 4.63858)
(7.20071 0 5.2721)
(7.53578 0 5.11478)
(6.88982 0 5.81582)
(7.27688 0 5.64433)
(6.53089 0 6.42461)
(6.98537 0 6.23857)
(6.10364 0 7.11242)
(6.64887 0 6.91333)
(5.57405 0 7.89745)
(6.24734 0 7.69145)
(4.88162 0 8.80162)
(5.7416 0 8.60765)
(3.9105 0 9.84854)
(5.07228 0 9.71581)
(2.42373 0 10.9448)
(3.97396 0 11.1076)
(2.13241 0 12.6784)
(9.98858 0 0.200045)
(9.99565 0 0.136261)
(9.96645 0 0.331748)
(9.98119 0 0.27046)
(9.93412 0 0.464677)
(9.95563 0 0.404899)
(9.89199 0 0.600652)
(9.92012 0 0.541556)
(9.84038 0 0.74129)
(9.87556 0 0.682125)
(9.77958 0 0.888129)
(9.82235 0 0.828167)
(9.70984 0 1.04267)
(9.76071 0 0.98121)
(9.63138 0 1.2064)
(9.69085 0 1.14275)
(9.54436 0 1.38078)
(9.613 0 1.31426)
(9.44893 0 1.56732)
(9.5274 0 1.49723)
(9.34523 0 1.76754)
(9.43422 0 1.69318)
(9.23332 0 1.98307)
(9.33365 0 1.90367)
(9.11324 0 2.21559)
(9.22583 0 2.13037)
(8.98498 0 2.46695)
(9.11088 0 2.37505)
(8.84839 0 2.73917)
(8.98886 0 2.63966)
(8.70325 0 3.03453)
(8.85978 0 2.92636)
(8.54912 0 3.35567)
(8.72354 0 3.23764)
(8.38533 0 3.70569)
(8.57991 0 3.57641)
(8.21085 0 4.08842)
(8.42848 0 3.94619)
(8.02416 0 4.5086)
(8.26861 0 4.35134)
(7.82304 0 4.97239)
(8.09935 0 4.79744)
(7.60423 0 5.48795)
(7.91931 0 5.2918)
(7.36279 0 6.06645)
(7.72654 0 5.84437)
(7.09102 0 6.72374)
(7.5183 0 6.46919)
(6.77622 0 7.48333)
(7.29064 0 7.18693)
(6.39559 0 8.38268)
(7.03862 0 8.03026)
(5.90337 0 9.48795)
(6.75353 0 9.05639)
(5.18876 0 10.95)
(6.4558 0 10.3831)
(3.88697 0 13.2632)
(6.20407 0 12.3525)
(5.29635 0 16.4855)
(-0.727562 0 0.531661)
(-0.480319 0 0.712602)
(-1.63811 0 0.591315)
(-1.27619 0 0.870764)
(-2.61379 0 0.586047)
(-2.2548 0 0.91101)
(-3.62172 0 0.566316)
(-3.25061 0 0.918891)
(-4.64264 0 0.540512)
(-4.26249 0 0.908764)
(-5.66328 0 0.511369)
(-5.2772 0 0.887047)
(-6.67287 0 0.479874)
(-6.28401 0 0.856718)
(-7.66179 0 0.446436)
(-7.27334 0 0.819362)
(-8.6208 0 0.411202)
(-8.2361 0 0.775814)
(-9.54048 0 0.374165)
(-9.1632 0 0.72643)
(-10.4108 0 0.335225)
(-10.0451 0 0.671236)
(-11.221 0 0.294242)
(-10.8713 0 0.610051)
(-11.959 0 0.251074)
(-11.6303 0 0.542599)
(-12.6119 0 0.205619)
(-12.3095 0 0.468643)
(-13.1656 0 0.157871)
(-12.8951 0 0.388077)
(-13.6055 0 0.107902)
(-13.3726 0 0.3011)
(-13.9172 0 0.0558477)
(-13.7273 0 0.208258)
(-14.0868 0 0.00166319)
(-13.9446 0 0.110653)
(-14.0976 0 -0.0558539)
(-14.0096 0 0.00682517)
(-13.9416 0 -0.116474)
(-13.9099 0 -0.0970232)
(-13.6063 0 -0.178767)
(-13.6395 0 -0.203568)
(-13.0859 0 -0.243063)
(-13.1904 0 -0.308574)
(-12.3737 0 -0.310839)
(-12.5575 0 -0.412286)
(-11.4603 0 -0.385242)
(-11.7347 0 -0.516317)
(-10.3304 0 -0.473214)
(-10.7091 0 -0.62356)
(-8.95569 0 -0.592579)
(-9.45076 0 -0.740752)
(-7.26032 0 -0.785997)
(-7.91234 0 -0.891976)
(-5.01914 0 -1.12921)
(-6.05536 0 -1.15129)
(-1.73078 0 -1.76165)
(-3.77929 0 -1.64933)
(0.812601 0 -2.45524)
(-0.927732 0 1.23945)
(-0.585872 0 1.62126)
(-1.88072 0 1.33436)
(-1.40205 0 1.78211)
(-2.8618 0 1.35775)
(-2.38095 0 1.82706)
(-3.86199 0 1.35299)
(-3.35492 0 1.83073)
(-4.86879 0 1.32925)
(-4.33656 0 1.80495)
(-5.87101 0 1.29169)
(-5.31544 0 1.75809)
(-6.85877 0 1.24311)
(-6.28298 0 1.69492)
(-7.82296 0 1.18504)
(-7.231 0 1.61823)
(-8.75467 0 1.1182)
(-8.15143 0 1.52954)
(-9.64469 0 1.04275)
(-9.03595 0 1.42943)
(-10.4831 0 0.958494)
(-9.87553 0 1.31786)
(-11.2591 0 0.864996)
(-10.6602 0 1.19438)
(-11.9607 0 0.761806)
(-11.3785 0 1.05837)
(-12.5745 0 0.648621)
(-12.0181 0 0.909293)
(-13.0865 0 0.525475)
(-12.5649 0 0.746924)
(-13.4819 0 0.392887)
(-13.0045 0 0.571665)
(-13.7459 0 0.251881)
(-13.3219 0 0.38467)
(-13.8639 0 0.103713)
(-13.5022 0 0.187645)
(-13.8259 0 -0.0506378)
(-13.531 0 -0.0173965)
(-13.6198 0 -0.207562)
(-13.3981 0 -0.225175)
(-13.242 0 -0.362774)
(-13.0999 0 -0.433015)
(-12.6864 0 -0.515474)
(-12.63 0 -0.637984)
(-11.9471 0 -0.666945)
(-11.984 0 -0.840263)
(-11.0163 0 -0.820619)
(-11.1569 0 -1.04248)
(-9.88159 0 -0.985251)
(-10.1382 0 -1.24976)
(-8.51894 0 -1.18741)
(-8.90691 0 -1.47502)
(-6.87321 0 -1.49462)
(-7.43552 0 -1.75783)
(-4.85169 0 -2.01817)
(-5.71463 0 -2.18974)
(-2.38976 0 -2.83094)
(-3.69902 0 -2.88415)
(-0.629607 0 -3.87653)
(-0.949977 0 2.14564)
(-0.586903 0 2.5517)
(-1.89774 0 2.24333)
(-1.37632 0 2.68846)
(-2.84936 0 2.2639)
(-2.32232 0 2.7156)
(-3.8051 0 2.24687)
(-3.24391 0 2.70206)
(-4.75892 0 2.20069)
(-4.1663 0 2.65397)
(-5.70366 0 2.13198)
(-5.08162 0 2.57917)
(-6.63206 0 2.04484)
(-5.98441 0 2.48275)
(-7.53687 0 1.94173)
(-6.86871 0 2.3679)
(-8.41057 0 1.82384)
(-7.72808 0 2.23634)
(-9.24505 0 1.69145)
(-8.55536 0 2.08856)
(-10.0312 0 1.54423)
(-9.34234 0 1.92418)
(-10.7589 0 1.38151)
(-10.0794 0 1.74229)
(-11.4163 0 1.20256)
(-10.7556 0 1.54173)
(-11.9905 0 1.00698)
(-11.3579 0 1.32149)
(-12.4674 0 0.794978)
(-11.8723 0 1.08113)
(-12.8319 0 0.567664)
(-12.2835 0 0.821122)
(-13.0692 0 0.327143)
(-12.576 0 0.543241)
(-13.1653 0 0.0765568)
(-12.7346 0 0.250348)
(-13.1094 0 -0.179756)
(-12.7437 0 -0.0530278)
(-12.8917 0 -0.437554)
(-12.5966 0 -0.360554)
(-12.5073 0 -0.693417)
(-12.2904 0 -0.666433)
(-11.9525 0 -0.945761)
(-11.8201 0 -0.966929)
(-11.2233 0 -1.19622)
(-11.1832 0 -1.2624)
(-10.3143 0 -1.44943)
(-10.376 0 -1.5563)
(-9.21706 0 -1.71633)
(-9.39135 0 -1.8553)
(-7.91686 0 -2.02646)
(-8.21717 0 -2.17563)
(-6.3904 0 -2.44621)
(-6.84519 0 -2.56094)
(-4.62661 0 -3.07014)
(-5.2949 0 -3.09579)
(-2.6737 0 -3.93994)
(-3.58092 0 -3.86366)
(-1.36884 0 -4.84222)
(-0.90154 0 3.05055)
(-0.545312 0 3.43471)
(-1.80044 0 3.12758)
(-1.27538 0 3.54809)
(-2.69431 0 3.12634)
(-2.15928 0 3.55023)
(-3.58427 0 3.08564)
(-3.00655 0 3.51341)
(-4.4678 0 3.01209)
(-3.85317 0 3.44043)
(-5.34126 0 2.91221)
(-4.69211 0 3.3383)
(-6.20011 0 2.79021)
(-5.52065 0 3.21155)
(-7.0391 0 2.64859)
(-6.33473 0 3.06304)
(-7.85212 0 2.48838)
(-7.12933 0 2.89405)
(-8.63194 0 2.30948)
(-7.89812 0 2.70451)
(-9.3699 0 2.11097)
(-8.63329 0 2.49331)
(-10.0557 0 1.8915)
(-9.32525 0 2.25872)
(-10.6774 0 1.64968)
(-9.96252 0 1.9988)
(-11.2213 0 1.38449)
(-10.5317 0 1.7119)
(-11.6722 0 1.09576)
(-11.0176 0 1.39718)
(-12.0142 0 0.784568)
(-11.4041 0 1.05517)
(-12.2315 0 0.45352)
(-11.6747 0 0.688409)
(-12.31 0 0.106971)
(-11.8131 0 0.301532)
(-12.2389 0 -0.248598)
(-11.8035 0 -0.098311)
(-12.0109 0 -0.605156)
(-11.6432 0 -0.502322)
(-11.6239 0 -0.956622)
(-11.3316 0 -0.901477)
(-11.0763 0 -1.30142)
(-10.866 0 -1.29157)
(-10.3664 0 -1.64187)
(-10.2459 0 -1.6734)
(-9.49067 0 -1.98379)
(-9.46894 0 -2.05127)
(-8.44454 0 -2.33947)
(-8.53077 0 -2.43264)
(-7.22314 0 -2.73834)
(-7.42697 0 -2.83379)
(-5.83005 0 -3.23921)
(-6.1638 0 -3.29388)
(-4.30033 0 -3.91529)
(-4.7814 0 -3.8816)
(-2.71973 0 -4.77639)
(-3.34006 0 -4.65644)
(-1.67694 0 -5.56049)
(-0.818583 0 3.89156)
(-0.483764 0 4.23646)
(-1.63686 0 3.94281)
(-1.1318 0 4.33061)
(-2.44953 0 3.91599)
(-1.92963 0 4.30903)
(-3.2571 0 3.85067)
(-2.68512 0 4.24964)
(-4.0586 0 3.75165)
(-3.44336 0 4.15388)
(-4.85251 0 3.62462)
(-4.19647 0 4.0283)
(-5.63613 0 3.47304)
(-4.9437 0 3.87652)
(-6.40561 0 3.29868)
(-5.68222 0 3.70059)
(-7.15569 0 3.10176)
(-6.40783 0 3.50085)
(-7.87951 0 2.88124)
(-7.11469 0 3.27623)
(-8.56839 0 2.63521)
(-7.79502 0 3.02458)
(-9.21166 0 2.36135)
(-8.43904 0 2.7431)
(-9.79667 0 2.05747)
(-9.03478 0 2.42891)
(-10.3089 0 1.72206)
(-9.56818 0 2.07961)
(-10.7323 0 1.35494)
(-10.0233 0 1.69394)
(-11.0499 0 0.957975)
(-10.3829 0 1.27255)
(-11.2454 0 0.535596)
(-10.6296 0 0.818986)
(-11.3046 0 0.0950344)
(-10.7461 0 0.340209)
(-11.2183 0 -0.354195)
(-10.716 0 -0.153339)
(-10.9817 0 -0.801812)
(-10.5434 0 -0.649439)
(-10.5957 0 -1.24051)
(-10.229 0 -1.13588)
(-10.0617 0 -1.66864)
(-9.77329 0 -1.60821)
(-9.37955 0 -2.08921)
(-9.17766 0 -2.06829)
(-8.54754 0 -2.50851)
(-8.44085 0 -2.52155)
(-7.56386 0 -2.93803)
(-7.56035 0 -2.97552)
(-6.43199 0 -3.40249)
(-6.53728 0 -3.44369)
(-5.17433 0 -3.94848)
(-5.38766 0 -3.95557)
(-3.8513 0 -4.63007)
(-4.16414 0 -4.56124)
(-2.56462 0 -5.43246)
(-2.95662 0 -5.30179)
(-1.67134 0 -6.0885)
(-0.712838 0 4.64078)
(-0.41101 0 4.93464)
(-1.42953 0 4.67094)
(-0.960208 0 5.01599)
(-2.14348 0 4.62194)
(-1.65382 0 4.97565)
(-2.85506 0 4.53562)
(-2.30376 0 4.89837)
(-3.56418 0 4.41582)
(-2.96274 0 4.78509)
(-4.27044 0 4.26742)
(-3.62099 0 4.64212)
(-4.97219 0 4.09282)
(-4.27924 0 4.47202)
(-5.66635 0 3.89275)
(-4.93532 0 4.27573)
(-6.34813 0 3.6663)
(-5.58552 0 4.05239)
(-7.01081 0 3.4113)
(-6.22422 0 3.79966)
(-7.64561 0 3.12472)
(-6.84369 0 3.51414)
(-8.24156 0 2.8032)
(-7.43402 0 3.19185)
(-8.78553 0 2.44368)
(-7.98298 0 2.82884)
(-9.26236 0 2.04404)
(-8.47608 0 2.42189)
(-9.6552 0 1.60387)
(-8.89678 0 1.96928)
(-9.94621 0 1.12549)
(-9.22691 0 1.4717)
(-10.1181 0 0.614992)
(-9.44765 0 0.933841)
(-10.157 0 0.082685)
(-9.54039 0 0.365607)
(-10.0552 0 -0.457917)
(-9.48848 0 -0.218211)
(-9.81136 0 -0.992656)
(-9.30455 0 -0.801092)
(-9.43017 0 -1.51256)
(-8.99036 0 -1.36736)
(-8.91602 0 -2.01678)
(-8.54999 0 -1.91306)
(-8.27035 0 -2.50969)
(-7.9866 0 -2.44207)
(-7.49205 0 -2.99806)
(-7.29938 0 -2.96147)
(-6.58111 0 -3.49108)
(-6.48658 0 -3.47826)
(-5.54662 0 -4.00583)
(-5.55272 0 -4.00113)
(-4.42225 0 -4.57389)
(-4.51941 0 -4.54713)
(-3.28131 0 -5.23204)
(-3.4452 0 -5.14734)
(-2.23067 0 -5.94648)
(-2.43449 0 -5.82876)
(-1.42752 0 -6.48076)
(-0.590671 0 5.2808)
(-0.331476 0 5.51316)
(-1.19103 0 5.29758)
(-0.76872 0 5.59012)
(-1.793 0 5.23263)
(-1.34446 0 5.53772)
(-2.39716 0 5.13134)
(-1.87767 0 5.44916)
(-3.00409 0 4.99719)
(-2.42766 0 5.32534)
(-3.61411 0 4.83432)
(-2.98208 0 5.17229)
(-4.22613 0 4.64392)
(-3.54309 0 4.99137)
(-4.83751 0 4.42544)
(-4.1088 0 4.78228)
(-5.44371 0 4.17664)
(-4.67582 0 4.54279)
(-6.03816 0 3.89401)
(-5.23871 0 4.2692)
(-6.61207 0 3.57322)
(-5.78989 0 3.95675)
(-7.1544 0 3.20974)
(-6.31954 0 3.60022)
(-7.65178 0 2.79948)
(-6.81549 0 3.19452)
(-8.08862 0 2.3396)
(-7.26316 0 2.73548)
(-8.44744 0 1.82945)
(-7.64572 0 2.22078)
(-8.70948 0 1.27197)
(-7.94409 0 1.65102)
(-8.85639 0 0.675653)
(-8.13743 0 1.03201)
(-8.87395 0 0.0551875)
(-8.20488 0 0.377062)
(-8.75688 0 -0.571045)
(-8.12974 0 -0.292786)
(-8.50759 0 -1.18505)
(-7.93628 0 -0.956131)
(-8.13541 0 -1.77672)
(-7.62591 0 -1.59337)
(-7.64771 0 -2.34691)
(-7.20671 0 -2.20222)
(-7.04685 0 -2.9022)
(-6.68314 0 -2.78991)
(-6.33144 0 -3.44981)
(-6.05397 0 -3.36585)
(-5.50212 0 -3.99579)
(-5.31723 0 -3.93594)
(-4.5709 0 -4.54784)
(-4.47893 0 -4.50292)
(-3.5772 0 -5.12162)
(-3.56359 0 -5.06994)
(-2.5984 0 -5.73855)
(-2.63075 0 -5.65015)
(-1.74068 0 -6.35141)
(-1.78603 0 -6.25895)
(-0.997896 0 -6.7747)
(-0.456605 0 5.79888)
(-0.24803 0 5.96038)
(-0.929629 0 5.81086)
(-0.562741 0 6.04248)
(-1.40909 0 5.73733)
(-1.01024 0 5.98541)
(-1.89605 0 5.62842)
(-1.41747 0 5.8931)
(-2.39167 0 5.48749)
(-1.84985 0 5.76651)
(-2.89681 0 5.31783)
(-2.29196 0 5.61132)
(-3.41075 0 5.11933)
(-2.74755 0 5.42749)
(-3.93112 0 4.89006)
(-3.21474 0 5.21342)
(-4.4536 0 4.62635)
(-3.69039 0 4.96547)
(-4.9718 0 4.32331)
(-4.16928 0 4.67851)
(-5.47716 0 3.97529)
(-4.6441 0 4.34649)
(-5.95888 0 3.57654)
(-5.10546 0 3.96296)
(-6.40372 0 3.12184)
(-5.54163 0 3.52157)
(-6.796 0 2.6075)
(-5.93844 0 3.01707)
(-7.11777 0 2.03242)
(-6.27919 0 2.4463)
(-7.34936 0 1.39995)
(-6.54404 0 1.8095)
(-7.47103 0 0.721168)
(-6.70935 0 1.1133)
(-7.4668 0 0.0162388)
(-6.75052 0 0.374302)
(-7.33532 0 -0.690107)
(-6.65166 0 -0.376535)
(-7.08286 0 -1.37527)
(-6.45183 0 -1.11315)
(-6.72426 0 -2.02858)
(-6.15011 0 -1.81113)
(-6.26951 0 -2.65409)
(-5.75845 0 -2.47185)
(-5.72094 0 -3.26161)
(-5.28177 0 -3.10748)
(-5.076 0 -3.85893)
(-4.71756 0 -3.73039)
(-4.33501 0 -4.44833)
(-4.06295 0 -4.34489)
(-3.51074 0 -5.02745)
(-3.3239 0 -4.94707)
(-2.64522 0 -5.59631)
(-2.52711 0 -5.52531)
(-1.81287 0 -6.16264)
(-1.72921 0 -6.07773)
(-1.1169 0 -6.67048)
(-1.02703 0 -6.60802)
(-0.420662 0 -6.99127)
(-0.313954 0 6.18555)
(-0.162869 0 6.26788)
(-0.651395 0 6.20162)
(-0.346336 0 6.36517)
(-0.999924 0 6.12727)
(-0.657994 0 6.31084)
(-1.36138 0 6.01871)
(-0.931602 0 6.22263)
(-1.73754 0 5.87908)
(-1.2391 0 6.10134)
(-2.1298 0 5.71073)
(-1.56141 0 5.95224)
(-2.53766 0 5.51209)
(-1.90421 0 5.77359)
(-2.9589 0 5.27983)
(-2.26536 0 5.56244)
(-3.38943 0 5.00888)
(-2.64188 0 5.31375)
(-3.82313 0 4.69298)
(-3.02875 0 5.02108)
(-4.25184 0 4.32523)
(-3.41902 0 4.67712)
(-4.66543 0 3.89862)
(-3.804 0 4.27439)
(-5.05126 0 3.40667)
(-4.17297 0 3.80524)
(-5.39395 0 2.84456)
(-4.51272 0 3.26307)
(-5.67544 0 2.21041)
(-4.80746 0 2.6436)
(-5.87547 0 1.50769)
(-5.03716 0 1.94639)
(-5.97271 0 0.750141)
(-5.17434 0 1.17828)
(-5.94845 0 -0.0348641)
(-5.18802 0 0.358473)
(-5.80458 0 -0.814625)
(-5.06573 0 -0.468179)
(-5.55269 0 -1.5614)
(-4.86591 0 -1.26981)
(-5.21344 0 -2.26481)
(-4.58033 0 -2.01714)
(-4.79826 0 -2.93416)
(-4.22377 0 -2.71801)
(-4.30834 0 -3.58371)
(-3.80065 0 -3.3911)
(-3.73923 0 -4.2218)
(-3.3065 0 -4.05207)
(-3.09069 0 -4.84618)
(-2.73756 0 -4.70281)
(-2.37488 0 -5.44419)
(-2.09852 0 -5.33279)
(-1.63452 0 -6.00207)
(-1.41955 0 -5.91483)