/*--------------------------------*- C++ -*----------------------------------*\
  =========                 |
  \\      /  F ield         | OpenFOAM: The Open Source CFD Toolbox
   \\    /   O peration     | Website:  https://openfoam.org
    \\  /    A nd           | Version:  dev
     \\/     M anipulation  |
\*---------------------------------------------------------------------------*/
FoamFile
{
    version     2.0;
    format      ascii;
    class       volScalarField;
    location    "5.4";
    object      p;
}
// * * * * * * * * * * * * * * * * * * * * * * * * * * * * * * * * * * * * * //

dimensions      [0 2 -2 0 0 0 0];

internalField   nonuniform List<scalar> 
2790
(
146.952
146.859
147.126
147.697
148.478
149.435
150.567
151.874
153.35
154.991
156.791
158.742
160.835
163.06
165.401
167.836
170.341
172.88
175.412
177.886
180.244
182.422
184.352
185.973
187.232
188.106
188.543
188.598
188.649
188.862
146.749
146.767
147.059
147.627
148.403
149.358
150.485
151.786
153.255
154.888
156.678
158.619
160.701
162.915
165.245
167.67
170.166
172.699
175.23
177.708
180.076
182.271
184.226
185.874
187.159
188.033
188.43
188.485
188.617
188.902
146.55
146.638
146.949
147.507
148.27
149.212
150.325
151.607
153.055
154.663
156.425
158.334
160.382
162.558
164.846
167.228
169.68
172.171
174.663
177.11
179.46
181.653
183.625
185.315
186.666
187.641
188.235
188.59
188.905
189.204
146.325
146.444
146.768
147.317
148.066
148.991
150.084
151.342
152.761
154.335
156.059
157.924
159.923
162.044
164.272
166.59
168.974
171.397
173.825
176.215
178.522
180.694
182.676
184.415
185.87
187.022
187.89
188.561
189.114
189.633
146.065
146.197
146.529
147.071
147.803
148.707
149.775
151.002
152.384
153.915
155.589
157.398
159.334
161.385
163.536
165.772
168.07
170.405
172.747
175.06
177.305
179.44
181.422
183.213
184.783
186.126
187.256
188.219
189.03
189.776
145.764
145.902
146.237
146.768
147.48
148.358
149.394
150.583
151.921
153.4
155.015
156.758
158.619
160.587
162.648
164.786
166.981
169.21
171.447
173.663
175.825
177.903
179.864
181.685
183.348
184.85
186.196
187.402
188.422
189.34
145.421
145.56
145.892
146.411
147.1
147.948
148.947
150.092
151.378
152.798
154.345
156.011
157.786
159.658
161.615
163.641
165.717
167.823
169.936
172.032
174.087
176.078
177.986
179.796
181.502
183.102
184.596
185.975
187.14
188.187
145.037
145.174
145.498
146
146.664
147.478
148.435
149.531
150.758
152.111
153.582
155.161
156.839
158.605
160.446
162.345
164.286
166.25
168.218
170.17
172.087
173.954
175.762
177.504
179.182
180.801
182.356
183.828
185.078
186.229
144.61
144.744
145.057
145.54
146.175
146.951
147.862
148.902
150.066
151.345
152.731
154.215
155.788
157.436
159.147
160.905
162.694
164.498
166.297
168.076
169.82
171.518
173.165
174.766
176.328
177.862
179.371
180.842
182.113
183.351
144.144
144.272
144.572
145.033
145.635
146.37
147.231
148.212
149.306
150.504
151.799
153.18
154.637
156.157
157.727
159.331
160.952
162.575
164.18
165.754
167.282
168.757
170.175
171.543
172.876
174.194
175.515
176.853
178.053
179.358
143.639
143.76
144.045
144.481
145.049
145.739
146.546
147.463
148.482
149.595
150.792
152.063
153.397
154.779
156.197
157.633
159.07
160.491
161.878
163.213
164.48
165.67
166.777
167.806
168.77
169.699
170.629
171.628
172.59
173.909
143.096
143.211
143.479
143.888
144.419
145.062
145.812
146.661
147.601
148.623
149.717
150.872
152.075
153.312
154.567
155.823
157.062
158.263
159.405
160.467
161.429
162.271
162.979
163.545
163.971
164.281
164.525
164.833
165.215
166.389
142.52
142.626
142.876
143.256
143.747
144.342
145.031
145.81
146.667
147.595
148.581
149.615
150.681
151.766
152.851
153.917
154.944
155.908
156.783
157.542
158.155
158.589
158.812
158.787
158.484
157.886
157.012
156.021
155.074
155.579
141.91
142.009
142.239
142.588
143.039
143.582
144.21
144.915
145.687
146.517
147.392
148.3
149.226
150.152
151.061
151.93
152.735
153.449
154.04
154.472
154.702
154.679
154.341
153.609
152.386
150.557
147.995
144.695
140.749
138.716
141.271
141.361
141.571
141.888
142.297
142.787
143.351
143.981
144.666
145.396
146.158
146.938
147.719
148.484
149.212
149.879
150.457
150.913
151.209
151.299
151.126
150.616
149.67
148.156
145.877
142.545
137.703
130.69
120.234
108.02
1.0419
1.02341
0.960509
0.874345
0.785451
0.703446
0.631038
0.568095
0.513569
0.466106
0.424301
0.386847
0.352616
0.320677
0.290284
0.260872
0.23206
0.203673
0.175762
0.148604
0.122655
0.0984561
0.076477
0.0571447
0.040834
0.027451
0.0168327
0.0088412
0.00333932
-0.000365085
0.998326
0.977394
0.918147
0.838824
0.757224
0.681584
0.614317
0.555429
0.504058
0.459017
0.419052
0.382991
0.349809
0.318643
0.288795
0.259727
0.231079
0.202691
0.174641
0.147254
0.121059
0.096692
0.0747861
0.05577
0.0396564
0.0264163
0.0159426
0.00812929
0.00299267
0.000869973
0.950134
0.925055
0.868099
0.795338
0.721727
0.653452
0.592344
0.538452
0.491062
0.449124
0.411539
0.377291
0.345477
0.315328
0.286207
0.257619
0.229223
0.200882
0.172714
0.145112
0.118699
0.0942051
0.0722961
0.053357
0.0374244
0.0243653
0.0139204
0.00619065
0.00167684
0.00101828
0.903843
0.874518
0.819187
0.752158
0.68607
0.624832
0.56968
0.520672
0.477234
0.438414
0.40325
0.370865
0.340473
0.311395
0.283062
0.255019
0.226952
0.198746
0.170554
0.142829
0.116269
0.0916831
0.0697891
0.0509801
0.0352858
0.0225035
0.012303
0.0047767
0.000384986
-0.000488313
0.872012
0.838508
0.784727
0.72193
0.661411
0.605152
0.554122
0.508437
0.467673
0.430972
0.397466
0.366362
0.336943
0.308591
0.280791
0.253118
0.22528
0.197178
0.168997
0.141237
0.114638
0.0900512
0.0682254
0.0495302
0.0339736
0.0213832
0.0112807
0.00391123
0.000174407
-0.000692213
0.865952
0.827219
0.774348
0.713014
0.654546
0.59981
0.549919
0.505124
0.465079
0.428847
0.39572
0.364912
0.335696
0.307474
0.279749
0.252114
0.224295
0.196215
0.168078
0.140403
0.113915
0.0894313
0.06771
0.0491084
0.0336308
0.021288
0.0116122
0.00411087
-0.000370712
-0.00101954
0.895923
0.849398
0.794129
0.729364
0.667418
0.609652
0.557275
0.510531
0.468908
0.43149
0.397437
0.365912
0.3361
0.307385
0.279277
0.251378
0.223441
0.195395
0.167433
0.140053
0.113894
0.0896608
0.0681267
0.0497159
0.0342159
0.0214197
0.0113548
0.00389597
-0.000665997
-0.00107944
0.967851
0.910094
0.843795
0.768367
0.696674
0.631191
0.572787
0.5213
0.47609
0.436097
0.400204
0.367398
0.336573
0.307026
0.278295
0.249996
0.22195
0.194119
0.166642
0.139925
0.114381
0.090399
0.0685939
0.0496872
0.0341241
0.0216241
0.0115803
0.00362778
-0.00137657
-0.00123925
1.08182
1.00155
0.914225
0.820262
0.733453
0.657332
0.591592
0.534325
0.484251
0.440573
0.40194
0.36712
0.335204
0.305135
0.276033
0.247463
0.219346
0.191845
0.165097
0.139086
0.113985
0.0902754
0.0685352
0.0495031
0.0338516
0.0214769
0.011507
0.00320283
-0.00212709
-0.00140326
1.21629
1.10189
0.986479
0.871979
0.76776
0.676982
0.600821
0.537957
0.485362
0.440133
0.400395
0.364798
0.332314
0.301864
0.272461
0.243628
0.215509
0.188536
0.162868
0.138144
0.11392
0.0902772
0.0680072
0.0484141
0.0326126
0.0205639
0.0109415
0.00257738
-0.00283005
-0.00153719
1.32693
1.18281
1.03693
0.89809
0.779266
0.680848
0.59985
0.533669
0.479375
0.433574
0.393632
0.35805
0.325867
0.29586
0.26669
0.237786
0.209727
0.183523
0.15944
0.136561
0.113569
0.0899601
0.0667266
0.0460531
0.0299398
0.0185204
0.00977269
0.0018386
-0.00336287
-0.00161078
1.41063
1.21742
1.04254
0.885862
0.75761
0.656542
0.57656
0.512786
0.46151
0.418562
0.380549
0.346249
0.315457
0.286958
0.258684
0.229746
0.201514
0.17622
0.154502
0.134478
0.113299
0.0895467
0.0645667
0.041962
0.0252528
0.0149467
0.00792595
0.00109871
-0.00364197
-0.00159815
1.40288
1.14175
0.94842
0.796466
0.680516
0.593673
0.52601
0.472025
0.429704
0.394262
0.360763
0.328831
0.300511
0.275019
0.248664
0.219568
0.190435
0.165925
0.147629
0.13206
0.113671
0.089523
0.0615504
0.0356316
0.0178216
0.00938588
0.00542183
0.000577292
-0.00357598
-0.00147829
1.13068
0.815125
0.68591
0.602525
0.531864
0.484819
0.446482
0.410662
0.383589
0.361455
0.335126
0.30554
0.280379
0.26023
0.237664
0.20803
0.176255
0.151779
0.138367
0.129822
0.115794
0.0908096
0.0578668
0.0264153
0.00661897
0.00121806
0.00240799
0.000701202
-0.00302968
-0.0012348
0.417256
0.0504709
0.15973
0.292684
0.306393
0.338324
0.351219
0.332858
0.321683
0.321724
0.307288
0.278122
0.255358
0.243739
0.227967
0.196377
0.157882
0.131289
0.125014
0.128032
0.121111
0.0946649
0.0537687
0.0133682
-0.00990549
-0.010505
-0.000787948
0.00227007
-0.00178411
-0.000859956
140.592
140.673
140.861
141.146
141.51
141.946
142.444
142.995
143.59
144.217
144.862
145.51
146.144
146.743
147.286
147.745
148.089
148.28
148.274
148.013
147.427
146.418
144.854
142.54
139.177
134.271
126.902
115.153
93.0013
33.2452
139.865
139.936
140.102
140.352
140.671
141.049
141.478
141.949
142.45
142.971
143.495
144.007
144.489
144.919
145.271
145.518
145.624
145.548
145.237
144.627
143.634
142.144
139.998
136.965
132.687
126.58
117.61
104.046
84.5215
56.0599
139.095
139.157
139.299
139.513
139.785
140.104
140.462
140.85
141.256
141.668
142.069
142.444
142.772
143.03
143.193
143.228
143.099
142.759
142.153
141.21
139.84
137.92
135.287
131.71
126.865
120.295
111.411
99.572
85.3285
68.6888
138.285
138.336
138.455
138.632
138.855
139.114
139.4
139.704
140.014
140.315
140.593
140.83
141.005
141.093
141.068
140.897
140.539
139.948
139.066
137.82
136.119
133.845
130.847
126.928
121.84
115.291
106.984
96.5851
84.0318
68.8841
137.435
137.476
137.57
137.71
137.883
138.082
138.295
138.515
138.728
138.92
139.075
139.175
139.199
139.122
138.915
138.546
137.973
137.149
136.017
134.507
132.532
129.987
126.741
122.64
117.501
111.126
103.314
93.8221
82.482
69.5008
136.548
136.579
136.648
136.75
136.874
137.011
137.153
137.288
137.404
137.488
137.523
137.489
137.367
137.13
136.751
136.196
135.425
134.392
133.042
131.311
129.122
126.383
122.99
118.823
113.751
107.64
100.368
91.8347
82.0305
71.3682
135.627
135.647
135.692
135.756
135.831
135.908
135.977
136.029
136.051
136.029
135.946
135.784
135.521
135.134
134.593
133.867
132.918
131.702
130.17
128.263
125.916
123.054
119.595
115.452
110.538
104.774
98.1047
90.5199
82.0624
73.0682
134.675
134.684
134.705
134.732
134.758
134.775
134.774
134.744
134.674
134.549
134.354
134.069
133.675
133.147
132.459
131.579
130.474
129.103
127.422
125.382
122.929
120.003
116.545
112.495
107.798
102.417
96.3357
89.5753
82.1854
74.4384
133.695
133.695
133.691
133.681
133.659
133.618
133.548
133.44
133.282
133.059
132.757
132.357
131.84
131.184
130.363
129.348
128.109
126.611
124.816
122.682
120.167
117.228
113.82
109.907
105.458
100.461
94.9195
88.869
82.3628
75.6285
132.692
132.681
132.655
132.609
132.541
132.443
132.307
132.124
131.881
131.566
131.164
130.658
130.029
129.257
128.318
127.188
125.838
124.24
122.36
120.168
117.629
114.713
111.392
107.643
103.454
98.8249
93.7748
88.3425
82.5811
76.6755
131.67
131.65
131.6
131.52
131.407
131.256
131.057
130.802
130.48
130.079
129.584
128.981
128.251
127.377
126.337
125.11
123.671
121.997
120.061
117.839
115.307
112.444
109.232
105.661
101.73
97.4487
92.8403
87.9442
82.8085
77.5816
130.634
130.605
130.534
130.421
130.265
130.062
129.804
129.483
129.087
128.606
128.027
127.336
126.518
125.555
124.43
123.123
121.616
119.888
117.92
115.693
113.19
110.399
107.311
103.924
100.242
96.2814
92.0663
87.6334
83.0246
78.3591
129.59
129.551
129.46
129.316
129.121
128.87
128.556
128.173
127.709
127.156
126.501
125.733
124.837
123.799
122.603
121.234
119.677
117.915
115.934
113.721
111.265
108.561
105.603
102.397
98.9514
95.2827
91.4157
87.3829
83.22
79.0234
128.543
128.496
128.385
128.212
127.98
127.684
127.32
126.879
126.354
125.736
125.015
124.178
123.216
122.115
120.864
119.448
117.856
116.076
114.099
111.915
109.519
106.907
104.083
101.052
97.8254
94.4207
90.8608
87.1738
83.3903
79.5879
127.499
127.444
127.315
127.116
126.849
126.512
126.102
125.61
125.03
124.354
123.574
122.68
121.662
120.511
119.216
117.766
116.154
114.371
112.409
110.265
107.936
105.422
102.728
99.863
96.8381
93.6705
90.3807
86.9932
83.5335
80.0648
126.464
126.403
126.258
126.033
125.735
125.362
124.909
124.371
123.743
123.017
122.186
121.244
120.181
118.99
117.662
116.191
114.57
112.794
110.858
108.761
106.503
104.087
101.52
98.8091
95.9682
93.0124
89.9601
86.8321
83.6499
80.4652
125.446
125.378
125.218
124.972
124.645
124.239
123.748
123.17
122.5
121.731
120.858
119.875
118.776
117.555
116.206
114.723
113.102
111.342
109.438
107.393
105.208
102.888
100.44
97.8727
95.1983
92.4311
89.5872
86.6845
83.7409
80.7988
124.451
124.378
124.204
123.938
123.586
123.15
122.627
122.014
121.307
120.502
119.594
118.579
117.452
116.21
114.847
113.36
111.748
110.009
108.143
106.152
104.04
101.812
99.4752
97.0391
94.5146
91.9148
89.2537
86.5465
83.8084
81.0745
123.487
123.408
123.223
122.939
122.565
122.103
121.552
120.909
120.171
119.336
118.4
117.36
116.213
114.955
113.586
112.103
110.504
108.791
106.966
105.03
102.988
100.847
98.6133
96.2962
93.9061
91.4543
88.9532
86.4159
83.8552
81.3001
122.561
122.477
122.282
121.982
121.589
121.105
120.529
119.861
119.097
118.238
117.279
116.221
115.059
113.794
112.424
110.948
109.368
107.684
105.9
104.018
102.044
99.9832
97.8441
95.6345
93.364
91.0427
88.6815
86.2916
83.8841
81.4828
121.68
121.592
121.388
121.075
120.665
120.162
119.566
118.876
118.092
117.213
116.238
115.165
113.995
112.727
111.36
109.896
108.337
106.683
104.939
103.11
101.199
99.2129
97.1595
95.0462
92.8816
90.6749
88.4357
86.1735
83.8979
81.629
120.852
120.761
120.549
120.224
119.8
119.281
118.668
117.962
117.161
116.267
115.279
114.197
113.022
111.755
110.395
108.945
107.408
105.785
104.081
102.3
100.447
98.5296
96.5532
94.5253
92.4541
90.3475
88.214
86.0621
83.9001
81.7446
120.085
119.991
119.772
119.438
119.002
118.47
117.843
117.122
116.309
115.403
114.407
113.32
112.143
110.879
109.529
108.094
106.579
104.986
103.319
101.584
99.7848
97.9279
96.0198
94.0672
92.0774
90.0576
88.0153
85.9581
83.8932
81.8345
119.388
119.292
119.066
118.723
118.277
117.734
117.096
116.365
115.542
114.628
113.626
112.536
111.361
110.102
108.762
107.344
105.85
104.285
102.653
100.959
99.2075
97.4047
95.5565
93.6693
91.7498
89.8046
87.8404
85.8638
83.8814
81.9049
118.769
118.67
118.439
118.089
117.634
117.082
116.435
115.695
114.864
113.945
112.939
111.849
110.676
109.424
108.095
106.692
105.219
103.68
102.079
100.422
98.712
96.956
95.1595
93.3283
91.4686
89.5864
87.688
85.7792
83.8658
81.9577
118.237
118.136
117.899
117.541
117.079
116.52
115.866
115.12
114.284
113.361
112.354
111.264
110.096
108.85
107.532
106.144
104.689
103.173
101.6
99.9733
98.2994
96.5832
94.8302
93.046
91.2362
89.4065
87.5625
85.7098
83.8535
82.0022
117.802
117.697
117.453
117.088
116.619
116.054
115.394
114.643
113.804
112.879
111.871
110.783
109.618
108.38
107.071
105.695
104.257
102.76
101.21
99.6095
97.965
96.2813
94.5636
92.8171
91.0474
89.2596
87.4589
85.6505
83.8392
82.0319
117.477
117.365
117.113
116.74
116.267
115.697
115.033
114.279
113.437
112.51
111.503
110.417
109.256
108.023
106.722
105.357
103.932
102.451
100.919
99.3394
97.7181
96.0599
94.3698
92.6528
90.9142
89.1589
87.3919
85.618
83.8419
82.0697
117.275
117.14
116.87
116.492
116.016
115.443
114.777
114.021
113.178
112.252
111.245
110.161
109.003
107.775
106.481
105.123
103.708
102.238
100.718
99.1527
97.5472
95.9061
94.2344
92.537
90.8189
89.0849
87.3398
85.5881
83.8342
82.0832
117.256
117.057
116.759
116.375
115.896
115.32
114.652
113.893
113.049
112.123
111.117
110.035
108.88
107.655
106.365
105.014
103.605
102.142
100.631
99.0754
97.4803
95.8503
94.1904
92.5054
90.8002
89.0794
87.3477
85.6096
83.8694
82.1313
-50.5553
-30.3182
-11.11
35.6996
28.2819
16.3028
51.1926
39.1153
27.9195
52.6131
42.1947
34.1575
56.9506
48.6662
41.913
61.3367
54.4307
48.5421
64.6083
58.729
53.682
67.2028
62.1795
57.8718
69.3899
65.0587
61.3509
71.2359
67.458
64.2317
72.788
69.4583
66.622
74.0956
71.1336
68.6156
75.1992
72.5418
70.286
76.1312
73.7283
71.6907
76.918
74.7298
72.8754
77.5815
75.5757
73.8764
78.1399
76.29
74.7227
78.6084
76.8925
75.4381
79.0001
77.3996
76.0419
79.3259
77.8249
76.5505
79.5954
78.1803
76.9773
79.8171
78.476
77.3342
79.9979
78.7201
77.6306
80.1457
78.9218
77.8765
80.263
79.0844
78.0762
80.3616
79.2204
78.2423
80.4329
79.3215
78.3681
80.5053
79.4167
78.4805
80.5391
79.4669
78.5447
80.6082
79.55
78.6343
-2.67572
-2.55785
-1.0849
0.0556755
0.0839249
0.171784
0.236263
0.216647
0.228793
0.28514
0.292815
0.24998
0.219682
0.220352
0.219535
0.185178
0.133681
0.101553
0.106647
0.12931
0.133991
0.104374
0.050327
-0.00472735
-0.0342878
-0.0275205
-0.00356595
0.00689612
0.000654805
-0.000355099
2.54402
-0.42222
1.14445
0.631443
-0.685445
-0.468338
0.140538
0.191441
0.202166
0.303712
0.2907
0.191781
0.145345
0.188433
0.234095
0.193265
0.110934
0.0598104
0.0775362
0.131886
0.156249
0.12067
0.0457479
-0.0322455
-0.0723111
-0.0537801
-0.00505486
0.0177582
0.00539163
0.000234732
13.6664
5.28721
2.50885
0.0802801
-0.275326
1.0314
1.224
0.0105571
-0.386558
-0.0462205
0.307848
0.202783
0.125101
0.216003
0.286419
0.199637
0.0495741
-0.0404919
0.00745648
0.13639
0.208328
0.158773
0.0496532
-0.0646286
-0.124233
-0.0908274
-0.00176213
0.0417394
0.0153082
0.000769873
23.4121
13.5401
7.68096
3.90897
2.15184
1.55685
0.408514
-0.272281
0.0248963
1.19922
1.15875
0.0841182
-0.316417
-0.156083
0.238108
0.278081
0.0369065
-0.11389
-0.00948289
0.214257
0.303929
0.205078
0.0391882
-0.130713
-0.223137
-0.165907
0.00195743
0.0849583
0.0354099
0.000732234
32.5732
22.8117
15.4967
10.2046
6.56536
4.09027
2.23636
1.22343
0.931225
0.96571
0.48049
-0.0952888
-0.22346
0.506578
1.04366
0.538057
-0.101141
-0.477501
-0.430634
0.101456
0.411137
0.291689
0.0535899
-0.181022
-0.310526
-0.199438
0.0389899
0.170764
0.0758845
-0.000692964
40.5444
31.6194
23.7344
17.3044
12.3799
8.73607
6.06575
4.18558
2.91795
2.02985
1.26981
0.672244
0.399224
0.575475
0.574561
0.319943
-0.181892
-0.51548
-0.190873
0.687881
0.845728
0.354871
0.00304261
-0.314046
-0.544923
-0.506483
-0.0132898
0.287717
0.140621
-0.0061163
47.0489
39.2435
31.4686
24.5796
18.9563
14.499
10.9798
8.23081
6.13942
4.57091
3.35041
2.37911
1.70459
1.33347
1.0361
0.679218
0.190876
-0.121598
0.035106
0.434885
0.572943
0.36474
0.0344025
-0.329257
-0.58434
-0.387173
0.328306
0.565057
0.220531
-0.0191954
52.3465
45.6147
38.3572
31.5282
25.6471
20.7043
16.5675
13.1486
10.3808
8.16708
6.37595
4.92003
3.79326
2.97218
2.3293
1.72095
1.12533
0.71468
0.62439
0.73056
0.751282
0.526746
0.156392
-0.209303
-0.418595
-0.266934
0.16481
0.389578
0.308819
-0.0616856
56.6677
50.8503
44.2657
37.7927
31.9761
26.8665
22.3996
18.5402
15.2583
12.4977
10.1808
8.24633
6.66322
5.39225
4.34563
3.43066
2.63256
2.0257
1.66871
1.48868
1.29538
0.960757
0.542589
0.166845
-0.0468213
0.00355821
0.245985
0.38664
0.265349
-0.299849
60.1941
55.1257
49.2226
43.2379
37.6849
32.6413
28.0784
23.9917
20.3823
17.2311
14.5
12.1493
10.146
8.45277
7.01288
5.77013
4.70387
3.83561
3.18201
2.69118
2.24536
1.76044
1.25841
0.819194
0.524505
0.425586
0.463238
0.436773
0.178552
-0.515757
63.09
58.6299
53.3492
47.8808
42.685
37.8448
33.3476
29.2047
25.4369
22.0493
19.0292
16.3559
14.0066
11.9547
10.1648
8.60093
7.24127
6.0838
5.12456
4.32583
3.61674
2.9411
2.29918
1.73456
1.29699
1.00854
0.818077
0.587203
0.178079
-0.592379
65.4885
61.5242
56.7856
51.8064
46.9918
42.4205
38.0855
34.0038
30.2049
26.7073
23.5143
20.6199
18.0133
15.6793
13.5971
11.7437
10.1011
8.65922
7.40656
6.31541
5.3414
4.44586
3.61994
2.88313
2.26072
1.75723
1.32995
0.88342
0.31555
-0.522276
67.489
63.9331
59.6575
55.1182
50.6717
46.3887
42.263
38.3115
34.5659
31.0508
27.7784
24.7528
21.9726
19.432
17.1203
15.0244
13.1314
11.4309
9.91034
8.54931
7.31888
6.19216
5.1575
4.21969
3.38741
2.6555
1.9895
1.32354
0.586926
-0.331049
69.167
65.9508
62.0687
57.9158
53.8077
49.8067
45.9052
42.1179
38.4751
35.0031
31.7187
28.6316
25.7469
23.0653
20.5838
18.2962
16.1947
14.2713
12.5156
10.9129
9.4439
8.08957
6.8382
5.68666
4.63384
3.67002
2.76795
1.88233
0.966595
-0.054938
70.5801
67.6491
64.1021
60.2852
56.4805
52.7426
49.0623
45.4509
41.9358
38.5429
35.2905
32.1913
29.2541
26.4842
23.8835
21.4509
19.1829
17.0746
15.1187
13.3051
11.6208
10.0521
8.58857
7.22343
5.95069
4.75912
3.62725
2.52386
1.41895
0.26589
71.7735
69.0834
65.8225
62.297
58.7611
55.2628
51.7913
48.3545
44.9767
41.6817
38.4879
35.4092
32.4565
29.6376
26.9578
24.4192
22.0221
19.7641
17.6413
15.647
13.7725
12.0081
10.3449
8.77501
7.29065
5.88056
4.52768
3.20994
1.90743
0.595707
72.7829
70.2974
67.2815
64.0086
60.7091
57.426
54.147
50.8768
47.6363
44.4471
41.3267
38.289
35.3456
32.506
29.7772
27.1639
24.6685
22.2915
20.0311
17.8837
15.8437
13.9041
12.0577
10.2969
8.61365
6.99725
5.43382
3.90676
2.40143
0.908715
73.637
71.3256
68.5201
65.4662
62.3742
59.2827
56.1784
53.0632
49.9549
46.8727
43.8325
40.8478
37.93
35.0894
32.3339
29.6698
27.1012
24.6304
22.2576
19.9814
17.7985
15.7041
13.6924
11.7567
9.88926
8.08029
6.31788
4.58838
2.87911
1.19035
74.3591
72.1963
69.5717
66.7076
63.7971
60.8752
57.9278
54.9547
51.9705
48.9921
46.034
43.1084
40.2265
37.3983
34.6324
31.9357
29.3136
26.7696
24.3056
21.9216
19.6161
17.386
15.2268
13.1326
11.0964
9.10927
7.16029
5.23717
3.32725
1.43552
74.9686
72.9326
70.4636
67.7639
65.0117
62.2391
59.4315
56.5869
53.7172
50.8372
47.9595
45.0953
42.2549
39.448
36.6832
33.9678
31.3077
28.7074
26.1697
23.696
21.2859
18.9376
16.6477
14.4113
12.2218
10.071
7.94859
5.84256
3.73937
1.64556
75.4816
73.5537
71.2184
68.6607
66.0461
63.4043
60.7204
57.9908
55.2252
52.4363
49.6352
46.8319
44.0356
41.2555
38.4999
35.7759
33.0899
30.4468
27.8501
25.3021
22.8032
20.3527
17.948
15.5848
13.2573
10.9574
8.67533
6.39881
4.11317
1.82465
75.9119
74.076
71.8552
69.4199
66.9243
64.3963
61.8209
59.1932
56.521
53.8152
51.0854
48.3404
45.5884
42.8379
40.0965
37.3714
34.6688
31.9938
29.3503
26.7412
24.1676
21.6293
19.1244
16.6493
14.1985
11.7643
9.33678
6.90357
4.44894
1.97778
76.2706
74.5126
72.3895
70.0589
67.6657
65.236
62.7549
60.2164
57.6269
54.9955
52.3308
49.64
46.9308
44.2106
41.4865
38.7653
36.0529
33.3546
30.6745
28.0156
25.3796
22.7665
20.1751
17.6022
15.0424
12.4884
9.93026
7.35525
4.74695
2.10842
76.5686
74.8761
72.8357
70.594
68.2879
65.9422
63.5421
61.0809
58.5635
55.9977
53.3909
50.7496
48.0802
45.3894
42.6838
39.9696
37.2526
34.5377
31.8292
29.1301
26.4424
23.7664
21.1012
18.4437
15.789
13.1298
10.4561
7.75491
5.0094
2.22035
76.8122
75.174
73.2026
71.0355
68.8025
66.5276
64.196
61.8005
59.3447
56.8356
54.2793
51.6816
49.0481
46.3846
43.6973
40.9917
38.2734
35.547
32.8167
30.0856
27.3556
24.6275
21.9001
19.1708
16.4348
13.6848
10.9108
8.09964
5.23427
2.31318
77.0132
75.4191
73.5044
71.3985
69.2258
67.0091
64.7343
62.3933
59.989
57.5275
55.0142
52.4538
49.8514
47.2123
44.5419
41.8454
39.1278
36.3938
33.6471
30.8909
28.1271
25.3564
22.5779
19.789
16.9849
14.1584
11.2995
8.39482
5.42719
2.39206
77.1682
75.609
73.7391
71.6819
69.5569
67.3867
65.157
62.8598
60.497
58.0739
55.5953
53.0655
50.4889
47.8702
45.2143
42.5262
39.8104
37.0713
34.3125
31.5371
28.7468
25.9426
23.1234
20.2866
17.4276
14.539
11.6108
8.6296
5.57828
2.44998
77.2996
75.7661
73.9302
71.9099
69.8211
67.6859
65.4906
63.2265
60.8953
58.5016
56.0497
53.5435
50.9868
48.3841
45.7398
43.0586
40.3447
37.6022
34.8347
32.0451
29.2351
26.4054
23.5553
20.6819
17.7807
14.8441
11.8621
8.82114
5.70382
2.49952
77.3804
75.8631
74.0495
72.0542
69.9898
67.8782
65.7057
63.4639
61.1538
58.7798
56.3459
53.8556
51.3125
48.7207
46.0844
43.408
40.6956
37.9511
35.178
32.379
29.5559
26.7093
23.8384
20.9403
18.0104
15.0412
12.0222
8.93965
5.77615
2.51941
77.4693
75.953
74.1517
72.1715
70.1207
68.0217
65.8614
63.6313
61.3322
58.9683
56.5434
54.0609
51.5243
48.9374
46.3044
43.6295
40.9169
38.1703
35.393
32.5879
29.7567
26.9
24.0169
21.1048
18.1587
15.171
12.1311
9.0243
5.83052
2.52591
)
;

boundaryField
{
    inlet
    {
        type            zeroGradient;
    }
    outlet
    {
        type            fixedValue;
        value           uniform 0;
    }
    flap
    {
        type            zeroGradient;
    }
    upperWall
    {
        type            zeroGradient;
    }
    lowerWall
    {
        type            zeroGradient;
    }
    frontAndBack
    {
        type            empty;
    }
}


// ************************************************************************* //
