/*--------------------------------*- C++ -*----------------------------------*\
  =========                 |
  \\      /  F ield         | OpenFOAM: The Open Source CFD Toolbox
   \\    /   O peration     | Website:  https://openfoam.org
    \\  /    A nd           | Version:  dev
     \\/     M anipulation  |
\*---------------------------------------------------------------------------*/
FoamFile
{
    version     2.0;
    format      ascii;
    class       surfaceScalarField;
    location    "5.4";
    object      phi;
}
// * * * * * * * * * * * * * * * * * * * * * * * * * * * * * * * * * * * * * //

dimensions      [0 3 -1 0 0 0 0];

internalField   nonuniform List<scalar> 
5457
(
0.198418
0.00158236
0.19648
0.00193734
0.194192
0.00228804
0.191509
0.00268352
0.188428
0.00308112
0.184951
0.00347668
0.181072
0.00387847
0.176779
0.0042939
0.17205
0.0047281
0.166865
0.0051851
0.161197
0.00566837
0.155016
0.00618089
0.148291
0.00672483
0.14099
0.0073012
0.133081
0.00790936
0.124534
0.00854631
0.115329
0.00920576
0.105452
0.00987706
0.0949076
0.010544
0.0837242
0.0111834
0.0719596
0.0117646
0.0597113
0.0122483
0.0471226
0.0125887
0.0343823
0.0127403
0.0216872
0.0126951
0.00903693
0.0126503
-0.00291664
0.0119536
-0.00847236
0.00555572
-0.00804311
-0.000429249
-0.00804311
0.199928
0.00165419
0.199176
0.00268975
0.197965
0.00349893
0.196332
0.00431664
0.194272
0.0051411
0.191782
0.00596667
0.188855
0.00680536
0.185478
0.00767067
0.181633
0.0085729
0.177298
0.00952038
0.172446
0.0105204
0.167048
0.0115791
0.161071
0.0127014
0.154482
0.01389
0.147247
0.0151443
0.139334
0.0164593
0.130717
0.0178236
0.121377
0.0192171
0.111312
0.0206087
0.100542
0.0219532
0.0891177
0.023189
0.0771301
0.0242359
0.0647241
0.0249947
0.0521165
0.0253478
0.0396561
0.0251556
0.0281059
0.0242005
0.0185952
0.0214642
0.00879726
0.0153536
0.00118352
0.00718449
-0.00685959
0.199781
0.00187361
0.199087
0.00338356
0.197946
0.00463982
0.196409
0.0058532
0.194483
0.00706717
0.192164
0.00828564
0.189447
0.00952271
0.186322
0.0107961
0.182774
0.0121207
0.178785
0.0135092
0.174333
0.0149724
0.169392
0.01652
0.163934
0.0181599
0.157927
0.0198971
0.151338
0.0217324
0.144137
0.0236609
0.136291
0.0256689
0.127778
0.0277309
0.118581
0.0298055
0.108703
0.0318311
0.0981711
0.0337208
0.0870488
0.0353582
0.075452
0.0365915
0.0635748
0.037225
0.0517329
0.0369975
0.0403975
0.0355358
0.0297391
0.0321226
0.0191661
0.0259267
0.00959767
0.0167529
0.00273809
0.199703
0.00217053
0.199008
0.00407884
0.197887
0.0057603
0.196376
0.00736406
0.194488
0.00895522
0.192222
0.0105516
0.189575
0.0121703
0.186539
0.0138319
0.183105
0.0155551
0.179258
0.0173555
0.174983
0.0192473
0.170261
0.0212426
0.165069
0.0233515
0.159385
0.0255811
0.153184
0.027934
0.146438
0.030406
0.139124
0.0329832
0.131217
0.0356381
0.122698
0.0383246
0.113557
0.0409719
0.1038
0.0434777
0.0934575
0.0457008
0.0825962
0.0474528
0.0713334
0.0484879
0.0598413
0.0484896
0.0483172
0.04706
0.0368111
0.0436286
0.0251879
0.0375498
0.0133356
0.0286053
0.0160737
0.199667
0.00250311
0.198964
0.00478208
0.197863
0.00686158
0.196381
0.00884569
0.194533
0.0108039
0.192318
0.0127661
0.189734
0.014754
0.186776
0.0167904
0.183434
0.0188967
0.179699
0.0210912
0.175556
0.0233901
0.170991
0.0258075
0.165987
0.0283552
0.160527
0.0310413
0.154591
0.0338695
0.148161
0.0368364
0.141215
0.0399289
0.133734
0.0431196
0.125697
0.0463614
0.117088
0.0495813
0.107894
0.0526712
0.0981152
0.0554799
0.0877652
0.0578028
0.0768791
0.059374
0.065509
0.0598597
0.0537081
0.0588608
0.041454
0.0558828
0.0285877
0.0504161
0.0148523
0.0423407
0.030926
0.199653
0.0028503
0.198949
0.00548611
0.197871
0.00793949
0.196427
0.0102898
0.194627
0.0126039
0.192473
0.0149196
0.189964
0.0172636
0.187093
0.0196612
0.183854
0.0221359
0.180237
0.0247083
0.17623
0.0273965
0.171822
0.0302161
0.166997
0.0331798
0.161741
0.0362971
0.156038
0.0395723
0.149872
0.043003
0.143224
0.0465771
0.136074
0.0502689
0.128402
0.0540337
0.120183
0.0578009
0.111388
0.0614656
0.101989
0.0648787
0.091955
0.0678371
0.0812541
0.0700749
0.0698542
0.0712596
0.0577167
0.0709983
0.0447605
0.068839
0.0308489
0.0643276
0.015873
0.0573166
0.046799
0.19965
0.00320023
0.198954
0.00618207
0.197905
0.00898908
0.196505
0.0116895
0.194763
0.0143461
0.192681
0.0170015
0.190257
0.0196871
0.187488
0.0224307
0.184366
0.0252578
0.180883
0.0281911
0.177029
0.0312504
0.172793
0.0344526
0.168161
0.0378118
0.163119
0.0413386
0.157653
0.0450384
0.151745
0.0489104
0.145378
0.0529446
0.138528
0.0571184
0.13117
0.0613919
0.123269
0.0657018
0.114783
0.0699524
0.105655
0.0740067
0.0958167
0.077675
0.0851861
0.0807056
0.073668
0.0827777
0.0611611
0.0835051
0.0475548
0.0824453
0.0327583
0.0791242
0.0167827
0.0732922
0.0635817
0.199655
0.00354557
0.198975
0.00686217
0.197959
0.0100048
0.19661
0.0130382
0.194934
0.016022
0.192934
0.019002
0.190608
0.0220132
0.187953
0.0250859
0.184963
0.0282477
0.181631
0.0315231
0.177947
0.0349337
0.173902
0.0384978
0.169483
0.0422313
0.164675
0.0461459
0.159465
0.0502492
0.153832
0.0545427
0.147757
0.0590197
0.141212
0.063663
0.134164
0.0684402
0.126567
0.0732986
0.118362
0.0781576
0.109469
0.0828996
0.0997863
0.0873579
0.089187
0.091305
0.0775246
0.09444
0.0646468
0.096383
0.0504168
0.0966752
0.0347676
0.0947734
0.0177895
0.0902703
0.0813712
0.199664
0.00388138
0.199006
0.00751995
0.19803
0.010981
0.196739
0.0143296
0.195137
0.017624
0.193227
0.0209118
0.191009
0.0242309
0.188481
0.0276144
0.185637
0.0310916
0.182471
0.0346887
0.178976
0.038429
0.175141
0.0423327
0.170955
0.046417
0.166405
0.0506962
0.161474
0.0551802
0.156143
0.0598739
0.150387
0.064776
0.144174
0.0698759
0.137462
0.0751517
0.130196
0.0805651
0.122298
0.0860554
0.113667
0.0915309
0.104168
0.0968566
0.0936333
0.10184
0.0818639
0.106209
0.0686485
0.109598
0.0538011
0.111523
0.0372358
0.111339
0.019083
0.108423
0.100454
0.199677
0.00420415
0.199047
0.00815017
0.198116
0.0119123
0.196887
0.0155578
0.195367
0.0191449
0.193556
0.0227223
0.191456
0.0263307
0.189066
0.0300051
0.18638
0.0337767
0.183396
0.0376735
0.180105
0.0417201
0.176499
0.0459387
0.172567
0.0503486
0.168297
0.0549662
0.163672
0.0598049
0.158672
0.0648741
0.15327
0.0701785
0.147429
0.0757167
0.141101
0.0814794
0.13422
0.0874458
0.126696
0.0935798
0.118405
0.099822
0.109183
0.106078
0.0988187
0.112204
0.0870515
0.117977
0.0735886
0.123061
0.0581472
0.126964
0.0405508
0.128935
0.0209007
0.128073
0.121355
0.199693
0.00451121
0.199095
0.00874854
0.198213
0.0127939
0.197053
0.0167174
0.19562
0.0205782
0.193916
0.0244261
0.191943
0.0283037
0.189701
0.0322479
0.187186
0.0362917
0.184395
0.0404643
0.181323
0.0447922
0.177962
0.0492991
0.174304
0.0540064
0.170337
0.0589334
0.166045
0.0640968
0.161408
0.0695113
0.156398
0.0751887
0.150977
0.0811377
0.145093
0.0873633
0.138674
0.0938651
0.131619
0.100635
0.123789
0.107651
0.114995
0.114872
0.104982
0.122217
0.0934176
0.129541
0.0798964
0.136582
0.0639662
0.142894
0.0452332
0.147668
0.0236107
0.149696
0.144966
0.199711
0.00480052
0.199148
0.00931153
0.19832
0.0136215
0.197234
0.0178037
0.195894
0.0219183
0.194303
0.0260164
0.192465
0.0301421
0.190379
0.034334
0.188044
0.0386263
0.185459
0.0430498
0.182619
0.0476321
0.179519
0.0523987
0.176153
0.057373
0.172509
0.0625768
0.168576
0.0680307
0.164332
0.0737544
0.159754
0.0797671
0.154804
0.0860881
0.14943
0.0927371
0.14356
0.099735
0.137091
0.107104
0.129878
0.114865
0.121715
0.123035
0.112313
0.131619
0.101271
0.140583
0.0880432
0.149811
0.0719206
0.159017
0.0520839
0.167505
0.027884
0.173896
0.17285
0.19973
0.00507044
0.199205
0.00983629
0.198435
0.0143914
0.197427
0.0188123
0.196185
0.0231603
0.194714
0.0274875
0.193016
0.0318394
0.191094
0.0362558
0.188949
0.0407721
0.186578
0.04542
0.183982
0.0502286
0.181156
0.0552244
0.178096
0.0604328
0.174795
0.0658779
0.171242
0.0715836
0.167422
0.0775744
0.163313
0.0838763
0.158883
0.0905182
0.154086
0.0975339
0.148857
0.104964
0.143101
0.11286
0.136679
0.121286
0.129392
0.130323
0.12094
0.14007
0.110881
0.150642
0.0985404
0.162151
0.0828978
0.174659
0.062432
0.18797
0.035122
0.201206
0.207972
0.199751
0.00531973
0.199266
0.0103205
0.198557
0.0151008
0.19763
0.0197398
0.19649
0.0243001
0.195143
0.0288348
0.193592
0.0333902
0.19184
0.0380072
0.18989
0.042722
0.187743
0.0475672
0.185399
0.0525725
0.182858
0.0577657
0.180118
0.0631732
0.177174
0.0688212
0.174022
0.0747362
0.17065
0.0809464
0.167043
0.0874833
0.163177
0.0943837
0.159019
0.101692
0.154516
0.109467
0.149594
0.117782
0.144142
0.126738
0.137991
0.136473
0.130884
0.147178
0.122404
0.159122
0.111857
0.172698
0.0980125
0.188504
0.078531
0.207452
0.0486583
0.231078
0.25663
0.199772
0.00554742
0.19933
0.0107624
0.198684
0.0157473
0.19784
0.0205833
0.196806
0.0253345
0.195586
0.0300544
0.194186
0.0347903
0.19261
0.0395834
0.190862
0.0444707
0.188944
0.0494852
0.186859
0.0546569
0.18461
0.0600143
0.182199
0.0655847
0.179625
0.0713951
0.176888
0.0774738
0.173983
0.0838514
0.170903
0.0905627
0.167637
0.0976496
0.164166
0.105164
0.160459
0.113173
0.156474
0.121767
0.152145
0.131068
0.147371
0.141248
0.141993
0.152556
0.135748
0.165367
0.128166
0.180281
0.118305
0.198365
0.103913
0.221844
0.0776782
0.257313
0.334308
0.00364551
-0.00364551
0.00711323
-0.00346772
0.00995668
-0.00284345
0.0121745
-0.00221786
0.0138679
-0.00169338
0.0151446
-0.00127673
0.0160981
-0.000953501
0.0168061
-0.000708
0.0173319
-0.000525796
0.0177258
-0.000393885
0.0180272
-0.000301405
0.018267
-0.000239795
0.0184693
-0.000202267
0.0186524
-0.000183102
0.0188294
-0.000176999
0.0190079
-0.000178497
0.0191895
-0.000181662
0.0193698
-0.000180269
0.0195384
-0.000168599
0.0196812
-0.000142744
0.0197832
-0.000102042
0.0198335
-5.03077e-05
0.0198315
1.986e-06
0.0197758
5.57142e-05
0.0196731
0.000102699
0.0195245
0.00014861
0.0193302
0.000194325
0.0190887
0.00024143
0.0188142
0.000274526
0.000220008
0.00338656
-0.00703207
0.00661825
-0.00669941
0.00931914
-0.00554434
0.0114971
-0.00439586
0.0132484
-0.00344466
0.0146677
-0.00269601
0.0158328
-0.0021186
0.0168059
-0.00168112
0.0176361
-0.00135594
0.0183609
-0.00111872
0.0190091
-0.000949615
0.0196026
-0.00083325
0.020158
-0.000757672
0.020688
-0.000713174
0.0212023
-0.000691233
0.0217073
-0.000683522
0.0222069
-0.000681222
0.0227016
-0.000675001
0.023189
-0.000655984
0.0236639
-0.000617622
0.0241196
-0.00055777
0.0245492
-0.000479881
0.0249424
-0.00039129
0.0252971
-0.000298977
0.0256121
-0.000212302
0.0258892
-0.000128412
0.0261232
-3.97384e-05
0.0263039
6.07824e-05
0.0264335
0.000144849
0.000148699
0.00286469
-0.00989675
0.00549514
-0.00932986
0.00764404
-0.00769324
0.00935708
-0.0061089
0.0107329
-0.00482052
0.0118538
-0.00381687
0.0127822
-0.00304703
0.0135663
-0.00246519
0.0142432
-0.00203285
0.0148407
-0.00171625
0.0153797
-0.0014886
0.0158759
-0.00132945
0.0163413
-0.00122302
0.0167849
-0.00115677
0.0172137
-0.00112005
0.0176329
-0.00110276
0.018046
-0.00109428
0.0184542
-0.00108319
0.0188566
-0.00105839
0.0192503
-0.00101137
0.0196314
-0.000938779
0.0199955
-0.000844012
0.0203405
-0.000736356
0.0206683
-0.000626724
0.0209806
-0.000524562
0.0212835
-0.000431325
0.0215842
-0.000340516
0.0218868
-0.00024181
0.0221732
-0.00014156
-4.7537e-05
0.00228201
-0.0121788
0.00420151
-0.0112494
0.00568165
-0.00917338
0.00682503
-0.00725228
0.0077285
-0.00572398
0.00845729
-0.00454566
0.00905465
-0.00364439
0.00955144
-0.00296198
0.00997303
-0.00245444
0.0103368
-0.00207999
0.0106553
-0.00180719
0.0109384
-0.00161251
0.0111933
-0.00147791
0.0114258
-0.0013893
0.0116409
-0.00133513
0.0118429
-0.00130472
0.0120353
-0.00128675
0.0122209
-0.00126871
0.0124004
-0.00123789
0.0125732
-0.0011842
0.0127373
-0.00110292
0.0128898
-0.000996506
0.0130285
-0.000874989
0.0131535
-0.000751788
0.0132661
-0.000637109
0.013372
-0.000537239
0.0134737
-0.000442252
0.0135722
-0.000340255
0.0136688
-0.000238195
-0.000102869
0.00159928
-0.013778
0.00272685
-0.0123769
0.00347447
-0.00992099
0.00399414
-0.00777196
0.00436826
-0.00609811
0.00464254
-0.00481993
0.00484046
-0.00384232
0.00497543
-0.00309695
0.00506331
-0.00254231
0.00511276
-0.00212944
0.00513005
-0.00182448
0.00512024
-0.0016027
0.00508733
-0.001445
0.00503485
-0.00133682
0.00496668
-0.00126696
0.00488728
-0.00122532
0.00480139
-0.00120086
0.00471308
-0.0011804
0.00462482
-0.00114963
0.00453711
-0.00109649
0.00444833
-0.00101414
0.00435461
-0.000902784
0.00425188
-0.000772267
0.00413673
-0.000636638
0.00400193
-0.000502302
0.0038482
-0.000383514
0.00367671
-0.00027076
0.00346111
-0.000124653
0.00318232
4.05916e-05
0.000109092
0.000810606
-0.0145887
0.00106663
-0.012633
0.00104106
-0.00989542
0.000908852
-0.00763975
0.000702308
-0.00589156
0.000456732
-0.00457436
0.000184365
-0.00356995
-0.000113971
-0.00279862
-0.000431979
-0.0022243
-0.000762331
-0.00179909
-0.0011008
-0.00148601
-0.00144372
-0.00125978
-0.0017881
-0.00110062
-0.00213131
-0.000993602
-0.00246993
-0.000928349
-0.00279982
-0.00089543
-0.0031172
-0.000883476
-0.00342026
-0.000877343
-0.00371027
-0.00085962
-0.00399125
-0.000815504
-0.00426825
-0.000737143
-0.00454661
-0.000624423
-0.00482918
-0.0004897
-0.00511412
-0.000351689
-0.00540833
-0.000208094
-0.00574156
-5.02843e-05
-0.00611246
0.000100135
-0.0064486
0.000211491
-0.00667053
0.000262517
0.000246541
-0.000145075
-0.0144436
-0.000779712
-0.0119983
-0.00158982
-0.00908532
-0.00243425
-0.00679532
-0.00328143
-0.00504438
-0.00410376
-0.00375202
-0.00488658
-0.00278714
-0.00562627
-0.00205892
-0.00632898
-0.00152159
-0.00699305
-0.00113502
-0.00761569
-0.000863372
-0.0081961
-0.000679365
-0.00873629
-0.000560432
-0.00924084
-0.000489054
-0.00971407
-0.000455121
-0.0101597
-0.000449765
-0.0105809
-0.000462329
-0.0109811
-0.000477119
-0.0113659
-0.000474829
-0.0117421
-0.000439285
-0.0121157
-0.000363559
-0.0124928
-0.00024737
-0.0128796
-0.000102876
-0.0132741
4.28565e-05
-0.0136422
0.000159984
-0.0139393
0.000246827
-0.0141668
0.000327617
-0.0143552
0.000399875
-0.0145211
0.000428485
0.000402401
-0.00115134
-0.0132922
-0.00279686
-0.0103528
-0.00445065
-0.00743153
-0.00604784
-0.00519812
-0.00754164
-0.00355058
-0.00890438
-0.00238928
-0.0101199
-0.0015716
-0.0111964
-0.000982426
-0.0121521
-0.000565935
-0.0130063
-0.000280824
-0.0137759
-9.37172e-05
-0.0144755
2.02045e-05
-0.0151107
7.48133e-05
-0.0156893
8.94969e-05
-0.0162238
7.93959e-05
-0.0167263
5.2727e-05
-0.0172043
1.56591e-05
-0.0176608
-2.06065e-05
-0.0181004
-3.52289e-05
-0.0185342
-5.50828e-06
-0.0189694
7.16364e-05
-0.0193929
0.000176155
-0.0197748
0.000279046
-0.0200939
0.000361921
-0.0203575
0.000423565
-0.0205835
0.000472902
-0.020778
0.000522074
-0.0209452
0.000567073
-0.0210967
0.000579996
0.000560052
-0.00235019
-0.0109421
-0.00511649
-0.0075865
-0.00772509
-0.00482293
-0.0100998
-0.00282337
-0.0122287
-0.0014217
-0.0141201
-0.000497895
-0.0157672
7.55281e-05
-0.0171478
0.00039819
-0.0182741
0.000560295
-0.0191991
0.000644185
-0.0199733
0.000680532
-0.0206354
0.000682302
-0.0212208
0.000660216
-0.0217565
0.000625193
-0.0222589
0.000581809
-0.0227364
0.000530159
-0.0231909
0.00047018
-0.0236222
0.000410669
-0.0240288
0.000371393
-0.0244073
0.000372972
-0.0247581
0.000422466
-0.0250889
0.000506909
-0.0254048
0.000594955
-0.0256986
0.000655746
-0.0259566
0.000681576
-0.0261723
0.000688612
-0.02635
0.000699768
-0.0265006
0.000717713
-0.026642
0.000721391
0.000713433
-0.00388754
-0.00705452
-0.0080674
-0.00340663
-0.0118958
-0.000994522
-0.0151177
0.000398557
-0.0176663
0.00112689
-0.0196286
0.00146435
-0.0211467
0.00159367
-0.0223604
0.00161189
-0.0233742
0.00157408
-0.024237
0.00150703
-0.0249838
0.00142732
-0.0256397
0.00133822
-0.0262229
0.00124339
-0.0267491
0.00115132
-0.0272336
0.00106636
-0.0276861
0.000982619
-0.0281073
0.000891424
-0.0284942
0.000797557
-0.0288481
0.000725256
-0.0291794
0.00070428
-0.0295029
0.000746007
-0.0298264
0.000830414
-0.0301446
0.000913148
-0.0304412
0.000952292
-0.0306966
0.000937042
-0.0309018
0.000893786
-0.0310635
0.000861497
-0.0311995
0.000853648
-0.0313314
0.000853309
0.000857397
-0.00608018
-0.000974336
-0.0115592
0.00207241
-0.0158646
0.00331086
-0.0191337
0.0036677
-0.0216465
0.00363968
-0.0236262
0.00344406
-0.0252068
0.00317424
-0.0264806
0.00288571
-0.0275174
0.00261081
-0.0283811
0.00237076
-0.0291212
0.00216742
-0.0297676
0.00198461
-0.0303374
0.00181322
-0.0308476
0.00166156
-0.0313179
0.00153665
-0.0317608
0.00142546
-0.0321744
0.00130507
-0.0325497
0.0011728
-0.032885
0.00106057
-0.0331948
0.00101407
-0.0335014
0.00105265
-0.0338187
0.00114769
-0.0341408
0.00123528
-0.0344438
0.00125525
-0.0346989
0.00119212
-0.0348925
0.00108741
-0.035036
0.001005
-0.0351558
0.000973509
-0.0352768
0.000974285
0.00099045
-0.00787839
0.00690406
-0.0141954
0.0083894
-0.0189349
0.00805035
-0.0225248
0.0072576
-0.0252385
0.00635345
-0.0272917
0.00549722
-0.0288787
0.00476124
-0.0301309
0.00413786
-0.0311308
0.00361077
-0.0319525
0.00319243
-0.0326583
0.00287319
-0.0332798
0.00260616
-0.0338263
0.00235968
-0.0343115
0.00214675
-0.0347612
0.0019864
-0.0351935
0.0018578
-0.0356019
0.00171342
-0.0359652
0.00153612
-0.0362754
0.00137076
-0.0365532
0.00129186
-0.0368348
0.00133423
-0.0371438
0.00145671
-0.0374735
0.00156502
-0.037789
0.00157068
-0.038047
0.0014502
-0.0382268
0.00126719
-0.0383464
0.00112459
-0.0384457
0.0010728
-0.0385535
0.0010821
0.00111131
-0.00951797
0.016422
-0.0172158
0.0160872
-0.0225407
0.0133753
-0.0262395
0.0109564
-0.0289046
0.00901855
-0.0308366
0.00742921
-0.0322921
0.00621673
-0.0334336
0.00527929
-0.0343287
0.00450587
-0.0350525
0.00391629
-0.0356883
0.00350898
-0.0362684
0.00318624
-0.0367792
0.00287045
-0.0372227
0.00259032
-0.0376368
0.00240047
-0.0380528
0.00227382
-0.0384576
0.00211817
-0.0388086
0.00188715
-0.0390842
0.00164633
-0.0393145
0.00152218
-0.0395593
0.00157902
-0.0398581
0.00175552
-0.0402022
0.00190911
-0.04054
0.00190845
-0.0408064
0.00171668
-0.0409684
0.00142913
-0.0410538
0.00121001
-0.0411248
0.00114378
-0.0412176
0.00117494
0.00121977
-0.0126321
0.0290541
-0.0219662
0.0254214
-0.0272661
0.0186752
-0.0304702
0.0141605
-0.0327838
0.0113322
-0.0343482
0.00899365
-0.0354855
0.00735397
-0.0364219
0.00621573
-0.0371503
0.00523429
-0.0377134
0.00447935
-0.0382398
0.00403541
-0.038771
0.00371741
-0.0392405
0.00334
-0.0396214
0.00297113
-0.0399764
0.00275549
-0.0403697
0.00266714
-0.0407798
0.0025283
-0.0411247
0.00223206
-0.0413552
0.00187681
-0.0415155
0.0016825
-0.0417064
0.00176993
-0.0419936
0.00204271
-0.0423633
0.00227882
-0.0427388
0.00228392
-0.0430224
0.00200025
-0.0431602
0.00156697
-0.0431944
0.00124424
-0.0432247
0.00117404
-0.0433024
0.00125261
0.0013187
-0.018014
0.0470681
-0.0292975
0.0367049
-0.0338318
0.0232094
-0.0352747
0.0156034
-0.0369261
0.0129836
-0.0377916
0.00985922
-0.0383477
0.00791003
-0.0390494
0.00691739
-0.0396228
0.00580769
-0.0399464
0.00480298
-0.0402978
0.00438681
-0.0407849
0.00420455
-0.0412246
0.00377963
-0.0415196
0.00326617
-0.0417802
0.00301613
-0.0421483
0.00303516
-0.0425896
0.00296966
-0.0429486
0.00259108
-0.0431213
0.00204944
-0.0431737
0.00173494
-0.0432823
0.00187849
-0.0435561
0.00231655
-0.0439685
0.00269121
-0.0444044
0.00271979
-0.0447184
0.00231427
-0.044823
0.00167159
-0.0447781
0.00119937
-0.0447474
0.00114334
-0.0448136
0.00131874
0.00141829
0.207447
0.00576017
0.207034
0.011175
0.206432
0.0163498
0.205647
0.0213678
0.204688
0.0262937
0.203561
0.0311819
0.202271
0.0360797
0.200826
0.0410291
0.199229
0.046067
0.197488
0.0512264
0.195607
0.0565377
0.193593
0.0620291
0.191449
0.0677281
0.189182
0.0736619
0.186797
0.0798593
0.184297
0.0863514
0.181685
0.0931742
0.178964
0.100371
0.176134
0.107995
0.173192
0.116115
0.170134
0.124824
0.166957
0.134245
0.163654
0.14455
0.160228
0.155982
0.1567
0.168895
0.153164
0.183816
0.149986
0.201543
0.14884
0.22299
0.160513
0.24564
0.25882
0.236002
0.21249
0.00595259
0.212118
0.0115478
0.211574
0.0168934
0.210868
0.0220737
0.210008
0.0271541
0.209
0.0321893
0.207853
0.0372268
0.206574
0.0423083
0.20517
0.0474705
0.20365
0.0527464
0.202023
0.0581656
0.200296
0.0637559
0.19848
0.069544
0.196585
0.0755565
0.194624
0.0818208
0.192608
0.0883671
0.190553
0.0952294
0.188475
0.102448
0.186397
0.110073
0.184347
0.118166
0.182364
0.126807
0.18051
0.136099
0.178884
0.146176
0.177657
0.157209
0.177151
0.169401
0.17802
0.182948
0.181678
0.197885
0.190727
0.21394
0.206174
0.230193
0.24572
0.219274
0.217658
0.00612252
0.217329
0.0118768
0.21685
0.017372
0.21623
0.0226933
0.215478
0.0279065
0.214601
0.0330659
0.213609
0.0382189
0.212511
0.0434069
0.211315
0.0486659
0.210034
0.0540279
0.208678
0.0595218
0.20726
0.0651739
0.205794
0.0710096
0.204297
0.0770534
0.202787
0.0833306
0.201287
0.0898678
0.199821
0.0966948
0.198424
0.103846
0.197136
0.111361
0.196014
0.119288
0.195136
0.127685
0.194615
0.13662
0.194621
0.14617
0.195417
0.156412
0.197414
0.167403
0.201223
0.179139
0.207613
0.191495
0.217245
0.204308
0.229842
0.217595
0.22878
0.246782
0.222951
0.00626797
0.22267
0.0121581
0.222262
0.0177802
0.221735
0.0232196
0.2211
0.028542
0.220364
0.0338014
0.219539
0.0390445
0.218634
0.0443118
0.217661
0.0496385
0.216634
0.0550552
0.215567
0.0605891
0.214475
0.066265
0.213379
0.0721056
0.2123
0.0781327
0.211263
0.0843678
0.210298
0.0908328
0.209442
0.0975508
0.208741
0.104547
0.208253
0.111849
0.208054
0.119486
0.208248
0.127491
0.208975
0.135894
0.210427
0.144718
0.212869
0.153971
0.216646
0.163626
0.222179
0.173607
0.229917
0.183758
0.240431
0.193794
0.254641
0.203386
0.210283
0.273138
0.228374
0.00638709
0.228144
0.0123881
0.227812
0.0181127
0.227385
0.0236459
0.226875
0.0290528
0.226289
0.0343866
0.225641
0.039693
0.224941
0.0450115
0.224204
0.0503758
0.223444
0.0558147
0.22268
0.0613536
0.22193
0.0670146
0.221218
0.0728175
0.220571
0.0787804
0.220018
0.0849201
0.219599
0.0912525
0.219357
0.0977928
0.219348
0.104556
0.219642
0.111555
0.220327
0.118802
0.221515
0.126303
0.223352
0.134057
0.226022
0.142048
0.229757
0.150236
0.234836
0.158547
0.241588
0.166855
0.250391
0.174954
0.261693
0.182492
0.275967
0.189113
0.193731
0.292518
0.233929
0.00647818
0.233754
0.0125636
0.233502
0.0183649
0.233181
0.0239662
0.232803
0.0294316
0.232376
0.0348131
0.231914
0.0401554
0.231429
0.0454961
0.230938
0.0508673
0.230457
0.0562958
0.230006
0.0618044
0.229608
0.0674125
0.229289
0.0731362
0.22908
0.0789894
0.229017
0.0849837
0.229141
0.0911282
0.229504
0.0974301
0.230166
0.103893
0.231203
0.110518
0.232705
0.1173
0.234784
0.124224
0.237576
0.131264
0.241246
0.138378
0.245985
0.145497
0.252014
0.152518
0.259575
0.159293
0.26891
0.165618
0.280199
0.171203
0.293537
0.175775
0.17882
0.308448
0.23962
0.00653976
0.239502
0.0126817
0.239334
0.0185327
0.239125
0.0241753
0.238884
0.0296722
0.238623
0.0350742
0.238354
0.040424
0.238093
0.0457576
0.237855
0.051105
0.23766
0.0564906
0.23753
0.0619346
0.23749
0.0674529
0.237568
0.0730582
0.237798
0.0787596
0.238218
0.0845633
0.238874
0.090472
0.239819
0.0964848
0.241117
0.102596
0.242841
0.108795
0.245078
0.115062
0.247934
0.121368
0.251525
0.127673
0.255989
0.133914
0.261475
0.140012
0.268138
0.145855
0.27613
0.151302
0.28557
0.156179
0.296504
0.160269
0.30892
0.163358
0.165179
0.322561
0.245448
0.00657057
0.24539
0.01274
0.24531
0.0186126
0.245217
0.0242689
0.245119
0.0297698
0.245029
0.0351643
0.24496
0.0404932
0.244927
0.0457904
0.244948
0.0510836
0.245044
0.0563948
0.245238
0.061741
0.245555
0.0671351
0.246028
0.0725857
0.24669
0.0780977
0.247581
0.0836719
0.248748
0.089305
0.250244
0.0949891
0.252129
0.100711
0.254474
0.106449
0.257359
0.112177
0.260872
0.117855
0.265112
0.123432
0.270184
0.128842
0.276195
0.134001
0.283243
0.138806
0.291411
0.143134
0.300745
0.146845
0.311234
0.14978
0.322811
0.151781
0.152716
0.335274
0.251418
0.00656958
0.251422
0.0127365
0.251432
0.0186019
0.251458
0.0242437
0.251507
0.0297206
0.251592
0.0350795
0.251726
0.0403592
0.251925
0.0455912
0.252208
0.0508008
0.252595
0.0560073
0.253111
0.0612249
0.253783
0.066463
0.254642
0.0717267
0.255723
0.0770167
0.257066
0.0823292
0.258715
0.0876559
0.260721
0.092983
0.263141
0.0982911
0.266036
0.103554
0.269476
0.108737
0.273534
0.113798
0.278285
0.118681
0.283805
0.123322
0.290164
0.127642
0.297419
0.131552
0.305602
0.134951
0.314716
0.137731
0.324715
0.139781
0.335501
0.140996
0.141316
0.346901
0.257532
0.00653605
0.257599
0.0126698
0.257702
0.0184987
0.257849
0.0240973
0.258047
0.0295221
0.258309
0.0348176
0.258648
0.0400202
0.25908
0.0451591
0.259624
0.050257
0.260301
0.0553305
0.261135
0.060391
0.262153
0.0654449
0.263385
0.070494
0.264867
0.0755352
0.266635
0.0805612
0.268732
0.0855593
0.271203
0.0905119
0.274098
0.0953956
0.277471
0.100181
0.281378
0.10483
0.285875
0.1093
0.291018
0.113539
0.296855
0.117484
0.303428
0.12107
0.310759
0.12422
0.318852
0.126858
0.32768
0.128903
0.337177
0.130284
0.347239
0.130933
0.130831
0.357725
0.263794
0.0064695
0.263925
0.0125391
0.264122
0.0183018
0.26439
0.0238287
0.264739
0.0291734
0.265179
0.0343781
0.265722
0.0394766
0.266386
0.0444956
0.267187
0.0494553
0.268148
0.0543699
0.269291
0.059248
0.270643
0.0640933
0.272232
0.0689047
0.274091
0.0736763
0.276254
0.0783977
0.27876
0.0830537
0.281648
0.087624
0.28496
0.0920832
0.288741
0.0964004
0.293032
0.100539
0.297875
0.104457
0.303306
0.108107
0.309355
0.111436
0.316037
0.114387
0.323356
0.116902
0.331291
0.118922
0.3398
0.120394
0.348814
0.12127
0.358232
0.121515
0.121127
0.367936
0.270207
0.00636977
0.270402
0.0123441
0.270693
0.0180109
0.271084
0.0234376
0.271582
0.0286749
0.272198
0.033762
0.272944
0.0387305
0.273835
0.0436045
0.274889
0.0484018
0.276125
0.053134
0.277565
0.0578077
0.279235
0.062424
0.28116
0.0669795
0.28337
0.0714664
0.285895
0.0758721
0.288769
0.0801798
0.292025
0.0843683
0.295696
0.0884116
0.299817
0.0922799
0.304418
0.0959386
0.309525
0.0993496
0.315161
0.102471
0.321337
0.10526
0.328054
0.10767
0.335297
0.109659
0.343035
0.111184
0.35122
0.112209
0.359781
0.112709
0.36863
0.112666
0.112091
0.377666
0.276774
0.00623696
0.277033
0.0120849
0.277417
0.0176265
0.27793
0.0229252
0.278576
0.0280282
0.279366
0.0329723
0.28031
0.0377862
0.281423
0.0424918
0.28272
0.0471046
0.28422
0.0516341
0.285943
0.0560846
0.287912
0.0604555
0.290149
0.0647419
0.292681
0.0689342
0.295534
0.0730191
0.298735
0.0769791
0.30231
0.080793
0.306286
0.084436
0.310686
0.0878802
0.31553
0.0910946
0.320833
0.0940462
0.326604
0.0967001
0.332843
0.0990214
0.339538
0.100976
0.346665
0.102531
0.354188
0.103661
0.362055
0.104343
0.3702
0.104564
0.378547
0.10432
0.103628
0.387009
0.283498
0.00607143
0.283821
0.0117625
0.284297
0.0171501
0.284929
0.0222934
0.285721
0.0272364
0.28668
0.0320131
0.287816
0.0366496
0.289143
0.0411655
0.290673
0.0455741
0.292424
0.0498832
0.294413
0.0540954
0.29666
0.0582086
0.299185
0.0622169
0.30201
0.0661099
0.305155
0.069874
0.308642
0.0734921
0.312491
0.0769441
0.316719
0.0802071
0.321343
0.0832562
0.326373
0.0860646
0.331815
0.0886046
0.337667
0.0908484
0.343919
0.092769
0.350553
0.0943415
0.35754
0.0955443
0.36484
0.0963605
0.372404
0.0967792
0.380171
0.0967966
0.388075
0.0964161
0.0956582
0.396044
0.290384
0.00587384
0.290768
0.011378
0.291335
0.0165836
0.292083
0.0215452
0.293016
0.0263037
0.294139
0.0308901
0.29546
0.0353281
0.296991
0.039635
0.298743
0.0438224
0.300729
0.0478964
0.302966
0.0518583
0.30547
0.0557052
0.308256
0.0594304
0.311343
0.0630235
0.314745
0.0664713
0.31848
0.0697578
0.322559
0.0728644
0.326995
0.075771
0.331796
0.0784561
0.336963
0.0808972
0.342496
0.0830721
0.348385
0.0849594
0.354614
0.0865391
0.361162
0.0877943
0.367995
0.0887113
0.375074
0.0892813
0.382353
0.0895006
0.389778
0.0893716
0.397291
0.0889027
0.0881151
0.404834
0.297435
0.00564505
0.297879
0.0109332
0.298533
0.0159296
0.299394
0.0206845
0.300463
0.0252351
0.301743
0.0296099
0.303241
0.0338302
0.304965
0.0379112
0.306924
0.0418628
0.309131
0.0456898
0.311597
0.0493926
0.314334
0.0529678
0.317356
0.0564084
0.320675
0.0597047
0.324302
0.0628442
0.328247
0.0658123
0.332519
0.0685929
0.337121
0.0711684
0.342057
0.073521
0.347321
0.0756327
0.352907
0.0774863
0.3588
0.0790658
0.364982
0.0803576
0.371425
0.0813508
0.378099
0.082038
0.384964
0.082416
0.391978
0.0824864
0.399094
0.0822555
0.406263
0.0817341
0.0809431
0.413435
0.304654
0.00538613
0.305157
0.0104302
0.305895
0.0151915
0.306864
0.0197157
0.308062
0.0240367
0.309492
0.0281803
0.311157
0.0321654
0.313062
0.0360056
0.315216
0.0397092
0.317626
0.0432799
0.320301
0.0467176
0.32325
0.0500187
0.326482
0.0531764
0.330005
0.0561818
0.333825
0.0590235
0.337949
0.0616888
0.342378
0.0641639
0.347112
0.0664343
0.352147
0.0684857
0.357476
0.070304
0.363086
0.0718765
0.368959
0.0731922
0.375075
0.0742421
0.381406
0.0750203
0.387919
0.0755241
0.394581
0.0757543
0.401352
0.0757158
0.40819
0.0754171
0.415054
0.0748703
0.0740951
0.421902
0.312046
0.00509827
0.312605
0.00987146
0.313424
0.0143728
0.314495
0.0186438
0.315817
0.022715
0.317388
0.0266095
0.319209
0.0303441
0.321284
0.0339306
0.323617
0.0373761
0.326214
0.0406837
0.329079
0.0438527
0.332218
0.0468797
0.335636
0.0497584
0.339337
0.0524808
0.343323
0.055037
0.347596
0.0574164
0.352152
0.0596074
0.356988
0.0615985
0.362095
0.0633784
0.367462
0.0649369
0.373074
0.0662649
0.378911
0.0673554
0.384949
0.0682033
0.391163
0.0688064
0.397522
0.0691652
0.403993
0.0692834
0.410541
0.0691677
0.417131
0.0688278
0.423725
0.0682762
0.0675309
0.430289
0.319615
0.00478282
0.320227
0.00925948
0.321122
0.0134776
0.322292
0.0174743
0.32373
0.0212769
0.325433
0.024906
0.327401
0.0283764
0.329633
0.0316983
0.332131
0.0348779
0.334898
0.0379174
0.337934
0.0408163
0.341243
0.0435711
0.344825
0.0461765
0.34868
0.0486254
0.352807
0.0509097
0.357203
0.0530205
0.361862
0.0549486
0.366775
0.0566851
0.371932
0.0582216
0.377318
0.0595509
0.382916
0.0606672
0.388705
0.0615663
0.394662
0.0622465
0.40076
0.062708
0.406972
0.0629537
0.413266
0.0629888
0.419613
0.0628212
0.42598
0.062461
0.432336
0.0619202
0.0612152
0.438651
0.327365
0.00444112
0.328027
0.008597
0.328995
0.0125098
0.330257
0.0162125
0.331804
0.0197295
0.333632
0.0230786
0.335735
0.0262729
0.338113
0.0293211
0.340762
0.0322284
0.343683
0.0349968
0.346874
0.0376255
0.350333
0.0401117
0.354059
0.0424507
0.358048
0.0446366
0.362294
0.0466628
0.366793
0.0485223
0.371533
0.050208
0.376505