/*--------------------------------*- C++ -*----------------------------------*\
  =========                 |
  \\      /  F ield         | OpenFOAM: The Open Source CFD Toolbox
   \\    /   O peration     | Website:  https://openfoam.org
    \\  /    A nd           | Version:  dev
     \\/     M anipulation  |
\*---------------------------------------------------------------------------*/
FoamFile
{
    version     2.0;
    format      ascii;
    class       volVectorField;
    location    "5.4";
    object      U;
}
// * * * * * * * * * * * * * * * * * * * * * * * * * * * * * * * * * * * * * //

dimensions      [0 1 -1 0 0 0 0];

internalField   nonuniform List<vector> 
2790
(
(9.94399 0 0.0205231)
(9.87572 0 0.0295876)
(9.77521 0 0.0359894)
(9.64944 0 0.042556)
(9.50409 0 0.0493853)
(9.34007 0 0.0564282)
(9.15655 0 0.0638158)
(8.95263 0 0.0717116)
(8.72747 0 0.0802553)
(8.48009 0 0.0895738)
(8.20928 0 0.099794)
(7.91366 0 0.111046)
(7.59169 0 0.123462)
(7.24179 0 0.137167)
(6.86233 0 0.152275)
(6.4518 0 0.168873)
(6.00888 0 0.187001)
(5.53268 0 0.206624)
(5.02296 0 0.227595)
(4.48044 0 0.249617)
(3.90715 0 0.272182)
(3.30682 0 0.294531)
(2.68527 0 0.315625)
(2.05061 0 0.334293)
(1.41179 0 0.35061)
(0.798029 0 0.372888)
(0.110699 0 0.325056)
(-0.469562 0 -0.114863)
(-0.453778 0 -0.297151)
(-0.231163 0 -0.423857)
(9.9985 0 0.0407029)
(9.98145 0 0.0623826)
(9.93575 0 0.0791398)
(9.86416 0 0.0966243)
(9.77098 0 0.115123)
(9.65715 0 0.134488)
(9.52206 0 0.154974)
(9.36486 0 0.176943)
(9.18472 0 0.200707)
(8.98068 0 0.22655)
(8.75154 0 0.254745)
(8.4959 0 0.285562)
(8.21221 0 0.319252)
(7.89883 0 0.356026)
(7.55405 0 0.396025)
(7.1762 0 0.439269)
(6.76379 0 0.4856)
(6.31567 0 0.534595)
(5.83126 0 0.585471)
(5.31088 0 0.636963)
(4.75616 0 0.687213)
(4.17041 0 0.733655)
(3.5593 0 0.772961)
(2.93155 0 0.8011)
(2.29995 0 0.813755)
(1.69296 0 0.807259)
(1.10716 0 0.747256)
(0.658898 0 0.547933)
(0.18645 0 0.224616)
(-0.00819884 0 -0.45373)
(9.99559 0 0.0432068)
(9.97556 0 0.0752713)
(9.9318 0 0.103345)
(9.8649 0 0.13237)
(9.77778 0 0.163058)
(9.67155 0 0.195398)
(9.54588 0 0.229741)
(9.40014 0 0.266602)
(9.23366 0 0.30647)
(9.04564 0 0.349807)
(8.8351 0 0.397072)
(8.60082 0 0.448723)
(8.34146 0 0.505194)
(8.05551 0 0.566867)
(7.74139 0 0.634015)
(7.39745 0 0.706737)
(7.02212 0 0.784844)
(6.61396 0 0.867731)
(6.17194 0 0.954203)
(5.69564 0 1.04226)
(5.18563 0 1.12889)
(4.64396 0 1.2098)
(4.0748 0 1.27916)
(3.48538 0 1.32934)
(2.88685 0 1.3501)
(2.29947 0 1.32643)
(1.73185 0 1.22078)
(1.21626 0 0.973013)
(0.701148 0 0.570155)
(0.358042 0 -0.15655)
(9.99403 0 0.049499)
(9.97181 0 0.0932058)
(9.92788 0 0.133571)
(9.86225 0 0.174208)
(9.77694 0 0.216432)
(9.67299 0 0.26066)
(9.55032 0 0.307428)
(9.4085 0 0.357414)
(9.24703 0 0.41129)
(9.06534 0 0.469705)
(8.86269 0 0.533302)
(8.6382 0 0.602724)
(8.39086 0 0.678593)
(8.11953 0 0.761477)
(7.82301 0 0.851824)
(7.50002 0 0.949879)
(7.14925 0 1.05555)
(6.76945 0 1.16825)
(6.3595 0 1.28661)
(5.9186 0 1.40827)
(5.44653 0 1.52948)
(4.94401 0 1.64469)
(4.41317 0 1.74615)
(3.85827 0 1.82322)
(3.28582 0 1.86137)
(2.70641 0 1.84033)
(2.12565 0 1.72601)
(1.55426 0 1.47787)
(0.957952 0 1.08371)
(0.509426 0 0.502335)
(9.99331 0 0.0572133)
(9.96994 0 0.110958)
(9.92593 0 0.162103)
(9.86146 0 0.213346)
(9.77799 0 0.266355)
(9.67635 0 0.321912)
(9.55654 0 0.3807)
(9.41822 0 0.443486)
(9.26098 0 0.511055)
(9.08434 0 0.584169)
(8.88771 0 0.663587)
(8.67039 0 0.750063)
(8.4316 0 0.844335)
(8.17047 0 0.947085)
(7.88608 0 1.05888)
(7.57749 0 1.18008)
(7.24367 0 1.31069)
(6.88361 0 1.45018)
(6.49629 0 1.59723)
(6.08074 0 1.74933)
(5.63616 0 1.90242)
(5.16212 0 2.05032)
(4.65878 0 2.18418)
(4.12722 0 2.29175)
(3.5694 0 2.35657)
(2.98889 0 2.35733)
(2.38683 0 2.26497)
(1.76639 0 2.04765)
(1.08999 0 1.69141)
(0.536652 0 1.15416)
(9.99302 0 0.0655382)
(9.96923 0 0.128701)
(9.92556 0 0.190112)
(9.86253 0 0.251842)
(9.78129 0 0.315577)
(9.68245 0 0.382317)
(9.56601 0 0.452873)
(9.43172 0 0.528099)
(9.27921 0 0.608878)
(9.10807 0 0.696082)
(8.91778 0 0.790578)
(8.70775 0 0.893223)
(8.47729 0 1.00486)
(8.22568 0 1.12626)
(7.95216 0 1.25809)
(7.65589 0 1.40081)
(7.33604 0 1.55454)
(6.99164 0 1.71887)
(6.62169 0 1.89256)
(6.22501 0 2.07323)
(5.80028 0 2.25685)
(5.34604 0 2.43721)
(4.86071 0 2.6052)
(4.3427 0 2.74823)
(3.7904 0 2.84955)
(3.20257 0 2.8882)
(2.57657 0 2.83824)
(1.91346 0 2.67162)
(1.17275 0 2.37401)
(0.549966 0 1.89441)
(9.99297 0 0.0740743)
(9.96927 0 0.146313)
(9.92637 0 0.217482)
(9.86509 0 0.28929)
(9.78643 0 0.363353)
(9.69085 0 0.440825)
(9.57835 0 0.522658)
(9.44872 0 0.609808)
(9.30165 0 0.703253)
(9.13678 0 0.803962)
(8.95365 0 0.912898)
(8.75171 0 1.03101)
(8.53034 0 1.15922)
(8.28888 0 1.2984)
(8.0266 0 1.4493)
(7.7427 0 1.61248)
(7.4363 0 1.78819)
(7.10641 0 1.97617)
(6.75181 0 2.17541)
(6.37101 0 2.38382)
(5.9621 0 2.59774)
(5.52264 0 2.81139)
(5.04953 0 3.01616)
(4.539 0 3.19997)
(3.98666 0 3.34668)
(3.3879 0 3.43597)
(2.73724 0 3.44332)
(2.03623 0 3.3415)
(1.24174 0 3.11358)
(0.563511 0 2.69316)
(9.99306 0 0.0825875)
(9.96981 0 0.163605)
(9.92807 0 0.244048)
(9.86885 0 0.325477)
(9.79313 0 0.409443)
(9.70126 0 0.497203)
(9.59323 0 0.589836)
(9.46888 0 0.688393)
(9.32796 0 0.793936)
(9.17015 0 0.907526)
(8.99503 0 1.03021)
(8.80211 0 1.16303)
(8.59082 0 1.30701)
(8.36051 0 1.46309)
(8.11045 0 1.63215)
(7.83981 0 1.81487)
(7.54761 0 2.01167)
(7.23268 0 2.22252)
(6.89351 0 2.44674)
(6.52817 0 2.68269)
(6.13409 0 2.92736)
(5.70785 0 3.17578)
(5.24497 0 3.42037)
(4.73978 0 3.6502)
(4.18547 0 3.85024)
(3.57475 0 4.0009)
(2.8995 0 4.07791)
(2.1621 0 4.05238)
(1.31611 0 3.9017)
(0.583213 0 3.54015)
(9.99326 0 0.0909276)
(9.97072 0 0.180407)
(9.93046 0 0.269666)
(9.87362 0 0.360239)
(9.80118 0 0.453644)
(9.71344 0 0.551206)
(9.61038 0 0.654108)
(9.49189 0 0.763492)
(9.35776 0 0.880501)
(9.20774 0 1.00628)
(9.04146 0 1.14195)
(8.85848 0 1.28866)
(8.65828 0 1.44752)
(8.44022 0 1.61959)
(8.20358 0 1.80586)
(7.94747 0 2.00721)
(7.67079 0 2.22425)
(7.37217 0 2.45728)
(7.0498 0 2.70606)
(6.70127 0 2.96957)
(6.32335 0 3.24567)
(5.91165 0 3.53054)
(5.46036 0 3.81807)
(4.962 0 4.099)
(4.40739 0 4.35987)
(3.78638 0 4.58211)
(3.08754 0 4.74108)
(2.31268 0 4.80446)
(1.41062 0 4.74108)
(0.614297 0 4.44191)
(9.99352 0 0.0989914)
(9.97191 0 0.196577)
(9.9334 0 0.294193)
(9.87924 0 0.393414)
(9.8104 0 0.495752)
(9.72717 0 0.602584)
(9.62954 0 0.715178)
(9.51742 0 0.834757)
(9.39069 0 0.962539)
(9.24914 0 1.09974)
(9.09246 0 1.24759)
(8.92029 0 1.40729)
(8.73214 0 1.58006)
(8.52743 0 1.7671)
(8.30544 0 1.96955)
(8.06527 0 2.18848)
(7.80573 0 2.42479)
(7.5253 0 2.67917)
(7.22192 0 2.95193)
(6.89277 0 3.24283)
(6.53403 0 3.5508)
(6.14047 0 3.8735)
(5.70504 0 4.20671)
(5.21846 0 4.5434)
(4.66896 0 4.87245)
(4.04283 0 5.17697)
(3.32364 0 5.43231)
(2.50972 0 5.60196)
(1.54183 0 5.64348)
(0.664036 0 5.41801)
(9.99384 0 0.106703)
(9.9733 0 0.211998)
(9.9368 0 0.3175)
(9.88558 0 0.424852)
(9.82064 0 0.535585)
(9.74226 0 0.651116)
(9.65045 0 0.772782)
(9.54518 0 0.901879)
(9.42638 0 1.03969)
(9.29391 0 1.18751)
(9.14753 0 1.34663)
(8.98695 0 1.51835)
(8.81176 0 1.70399)
(8.62144 0 1.90487)
(8.41533 0 2.12231)
(8.19253 0 2.3576)
(7.95189 0 2.61197)
(7.69179 0 2.88655)
(7.41005 0 3.18229)
(7.10364 0 3.49987)
(6.76834 0 3.83949)
(6.39832 0 4.20056)
(5.98554 0 4.5812)
(5.51905 0 4.97735)
(4.98433 0 5.38134)
(4.3632 0 5.77957)
(3.63182 0 6.14914)
(2.78004 0 6.45065)
(1.73338 0 6.62847)
(0.744796 0 6.50303)
(9.9942 0 0.114005)
(9.97487 0 0.226573)
(9.94056 0 0.33947)
(9.89252 0 0.454419)
(9.83174 0 0.572978)
(9.75851 0 0.696604)
(9.67289 0 0.826687)
(9.57489 0 0.964586)
(9.46449 0 1.11164)
(9.34163 0 1.26921)
(9.20616 0 1.43864)
(9.05788 0 1.62133)
(8.89645 0 1.81868)
(8.72148 0 2.03215)
(8.53238 0 2.26323)
(8.32837 0 2.51344)
(8.10836 0 2.78435)
(7.87082 0 3.07757)
(7.61361 0 3.39474)
(7.33373 0 3.7375)
(7.02691 0 4.10747)
(6.68713 0 4.50605)
(6.30585 0 4.93414)
(5.87103 0 5.39148)
(5.3657 0 5.87539)
(4.76679 0 6.37827)
(4.04059 0 6.88323)
(3.16132 0 7.35348)
(2.02462 0 7.72314)
(0.880666 0 7.75698)
(9.99459 0 0.120852)
(9.97657 0 0.240222)
(9.94461 0 0.360004)
(9.89995 0 0.481996)
(9.84356 0 0.60779)
(9.77576 0 0.738876)
(9.69663 0 0.87669)
(9.60624 0 1.02264)
(9.50464 0 1.17811)
(9.39186 0 1.34451)
(9.26782 0 1.52324)
(9.13243 0 1.71577)
(8.98549 0 1.9236)
(8.8267 0 2.14829)
(8.65564 0 2.39148)
(8.47168 0 2.65493)
(8.27393 0 2.94053)
(8.06108 0 3.25035)
(7.83126 0 3.5867)
(7.58178 0 3.9522)
(7.30877 0 4.34986)
(7.00661 0 4.78319)
(6.66716 0 5.25615)
(6.27839 0 5.773)
(5.82234 0 6.33774)
(5.27232 0 6.95246)
(4.58432 0 7.61366)
(3.70973 0 8.3009)
(2.48796 0 8.95812)
(1.12435 0 9.29302)
(9.99501 0 0.127209)
(9.97838 0 0.252882)
(9.94891 0 0.379017)
(9.9078 0 0.507482)
(9.85598 0 0.639902)
(9.79382 0 0.777794)
(9.72143 0 0.92263)
(9.63894 0 1.07585)
(9.54648 0 1.23888)
(9.44414 0 1.41316)
(9.33196 0 1.60015)
(9.20996 0 1.80135)
(9.07807 0 2.01833)
(8.93616 0 2.25275)
(8.78399 0 2.50638)
(8.62117 0 2.78118)
(8.44709 0 3.07929)
(8.26081 0 3.4032)
(8.06095 0 3.75579)
(7.84544 0 4.14053)
(7.61128 0 4.56172)
(7.35403 0 5.02476)
(7.06706 0 5.5366)
(6.74028 0 6.10623)
(6.35775 0 6.74534)
(5.89384 0 7.46902)
(5.30048 0 8.29639)
(4.50849 0 9.24798)
(3.26843 0 10.3417)
(1.60475 0 11.3587)
(9.99545 0 0.133049)
(9.98026 0 0.264501)
(9.95339 0 0.396438)
(9.91596 0 0.530783)
(9.86888 0 0.669192)
(9.81253 0 0.813204)
(9.74708 0 0.964313)
(9.67272 0 1.12398)
(9.58964 0 1.29367)
(9.49803 0 1.47483)
(9.39803 0 1.66894)
(9.28979 0 1.87756)
(9.17338 0 2.10228)
(9.04887 0 2.34483)
(8.91625 0 2.60709)
(8.7754 0 2.89112)
(8.62608 0 3.19928)
(8.46783 0 3.53432)
(8.29994 0 3.89957)
(8.12127 0 4.2991)
(7.9301 0 4.73814)
(7.72389 0 5.22353)
(7.49879 0 5.76451)
(7.2489 0 6.37387)
(6.96473 0 7.07007)
(6.63074 0 7.88092)
(6.21413 0 8.85185)
(5.66544 0 10.0658)
(4.68963 0 11.7309)
(2.68698 0 14.5915)
(0.114319 0 -0.113193)
(0.26929 0 -0.102878)
(0.426177 0 -0.0804884)
(0.556433 0 -0.0593751)
(0.656108 0 -0.042285)
(0.730336 0 -0.0291267)
(0.785295 0 -0.019235)
(0.825956 0 -0.0119582)
(0.856039 0 -0.00673518)
(0.878391 0 -0.0030924)
(0.895244 0 -0.000648723)
(0.908345 0 0.000891428)
(0.919057 0 0.00175838)
(0.928431 0 0.00213886)
(0.937247 0 0.00219318)
(0.94602 0 0.00206823)
(0.954986 0 0.00190596)
(0.964074 0 0.00184374)
(0.972907 0 0.00200143)
(0.980853 0 0.00245523)
(0.987147 0 0.00320929)
(0.991083 0 0.00417619)
(0.992224 0 0.00514775)
(0.99083 0 0.00582081)
(0.986861 0 0.00632132)
(0.980528 0 0.00673114)
(0.971948 0 0.007084)
(0.961072 0 0.00735829)
(0.948063 0 0.00731941)
(0.931928 0 0.00576609)
(0.0994989 0 -0.268522)
(0.2515 0 -0.250701)
(0.398566 0 -0.202319)
(0.523206 0 -0.155738)
(0.622761 0 -0.117898)
(0.701951 0 -0.0886972)
(0.765953 0 -0.0666502)
(0.818752 0 -0.0502995)
(0.863258 0 -0.0383948)
(0.901651 0 -0.0298823)
(0.935585 0 -0.0239239)
(0.966312 0 -0.0198813)
(0.994784 0 -0.0172673)
(1.02172 0 -0.0156965)
(1.04768 0 -0.0148459)
(1.07304 0 -0.014423)
(1.09807 0 -0.014145)
(1.12289 0 -0.0137374)
(1.14745 0 -0.0129601)
(1.17156 0 -0.0116554)
(1.19491 0 -0.00979838)
(1.21715 0 -0.00752272)
(1.23793 0 -0.00510967)
(1.25665 0 -0.00285051)
(1.27336 0 -0.000759003)
(1.28813 0 0.00122973)
(1.30103 0 0.00328615)
(1.31147 0 0.0053604)
(1.31897 0 0.00683253)
(1.32544 0 0.00598861)
(0.0798493 0 -0.426261)
(0.211453 0 -0.396214)
(0.328774 0 -0.321473)
(0.427435 0 -0.250405)
(0.50545 0 -0.193181)
(0.567737 0 -0.149161)
(0.618557 0 -0.115892)
(0.660917 0 -0.091103)
(0.697019 0 -0.0729023)
(0.728518 0 -0.0596979)
(0.756636 0 -0.0502361)
(0.782277 0 -0.0435712)
(0.806122 0 -0.0389895)
(0.828689 0 -0.035938)
(0.850368 0 -0.0339669)
(0.871457 0 -0.0326783)
(0.892168 0 -0.031693)
(0.912626 0 -0.0306451)
(0.932855 0 -0.0292147)
(0.952775 0 -0.0271896)
(0.972213 0 -0.0245249)
(0.990943 0 -0.0213665)
(1.00877 0 -0.0179871)
(1.02562 0 -0.0146296)
(1.04157 0 -0.0115288)
(1.05684 0 -0.00866946)
(1.07167 0 -0.00577829)
(1.08679 0 -0.00275204)
(1.10195 0 -4.03639e-05)
(1.11788 0 0.00163149)
(0.0603812 0 -0.552289)
(0.165771 0 -0.504616)
(0.246534 0 -0.405665)
(0.31459 0 -0.314867)
(0.366023 0 -0.243298)
(0.4067 0 -0.188848)
(0.439697 0 -0.147906)
(0.466833 0 -0.11744)
(0.489526 0 -0.0950373)
(0.508918 0 -0.0786982)
(0.525779 0 -0.0668836)
(0.540653 0 -0.0584414)
(0.553956 0 -0.0525053)
(0.566012 0 -0.0484129)
(0.57708 0 -0.0456375)
(0.58738 0 -0.0437222)
(0.597106 0 -0.0422344)
(0.606424 0 -0.0407527)
(0.615454 0 -0.0388996)
(0.624239 0 -0.0364129)
(0.632732 0 -0.0332148)
(0.640795 0 -0.0294429)
(0.648236 0 -0.025419)
(0.654908 0 -0.0215094)
(0.660812 0 -0.0180191)
(0.666098 0 -0.0150448)
(0.671096 0 -0.0123642)
(0.676149 0 -0.00978)
(0.681087 0 -0.00761992)
(0.687316 0 -0.00459346)
(0.0399466 0 -0.647941)
(0.113813 0 -0.577861)
(0.152623 0 -0.457641)
(0.188196 0 -0.352649)
(0.210091 0 -0.271751)
(0.226326 0 -0.210889)
(0.238283 0 -0.165223)
(0.246644 0 -0.131214)
(0.252124 0 -0.106159)
(0.255435 0 -0.0876785)
(0.256991 0 -0.0741107)
(0.257063 0 -0.0642205)
(0.255874 0 -0.0570769)
(0.253611 0 -0.0519757)
(0.250444 0 -0.0483749)
(0.246559 0 -0.0458162)
(0.242176 0 -0.0438671)
(0.237557 0 -0.0420853)
(0.232944 0 -0.0400403)
(0.228499 0 -0.0373939)
(0.224245 0 -0.0339882)
(0.220037 0 -0.0298957)
(0.215518 0 -0.0254516)
(0.210267 0 -0.0211257)
(0.204044 0 -0.0172455)
(0.196485 0 -0.014048)
(0.187756 0 -0.0114694)
(0.179297 0 -0.00801043)
(0.168821 0 -0.00336965)
(0.150809 0 0.000203938)
(0.017908 0 -0.707815)
(0.0549282 0 -0.611646)
(0.0482114 0 -0.473553)
(0.050041 0 -0.359708)
(0.0400885 0 -0.273352)
(0.0291193 0 -0.209196)
(0.0164585 0 -0.161085)
(0.00230574 0 -0.124843)
(-0.0129729 0 -0.0986429)
(-0.0291165 0 -0.0795213)
(-0.0458698 0 -0.0654962)
(-0.0629986 0 -0.0552897)
(-0.0803157 0 -0.0479486)
(-0.0976632 0 -0.0427622)
(-0.114898 0 -0.0392207)
(-0.131846 0 -0.0368907)
(-0.148293 0 -0.0353259)
(-0.164035 0 -0.0340153)
(-0.178983 0 -0.0324286)
(-0.193212 0 -0.0301599)
(-0.206951 0 -0.027046)
(-0.220525 0 -0.0231718)
(-0.23424 0 -0.0189222)
(-0.248324 0 -0.0147662)
(-0.262806 0 -0.010565)
(-0.277916 0 -0.00598339)
(-0.296061 0 -0.00154212)
(-0.315695 0 0.00239267)
(-0.329369 0 0.00514416)
(-0.336049 0 0.00479532)
(-0.00740651 0 -0.724716)
(-0.0128754 0 -0.599983)
(-0.0655698 0 -0.44994)
(-0.100907 0 -0.333662)
(-0.144079 0 -0.246736)
(-0.185448 0 -0.183576)
(-0.22522 0 -0.137044)
(-0.262968 0 -0.102473)
(-0.298971 0 -0.0771965)
(-0.333208 0 -0.059032)
(-0.365452 0 -0.0461315)
(-0.395584 0 -0.0371379)
(-0.423634 0 -0.0310076)
(-0.44976 0 -0.0269596)
(-0.474216 0 -0.0245091)
(-0.497225 0 -0.0232375)
(-0.518951 0 -0.0227026)
(-0.539533 0 -0.0223627)
(-0.559158 0 -0.0216262)
(-0.578108 0 -0.0200102)
(-0.59673 0 -0.0172591)
(-0.615363 0 -0.0133527)
(-0.634249 0 -0.00867062)
(-0.653675 0 -0.00398801)
(-0.673604 0 6.48592e-05)
(-0.690691 0 0.00351059)
(-0.703364 0 0.00633056)
(-0.713537 0 0.00808409)
(-0.722564 0 0.00850352)
(-0.727794 0 0.00767519)
(-0.0393472 0 -0.689943)
(-0.0917151 0 -0.541786)
(-0.189102 0 -0.390942)
(-0.265211 0 -0.277503)
(-0.342067 0 -0.194537)
(-0.413217 0 -0.136228)
(-0.477455 0 -0.0950119)
(-0.534385 0 -0.0651319)
(-0.584839 0 -0.0436301)
(-0.629903 0 -0.0287442)
(-0.670359 0 -0.0188167)
(-0.706947 0 -0.0125371)
(-0.740415 0 -0.00890844)
(-0.770648 0 -0.00718519)
(-0.798348 0 -0.00668615)
(-0.824198 0 -0.0069841)
(-0.848691 0 -0.0077034)
(-0.872085 0 -0.00833571)
(-0.894422 0 -0.00822515)
(-0.916083 0 -0.00681437)
(-0.937753 0 -0.00405396)
(-0.959598 0 -0.000494041)
(-0.9801 0 0.0031669)
(-0.99768 0 0.00629658)
(-1.01169 0 0.00844847)
(-1.02384 0 0.00995507)
(-1.03443 0 0.0114009)
(-1.0438 0 0.0125984)
(-1.05162 0 0.012703)
(-1.05579 0 0.0117939)
(-0.0795454 0 -0.598791)
(-0.182519 0 -0.434062)
(-0.331454 0 -0.290405)
(-0.45128 0 -0.187705)
(-0.561828 0 -0.115028)
(-0.661434 0 -0.0649115)
(-0.750036 0 -0.0318253)
(-0.826541 0 -0.0110334)
(-0.888284 0 0.00121424)
(-0.938841 0 0.00845281)
(-0.980815 0 0.0124251)
(-1.01634 0 0.0141439)
(-1.04707 0 0.0142879)
(-1.07492 0 0.0134829)
(-1.10082 0 0.0121848)
(-1.12532 0 0.0105664)
(-1.14863 0 0.00874211)
(-1.17074 0 0.00703645)
(-1.1917 0 0.00606594)
(-1.21142 0 0.0064039)
(-1.22967 0 0.00808263)
(-1.24654 0 0.0104723)
(-1.26272 0 0.0127866)
(-1.27807 0 0.0144687)
(-1.29184 0 0.0153832)
(-1.30358 0 0.0158143)
(-1.31347 0 0.0162056)
(-1.32205 0 0.0165608)
(-1.32906 0 0.0163216)
(-1.33255 0 0.0155575)
(-0.134404 0 -0.445994)
(-0.298929 0 -0.273718)
(-0.51133 0 -0.146039)
(-0.685783 0 -0.0572285)
(-0.828932 0 -0.00315905)
(-0.938946 0 0.0250084)
(-1.02376 0 0.0383942)
(-1.08999 0 0.0432154)
(-1.14526 0 0.0440392)
(-1.1918 0 0.0429441)
(-1.23174 0 0.0408783)
(-1.26656 0 0.0381985)
(-1.29733 0 0.0351647)
(-1.3249 0 0.0320773)
(-1.35011 0 0.0290905)
(-1.37356 0 0.026127)
(-1.39542 0 0.0230419)
(-1.41556 0 0.0200268)
(-1.43393 0 0.0177272)
(-1.4509 0 0.0168854)
(-1.46722 0 0.017767)
(-1.48348 0 0.0198202)
(-1.4997 0 0.0218508)
(-1.51521 0 0.022806)
(-1.52898 0 0.0224789)
(-1.54036 0 0.021491)
(-1.54956 0 0.0206737)
(-1.55738 0 0.0202502)
(-1.56368 0 0.0197797)
(-1.56667 0 0.0192003)
(-0.214602 0 -0.242894)
(-0.457516 0 -0.0373787)
(-0.706978 0 0.0614834)
(-0.887466 0 0.097439)
(-1.02686 0 0.107453)
(-1.13729 0 0.106931)
(-1.22493 0 0.101359)
(-1.2952 0 0.0936269)
(-1.35215 0 0.085165)
(-1.39911 0 0.0770122)
(-1.43887 0 0.0696268)
(-1.47327 0 0.0628025)
(-1.50341 0 0.0563847)
(-1.53021 0 0.0506062)
(-1.55466 0 0.0456464)
(-1.57756 0 0.0412032)
(-1.59903 0 0.0367567)
(-1.61867 0 0.0323035)
(-1.6362 0 0.0286601)
(-1.65209 0 0.0268937)
(-1.66742 0 0.0273722)
(-1.68317 0 0.029296)
(-1.69944 0 0.0310589)
(-1.71529 0 0.0312312)
(-1.7292 0 0.0295075)
(-1.74021 0 0.0268648)
(-1.74862 0 0.0246892)
(-1.75556 0 0.0235412)
(-1.76115 0 0.0229724)
(-1.76372 0 0.0226125)
(-0.299448 0 0.165747)
(-0.572637 0 0.257082)
(-0.849118 0 0.266941)
(-1.04987 0 0.250369)
(-1.20313 0 0.224127)
(-1.31952 0 0.195854)
(-1.40878 0 0.169572)
(-1.4785 0 0.146498)
(-1.53381 0 0.126682)
(-1.5787 0 0.110473)
(-1.61656 0 0.0976077)
(-1.64952 0 0.0868072)
(-1.67842 0 0.0771118)
(-1.70393 0 0.0687008)
(-1.72726 0 0.0619521)
(-1.74949 0 0.0563055)
(-1.77067 0 0.0506026)
(-1.78985 0 0.0444761)
(-1.80632 0 0.0390579)
(-1.82064 0 0.0361002)
(-1.8345 0 0.0363121)
(-1.84951 0 0.038539)
(-1.86594 0 0.0404317)
(-1.8824 0 0.03993)
(-1.89669 0 0.036594)
(-1.90731 0 0.0319311)
(-1.91469 0 0.0281753)
(-1.92049 0 0.026363)
(-1.92524 0 0.0258487)
(-1.92742 0 0.0257313)
(-0.355384 0 0.573937)
(-0.695311 0 0.590648)
(-1.01943 0 0.505752)
(-1.23458 0 0.419183)
(-1.38855 0 0.345943)
(-1.50008 0 0.283915)
(-1.5828 0 0.234781)
(-1.64641 0 0.196425)
(-1.69614 0 0.165444)
(-1.73586 0 0.141363)
(-1.76966 0 0.123642)
(-1.79999 0 0.109482)
(-1.82692 0 0.0965689)
(-1.85036 0 0.0853194)
(-1.87175 0 0.0768971)
(-1.89287 0 0.0705418)
(-1.91375 0 0.0639632)
(-1.93252 0 0.0560515)
(-1.94759 0 0.0484254)
(-1.95963 0 0.0440416)
(-1.97132 0 0.0442782)
(-1.98529 0 0.0474639)
(-2.00207 0 0.0500821)
(-2.01965 0 0.0490984)
(-2.03468 0 0.0438462)
(-2.04488 0 0.0366056)
(-2.0508 0 0.0309274)
(-2.05501 0 0.0285603)
(-2.05875 0 0.0283639)
(-2.06056 0 0.0285454)
(-0.473043 0 1.08762)
(-0.904422 0 0.993633)
(-1.26141 0 0.765766)
(-1.4593 0 0.581505)
(-1.59153 0 0.457556)
(-1.68427 0 0.359076)
(-1.74981 0 0.288867)
(-1.8007 0 0.239648)
(-1.84098 0 0.199418)
(-1.87229 0 0.167438)
(-1.89964 0 0.14582)
(-1.92642 0 0.129856)
(-1.95104 0 0.114347)
(-1.97155 0 0.100242)
(-1.98982 0 0.0906023)
(-2.00925 0 0.0846494)
(-2.03007 0 0.077943)
(-2.04883 0 0.0679192)
(-2.06226 0 0.0570448)
(-2.07102 0 0.0505363)
(-2.07952 0 0.0510868)
(-2.09207 0 0.0561583)
(-2.10959 0 0.0603351)
(-2.12906 0 0.0591196)
(-2.14543 0 0.0514738)
(-2.15512 0 0.0407714)
(-2.1589 0 0.0326019)
(-2.16082 0 0.0298695)
(-2.16331 0 0.0304732)
(-2.16479 0 0.031075)
(-0.703659 0 2.08285)
(-1.23824 0 1.65711)
(-1.61666 0 1.05741)
(-1.74168 0 0.668008)
(-1.81407 0 0.531699)
(-1.87169 0 0.417309)
(-1.90563 0 0.335577)
(-1.93784 0 0.280394)
(-1.96821 0 0.227574)
(-1.98875 0 0.183412)
(-2.00622 0 0.161033)
(-2.02848 0 0.148914)
(-2.05121 0 0.132714)
(-2.0681 0 0.114479)
(-2.08164 0 0.102507)
(-2.09869 0 0.0976336)
(-2.12041 0 0.0913729)
(-2.14036 0 0.0784566)
(-2.15203 0 0.0626897)
(-2.15598 0 0.0532122)
(-2.15958 0 0.0549938)
(-2.1701 0 0.0638729)
(-2.18895 0 0.071167)
(-2.21146 0 0.070276)
(-2.23007 0 0.0596555)
(-2.23915 0 0.0441922)
(-2.23966 0 0.0326091)
(-2.23816 0 0.0298534)
(-2.23913 0 0.0321701)
(-2.24044 0 0.0334602)
(9.9959 0 0.138444)
(9.98225 0 0.275235)
(9.95811 0 0.41252)
(9.92453 0 0.552267)
(9.88242 0 0.696153)
(9.83216 0 0.845731)
(9.77399 0 1.00251)
(9.70815 0 1.16796)
(9.63493 0 1.34354)
(9.55459 0 1.53073)
(9.4674 0 1.73101)
(9.37364 0 1.94594)
(9.27357 0 2.17713)
(9.16744 0 2.42634)
(9.0555 0 2.69548)
(8.93797 0 2.98667)
(8.81505 0 3.30239)
(8.68687 0 3.6455)
(8.5535 0 4.01954)
(8.41494 0 4.42888)
(8.27112 0 4.87916)
(8.12192 0 5.37783)
(7.96729 0 5.93509)
(7.80749 0 6.56527)
(7.64372 0 7.28946)
(7.48095 0 8.14024)
(7.33242 0 9.17158)
(7.28815 0 10.477)
(7.74592 0 12.2014)
(7.92689 0 14.9199)
(9.99638 0 0.143404)
(9.98434 0 0.28509)
(9.96305 0 0.427248)
(9.93352 0 0.571876)
(9.89656 0 0.720667)
(9.85262 0 0.875178)
(9.80197 0 1.03692)
(9.74492 0 1.20736)
(9.68184 0 1.38796)
(9.61309 0 1.58018)
(9.53907 0 1.7855)
(9.46019 0 2.00544)
(9.37688 0 2.24162)
(9.28964 0 2.49576)
(9.19897 0 2.76975)
(9.10546 0 3.06571)
(9.00975 0 3.38606)
(8.91261 0 3.73365)
(8.81494 0 4.11193)
(8.71792 0 4.52516)
(8.62316 0 4.97877)
(8.53302 0 5.47978)
(8.45121 0 6.03752)
(8.384 0 6.66457)
(8.34256 0 7.37817)
(8.34894 0 8.20172)
(8.44197 0 9.16539)
(8.67756 0 10.3024)
(9.32444 0 11.5577)
(9.81437 0 12.6468)
(9.99688 0 0.147841)
(9.98651 0 0.293901)
(9.96819 0 0.440398)
(9.94283 0 0.589346)
(9.91121 0 0.74244)
(9.87377 0 0.901232)
(9.83085 0 1.06722)
(9.78283 0 1.24186)
(9.73013 0 1.42658)
(9.67323 0 1.62282)
(9.61263 0 1.83201)
(9.54888 0 2.05565)
(9.48261 0 2.29528)
(9.41452 0 2.55256)
(9.3454 0 2.82929)
(9.27617 0 3.12749)
(9.20793 0 3.44941)
(9.14202 0 3.79769)
(9.08013 0 4.17545)
(9.02447 0 4.58646)
(8.97806 0 5.03531)
(8.94518 0 5.52769)
(8.93211 0 6.07057)
(8.94838 0 6.67235)
(9.00847 0 7.34248)
(9.13453 0 8.08962)
(9.35756 0 8.91563)
(9.68708 0 9.80946)
(10.2529 0 10.7197)
(10.9408 0 11.4366)
(9.9974 0 0.151702)
(9.98874 0 0.301563)
(9.97347 0 0.451805)
(9.95239 0 0.604445)
(9.92623 0 0.76117)
(9.89544 0 0.923516)
(9.86041 0 1.09295)
(9.82157 0 1.27091)
(9.77942 0 1.45878)
(9.73451 0 1.65795)
(9.68747 0 1.86978)
(9.63897 0 2.09569)
(9.58982 0 2.33715)
(9.5409 0 2.59569)
(9.49327 0 2.87297)
(9.44816 0 3.17079)
(9.40705 0 3.49115)
(9.37177 0 3.83632)
(9.34463 0 4.20887)
(9.32858 0 4.61178)
(9.32757 0 5.04846)
(9.34689 0 5.52275)
(9.39379 0 6.03876)
(9.47817 0 6.60049)
(9.61325 0 7.21069)
(9.81586 0 7.86904)
(10.1088 0 8.56845)
(10.5007 0 9.29428)
(11.0584 0 10.0364)
(11.8519 0 10.6816)
(9.99792 0 0.154942)
(9.99101 0 0.307982)
(9.97884 0 0.461332)
(9.96212 0 0.616996)
(9.9415 0 0.77664)
(9.91745 0 0.941771)
(9.89039 0 1.11382)
(9.86081 0 1.29418)
(9.82926 0 1.48418)
(9.79639 0 1.68512)
(9.76291 0 1.89831)
(9.72961 0 2.12505)
(9.69744 0 2.36668)
(9.66746 0 2.62458)
(9.64093 0 2.90018)
(9.61932 0 3.19504)
(9.60443 0 3.51079)
(9.59843 0 3.84922)
(9.604 0 4.21226)
(9.62455 0 4.60194)
(9.66439 0 5.02036)
(9.72904 0 5.46955)
(9.82559 0 5.95112)
(9.96299 0 6.46576)
(10.1523 0 7.0124)
(10.4066 0 7.58716)
(10.7433 0 8.18193)
(11.1738 0 8.782)
(11.7213 0 9.3758)
(12.4748 0 9.88841)
(9.99845 0 0.157516)
(9.9933 0 0.313072)
(9.98427 0 0.468853)
(9.97193 0 0.626833)
(9.95689 0 0.788645)
(9.93961 0 0.955755)
(9.92053 0 1.12955)
(9.9002 0 1.31135)
(9.87923 0 1.50242)
(9.85831 0 1.70398)
(9.83823 0 1.91723)
(9.81989 0 2.14334)
(9.80435 0 2.38349)
(9.79279 0 2.63887)
(9.78663 0 2.91066)
(9.78752 0 3.20011)
(9.79742 0 3.50844)
(9.81871 0 3.83692)
(9.85424 0 4.18676)
(9.90751 0 4.55908)
(9.98281 0 4.95478)
(10.0854 0 5.37434)
(10.2215 0 5.8175)
(10.3987 0 6.2828)
(10.626 0 6.76699)
(10.9128 0 7.26428)
(11.2706 0 7.76545)
(11.7072 0 8.25495)
(12.2234 0 8.71606)
(12.8996 0 9.10726)
(9.99898 0 0.159385)
(9.9956 0 0.316758)
(9.9897 0 0.474256)
(9.98176 0 0.633809)
(9.97228 0 0.797006)
(9.96172 0 0.96526)
(9.95058 0 1.1399)
(9.9394 0 1.32216)
(9.92885 0 1.51324)
(9.91965 0 1.71425)
(9.91268 0 1.92626)
(9.90889 0 2.15031)
(9.9094 0 2.38738)
(9.9155 0 2.63845)
(9.92868 0 2.90444)
(9.95068 0 3.18625)
(9.98354 0 3.4847)
(10.0297 0 3.8005)
(10.0919 0 4.13421)
(10.1736 0 4.48614)
(10.2786 0 4.85618)
(10.4117 0 5.24364)
(10.5781 0 5.64693)
(10.7837 0 6.06325)
(11.035 0 6.48811)
(11.3383 0 6.91481)
(11.6999 0 7.33401)
(12.1238 0 7.73226)
(12.6039 0 8.09501)
(13.2096 0 8.40171)
(9.99951 0 0.160516)
(9.99789 0 0.318972)
(9.9951 0 0.477442)
(9.9915 0 0.637798)
(9.98752 0 0.801571)
(9.98361 0 0.970113)
(9.98025 0 1.14468)
(9.97804 0 1.32643)
(9.97765 0 1.51645)
(9.97985 0 1.71574)
(9.98553 0 1.92525)
(9.99569 0 2.14584)
(10.0115 0 2.37832)
(10.0342 0 2.62343)
(10.0655 0 2.88182)
(10.1069 0 3.15405)
(10.1606 0 3.44054)
(10.2288 0 3.74151)
(10.3142 0 4.05695)
(10.4198 0 4.38649)
(10.5491 0 4.72925)
(10.7058 0 5.08373)
(10.8941 0 5.44753)
(11.1184 0 5.81713)
(11.3829 0 6.18762)
(11.6914 0 6.55244)
(12.0467 0 6.90331)
(12.4504 0 7.22991)
(12.8949 0 7.52108)
(13.4381 0 7.76549)
(10 0 0.160881)
(10.0001 0 0.31966)
(10.0004 0 0.478332)
(10.0011 0 0.638698)
(10.0025 0 0.802223)
(10.0051 0 0.970184)
(10.0093 0 1.14375)
(10.0158 0 1.32401)
(10.0252 0 1.51191)
(10.0383 0 1.70837)
(10.0561 0 1.91416)
(10.0794 0 2.12999)
(10.1096 0 2.35648)
(10.1478 0 2.59415)
(10.1956 0 2.84337)
(10.2546 0 3.1044)
(10.3267 0 3.37728)
(10.4141 0 3.66184)
(10.5191 0 3.95759)
(10.6443 0 4.26365)
(10.7925 0 4.57863)
(10.9667 0 4.90051)
(11.17 0 5.2265)
(11.4052 0 5.55288)
(11.675 0 5.87491)
(11.9812 0 6.18673)
(12.3247 0 6.48147)
(12.7052 0 6.75128)
(13.115 0 6.98781)
(13.603 0 7.18421)
(10.0005 0 0.160458)
(10.0023 0 0.31878)
(10.0056 0 0.476867)
(10.0104 0 0.636437)
(10.017 0 0.798878)
(10.0259 0 0.965389)
(10.0374 0 1.13705)
(10.0523 0 1.31484)
(10.071 0 1.49962)
(10.0945 0 1.69215)
(10.1236 0 1.89308)
(10.1593 0 2.10296)
(10.2027 0 2.32221)
(10.2551 0 2.55114)
(10.3178 0 2.78988)
(10.3923 0 3.03841)
(10.4805 0 3.29648)
(10.5842 0 3.56358)
(10.7053 0 3.83887)
(10.8459 0 4.12113)
(11.0084 0 4.40866)
(11.1948 0 4.6992)
(11.4073 0 4.98989)
(11.6476 0 5.27713)
(11.917 0 5.55663)
(12.2162 0 5.8234)
(12.5446 0 6.07192)
(12.901 0 6.29629)
(13.2783 0 6.49045)
(13.7184 0 6.65024)
(10.001 0 0.159233)
(10.0044 0 0.316302)
(10.0106 0 0.473006)
(10.0194 0 0.630968)
(10.0311 0 0.791492)
(10.0459 0 0.955689)
(10.0644 0 1.12455)
(10.0872 0 1.29894)
(10.1148 0 1.47961)
(10.148 0 1.66721)
(10.1876 0 1.86223)
(10.2346 0 2.06508)
(10.2901 0 2.276)
(10.3551 0 2.4951)
(10.431 0 2.72232)
(10.5191 0 2.95739)
(10.6209 0 3.19984)
(10.738 0 3.4489)
(10.8719 0 3.70352)
(11.0244 0 3.96226)
(11.197 0 4.22329)
(11.3913 0 4.48433)
(11.6084 0 4.7426)
(11.8494 0 4.99485)
(12.1146 0 5.23736)
(12.4037 0 5.46602)
(12.7156 0 5.67651)
(13.0485 0 5.86446)
(13.3961 0 6.02564)
(13.795 0 6.15752)
(10.0015 0 0.157197)
(10.0065 0 0.312212)
(10.0154 0 0.466731)
(10.028 0 0.622275)
(10.0444 0 0.780056)
(10.065 0 0.941093)
(10.0901 0 1.10628)
(10.1202 0 1.27638)
(10.1561 0 1.45204)
(10.1982 0 1.63376)
(10.2476 0 1.82194)
(10.3049 0 2.01681)
(10.3711 0 2.21847)
(10.4473 0 2.42687)
(10.5347 0 2.64177)
(10.6342 0 2.86274)
(10.7473 0 3.08911)
(10.8751 0 3.31997)
(11.019 0 3.55413)
(11.18 0 3.79008)
(11.3593 0 4.02598)
(11.5578 0 4.25965)
(11.7761 0 4.48853)
(12.0146 0 4.7098)
(12.2729 0 4.92032)
(12.5503 0 5.11681)
(12.8454 0 5.29597)
(13.156 0 5.45462)
(13.4769 0 5.58984)
(13.8404 0 5.70014)
(10.0019 0 0.154349)
(10.0084 0 0.30651)
(10.0199 0 0.458047)
(10.0361 0 0.61037)
(10.0571 0 0.764598)
(10.083 0 0.921656)
(10.1142 0 1.08234)
(10.1512 0 1.24731)
(10.1946 0 1.4171)
(10.245 0 1.59211)
(10.303 0 1.7726)
(10.3695 0 1.95869)
(10.4453 0 2.15035)
(10.5312 0 2.34738)
(10.6282 0 2.54942)
(10.7373 0 2.7559)
(10.8595 0 2.96606)
(10.9956 0 3.17889)
(11.1467 0 3.39315)
(11.3134 0 3.60734)
(11.4965 0 3.81971)
(11.6965 0 4.02825)
(11.9134 0 4.23072)
(12.1471 0 4.4247)
(12.397 0 4.60765)
(12.6619 0 4.777)
(12.9404 0 4.93024)
(13.2304 0 5.06511)
(13.5274 0 5.17962)
(13.8605 0 5.27293)
(10.0024 0 0.150696)
(10.0102 0 0.299209)
(10.0241 0 0.446975)
(10.0438 0 0.595294)
(10.0689 0 0.745183)
(10.0997 0 0.897476)
(10.1366 0 1.05287)
(10.1799 0 1.21193)
(10.2302 0 1.37508)
(10.2879 0 1.54263)
(10.3537 0 1.71472)
(10.4283 0 1.89137)
(10.5123 0 2.07243)
(10.6064 0 2.25762)
(10.7115 0 2.44647)
(10.8283 0 2.63834)
(10.9575 0 2.83239)
(11.0998 0 3.0276)
(11.2557 0 3.22275)
(11.4259 0 3.4164)
(11.6105 0 3.60696)
(11.8097 0 3.79262)
(12.0232 0 3.97149)
(12.2507 0 4.14153)
(12.4912 0 4.30072)
(12.7436 0 4.44708)
(13.0062 0 4.57875)
(13.2773 0 4.69413)
(13.553 0 4.7919)
(13.8596 0 4.87162)
(10.0027 0 0.14625)
(10.0119 0 0.290334)
(10.0281 0 0.43356)
(10.0508 0 0.577112)
(10.0798 0 0.721909)
(10.1152 0 0.86869)
(10.1572 0 1.01806)
(10.2062 0 1.17049)
(10.2626 0 1.32632)
(10.3269 0 1.48574)
(10.3995 0 1.64884)
(10.481 0 1.81552)
(10.5719 0 1.98557)
(10.6729 0 2.15861)
(10.7845 0 2.33413)
(10.9073 0 2.51144)
(11.0417 0 2.6897)
(11.1883 0 2.8679)
(11.3473 0 3.04487)
(11.5189 0 3.21932)
(11.7031 0 3.38979)
(11.8999 0 3.55474)
(12.1087 0 3.71256)
(12.329 0 3.86162)
(12.5597 0 4.00031)
(12.7997 0 4.12712)
(13.0474 0 4.24071)
(13.3012 0 4.33996)
(13.5579 0 4.42399)
(13.8416 0 4.49266)
(10.0031 0 0.141029)
(10.0134 0 0.279925)
(10.0317 0 0.417864)
(10.0573 0 0.555916)
(10.0898 0 0.694902)
(10.1293 0 0.835471)
(10.1759 0 0.978138)
(10.23 0 1.12329)
(10.2919 0 1.27118)
(10.3618 0 1.42194)
(10.4403 0 1.57554)
(10.5277 0 1.73185)
(10.6244 0 1.89059)
(10.7309 0 2.05135)
(10.8476 0 2.21356)
(10.9748 0 2.37654)
(11.1129 0 2.53946)
(11.2621 0 2.70137)
(11.4224 0 2.86121)
(11.594 0 3.01779)
(11.7765 0 3.16986)
(11.9696 0 3.31611)
(12.1728 0 3.45522)
(12.3854 0 3.58586)
(12.6062 0 3.7068)
(12.8342 0 3.81691)
(13.068 0 3.91522)
(13.3062 0 4.00095)
(13.5459 0 4.07358)
(13.8095 0 4.13309)