/*--------------------------------*- C++ -*----------------------------------*\
  =========                 |
  \\      /  F ield         | OpenFOAM: The Open Source CFD Toolbox
   \\    /   O peration     | Website:  https://openfoam.org
    \\  /    A nd           | Version:  dev
     \\/     M anipulation  |
\*---------------------------------------------------------------------------*/
FoamFile
{
    version     2.0;
    format      ascii;
    class       surfaceVectorField;
    location    "5.4";
    object      Uf;
}
// * * * * * * * * * * * * * * * * * * * * * * * * * * * * * * * * * * * * * //

dimensions      [0 1 -1 0 0 0 0];

internalField   nonuniform List<vector> 
5457
(
(9.92088 0 0.0251095)
(9.97125 0 0.0387457)
(9.82401 0 0.0328268)
(9.92859 0 0.048585)
(9.70961 0 0.039312)
(9.85548 0 0.058768)
(9.57544 0 0.0460115)
(9.7568 0 0.0705932)
(9.42138 0 0.0529488)
(9.63753 0 0.0830132)
(9.24755 0 0.0601662)
(9.49861 0 0.0959364)
(9.05362 0 0.0678109)
(9.33931 0 0.109613)
(8.83893 0 0.0760345)
(9.15874 0 0.124289)
(8.60252 0 0.0849702)
(8.9561 0 0.140167)
(8.34327 0 0.094745)
(8.73039 0 0.157433)
(8.05985 0 0.105487)
(8.48041 0 0.17627)
(7.7508 0 0.117328)
(8.20478 0 0.196858)
(7.41456 0 0.130396)
(7.90195 0 0.219362)
(7.0495 0 0.144811)
(7.57031 0 0.243925)
(6.65404 0 0.160673)
(7.20819 0 0.270635)
(6.22672 0 0.178046)
(6.814 0 0.299503)
(5.76643 0 0.19693)
(6.38634 0 0.330417)
(5.27258 0 0.217235)
(5.92417 0 0.363087)
(4.74538 0 0.238738)
(5.42711 0 0.396979)
(4.18621 0 0.261034)
(4.89566 0 0.43124)
(3.59798 0 0.28349)
(4.33165 0 0.464622)
(2.98557 0 0.305204)
(3.73862 0 0.495427)
(2.35613 0 0.32507)
(3.12229 0 0.521515)
(1.71912 0 0.342549)
(2.49108 0 0.540559)
(1.08436 0 0.361882)
(1.85587 0 0.551675)
(0.451847 0 0.348686)
(1.24549 0 0.563021)
(-0.145832 0 0.102468)
(0.608929 0 0.544884)
(-0.423618 0 -0.207096)
(0.0946679 0 0.259374)
(-0.402155 0 -0.361261)
(-0.133664 0 -0.0205247)
(-0.119681 0 -0.393886)
(9.99641 0 0.0516723)
(9.99705 0 0.0405045)
(9.95879 0 0.0708613)
(9.97851 0 0.0674542)
(9.89824 0 0.0879865)
(9.93377 0 0.0898696)
(9.81659 0 0.105984)
(9.86453 0 0.113554)
(9.71359 0 0.124921)
(9.77438 0 0.138514)
(9.58909 0 0.144853)
(9.66435 0 0.164646)
(9.44274 0 0.16609)
(9.53397 0 0.192332)
(9.27391 0 0.188967)
(9.3825 0 0.222031)
(9.08167 0 0.213783)
(9.20919 0 0.254149)
(8.8649 0 0.240816)
(9.01316 0 0.289064)
(8.6223 0 0.270338)
(8.79332 0 0.327153)
(8.35239 0 0.302608)
(8.54836 0 0.368788)
(8.05356 0 0.337859)
(8.27684 0 0.414319)
(7.72412 0 0.376265)
(7.97717 0 0.464049)
(7.36237 0 0.417905)
(7.64772 0 0.518193)
(6.96672 0 0.462711)
(7.28683 0 0.576811)
(6.53583 0 0.51039)
(6.89295 0 0.639731)
(6.06883 0 0.560337)
(6.46481 0 0.706433)
(5.5656 0 0.611525)
(6.0016 0 0.775915)
(5.02711 0 0.662389)
(5.50326 0 0.846529)
(4.45588 0 0.710712)
(4.97089 0 0.915811)
(3.8565 0 0.753543)
(4.40719 0 0.980311)
(3.2362 0 0.787198)
(3.81705 0 1.03546)
(2.60582 0 0.807503)
(3.20847 0 1.07549)
(1.9828 0 0.810468)
(2.5934 0 1.09315)
(1.40529 0 0.776899)
(1.99621 0 1.07708)
(0.92976 0 0.646403)
(1.4195 0 0.978412)
(0.439863 0 0.384343)
(0.937579 0 0.7168)
(0.059176 0 -0.11861)
(0.443799 0 0.343529)
(0.174922 0 -0.335927)
(9.98903 0 0.0594306)
(9.99481 0 0.0458773)
(9.95434 0 0.0894761)
(9.97368 0 0.0848538)
(9.89729 0 0.118031)
(9.92984 0 0.119173)
(9.82047 0 0.147898)
(9.86357 0 0.153976)
(9.72416 0 0.179421)
(9.77736 0 0.190408)
(9.60821 0 0.212775)
(9.67227 0 0.228636)
(9.47235 0 0.248392)
(9.5481 0 0.269129)
(9.31608 0 0.286774)
(9.40432 0 0.312496)
(9.13869 0 0.328397)
(9.24034 0 0.359325)
(8.93925 0 0.373722)
(9.05549 0 0.410174)
(8.71665 0 0.423206)
(8.8489 0 0.465598)
(8.4696 0 0.477296)
(8.61951 0 0.526153)
(8.19668 0 0.536399)
(8.36616 0 0.592373)
(7.89633 0 0.600842)
(8.08752 0 0.664738)
(7.56692 0 0.670811)
(7.7822 0 0.743618)
(7.20684 0 0.746257)
(7.44873 0 0.82919)
(6.81457 0 0.826783)
(7.08568 0 0.92132)
(6.38888 0 0.911484)
(6.69171 0 1.01941)
(5.92904 0 0.998759)
(6.26572 0 1.12217)
(5.43515 0 1.08609)
(5.80712 0 1.22742)
(4.90856 0 1.16983)
(5.31608 0 1.33175)
(4.35244 0 1.24489)
(4.79398 0 1.43019)
(3.7726 0 1.30455)
(4.24398 0 1.51588)
(3.17874 0 1.33984)
(3.67183 0 1.57943)
(2.58664 0 1.33812)
(3.08634 0 1.60775)
(2.01987 0 1.27298)
(2.50294 0 1.58158)
(1.48696 0 1.09542)
(1.92875 0 1.46425)
(0.958306 0 0.769177)
(1.38526 0 1.21041)
(0.479884 0 0.20246)
(0.82955 0 0.801047)
(0.433734 0 0.134089)
(9.98515 0 0.0716135)
(9.99367 0 0.0531476)
(9.95039 0 0.11363)
(9.97087 0 0.10229)
(9.89437 0 0.154132)
(9.92691 0 0.147953)
(9.81882 0 0.195572)
(9.86185 0 0.193721)
(9.72442 0 0.23881)
(9.77746 0 0.241276)
(9.61112 0 0.284324)
(9.67467 0 0.291163)
(9.47874 0 0.33272)
(9.55343 0 0.343955)
(9.32695 0 0.384674)
(9.41336 0 0.400371)
(9.15523 0 0.440846)
(9.254 0 0.461139)
(8.96291 0 0.501883)
(9.07484 0 0.526961)
(8.74917 0 0.568428)
(8.8752 0 0.598536)
(8.51304 0 0.641112)
(8.6543 0 0.676562)
(8.25346 0 0.72053)
(8.41123 0 0.761721)
(7.96926 0 0.80719)
(8.145 0 0.854637)
(7.65918 0 0.901437)
(7.85455 0 0.955819)
(7.32192 0 1.00335)
(7.53875 0 1.06557)
(6.95621 0 1.11257)
(7.19646 0 1.18385)
(6.56085 0 1.22814)
(6.82653 0 1.31008)
(6.13489 0 1.34817)
(6.42789 0 1.44292)
(5.67785 0 1.4696)
(5.99967 0 1.5799)
(5.19001 0 1.58777)
(5.54135 0 1.71708)
(4.67288 0 1.69603)
(5.05306 0 1.84854)
(4.12981 0 1.78515)
(4.53597 0 1.96583)
(3.56667 0 1.84253)
(3.99274 0 2.0573)
(2.99207 0 1.85073)
(3.42761 0 2.10714)
(2.41586 0 1.78249)
(2.84765 0 2.09449)
(1.84056 0 1.60046)
(2.25624 0 1.98874)
(1.2594 0 1.27844)
(1.66033 0 1.75305)
(0.666779 0 0.789547)
(1.02397 0 1.36777)
(0.523039 0 0.787159)
(9.98337 0 0.0844069)
(9.99316 0 0.061291)
(9.94821 0 0.136836)
(9.96958 0 0.119926)
(9.89315 0 0.188031)
(9.92575 0 0.176239)
(9.81906 0 0.240168)
(9.86199 0 0.232697)
(9.72663 0 0.294466)
(9.77964 0 0.291086)
(9.6159 0 0.351657)
(9.6794 0 0.352272)
(9.48671 0 0.412468)
(9.56128 0 0.416975)
(9.33879 0 0.477674)
(9.42497 0 0.486006)
(9.17171 0 0.548049)
(9.27009 0 0.560202)
(8.98493 0 0.624352)
(9.0962 0 0.640384)
(8.77779 0 0.707341)
(8.90275 0 0.727365)
(8.54954 0 0.797762)
(8.68907 0 0.821954)
(8.29935 0 0.896324)
(8.45444 0 0.924939)
(8.02635 0 1.00365)
(8.19807 0 1.03705)
(7.72957 0 1.1202)
(7.91912 0 1.15891)
(7.40805 0 1.24616)
(7.61669 0 1.29092)
(7.06077 0 1.38127)
(7.28985 0 1.43315)
(6.68669 0 1.52458)
(6.93763 0 1.5851)
(6.28485 0 1.67419)
(6.55899 0 1.7455)
(5.85439 0 1.82679)
(6.15287 0 1.91188)
(5.39471 0 1.97725)
(5.71822 0 2.08016)
(4.90576 0 2.11805)
(5.25408 0 2.24409)
(4.38826 0 2.23861)
(4.75974 0 2.3946)
(3.84395 0 2.32454)
(4.23496 0 2.51919)
(3.27545 0 2.35695)
(3.6799 0 2.60124)
(2.68541 0 2.31059)
(3.09573 0 2.6197)
(2.0727 0 2.15501)
(2.4817 0 2.54732)
(1.42939 0 1.8674)
(1.83993 0 2.35373)
(0.742616 0 1.41958)
(1.13137 0 2.02453)
(0.543309 0 1.51451)
(9.98264 0 0.0974969)
(9.99299 0 0.0697923)
(9.94744 0 0.159774)
(9.96925 0 0.137582)
(9.89354 0 0.221346)
(9.92597 0 0.203925)
(9.82134 0 0.28409)
(9.86381 0 0.270686)
(9.73134 0 0.349345)
(9.78386 0 0.33958)
(9.62367 0 0.418016)
(9.68665 0 0.411694)
(9.49819 0 0.490935)
(9.57218 0 0.4879)
(9.35465 0 0.568971)
(9.44022 0 0.569101)
(9.19269 0 0.653001)
(9.29043 0 0.656231)
(9.01184 0 0.743895)
(9.12243 0 0.750211)
(8.81151 0 0.842514)
(8.93572 0 0.851954)
(8.59109 0 0.949706)
(8.72973 0 0.962364)
(8.34985 0 1.06628)
(8.50382 0 1.08232)
(8.08706 0 1.19296)
(8.25728 0 1.21264)
(7.80192 0 1.3303)
(7.98938 0 1.35404)
(7.4936 0 1.4786)
(7.69929 0 1.50703)
(7.16119 0 1.63769)
(7.38617 0 1.67176)
(6.80372 0 1.80675)
(7.04903 0 1.84792)
(6.42011 0 1.98397)
(6.68675 0 2.03436)
(6.00913 0 2.16614)
(6.29801 0 2.22884)
(5.56941 0 2.34811)
(5.88119 0 2.42748)
(5.09946 0 2.52221)
(5.43434 0 2.62426)
(4.59775 0 2.67757)
(4.95512 0 2.8103)
(4.0627 0 2.79949)
(4.44085 0 2.97322)
(3.49271 0 2.86911)
(3.88853 0 3.09663)
(2.88584 0 2.86292)
(3.29524 0 3.1599)
(2.23802 0 2.75393)
(2.65691 0 3.13791)
(1.54245 0 2.52104)
(1.97485 0 3.0032)
(0.793651 0 2.13135)
(1.20725 0 2.74061)
(0.556739 0 2.29184)
(9.9825 0 0.110625)
(9.99302 0 0.0783607)
(9.94771 0 0.182323)
(9.96954 0 0.155036)
(9.89523 0 0.253815)
(9.92722 0 0.230884)
(9.82524 0 0.326764)
(9.86697 0 0.307506)
(9.73813 0 0.402552)
(9.78978 0 0.386519)
(9.63403 0 0.48223)
(9.69606 0 0.469144)
(9.51286 0 0.566754)
(9.58579 0 0.556393)
(9.37438 0 0.657089)
(9.4588 0 0.649267)
(9.21828 0 0.754209)
(9.31481 0 0.748783)
(9.04414 0 0.859081)
(9.15347 0 0.855958)
(8.85145 0 0.972659)
(8.97434 0 0.971797)
(8.63963 0 1.09588)
(8.77691 0 1.09729)
(8.40803 0 1.22964)
(8.56058 0 1.23341)
(8.15595 0 1.37475)
(8.3247 0 1.38107)
(7.88264 0 1.53187)
(8.06853 0 1.54108)
(7.58727 0 1.70138)
(7.79125 0 1.71405)
(7.2689 0 1.8833)
(7.49196 0 1.90031)
(6.92642 0 2.07698)
(7.16954 0 2.09971)
(6.55851 0 2.28086)
(6.82266 0 2.3114)
(6.16347 0 2.49206)
(6.44959 0 2.5335)
(5.73913 0 2.70584)
(6.0481 0 2.76265)
(5.28273 0 2.91499)
(5.61525 0 2.99347)
(4.79084 0 3.10916)
(5.14725 0 3.21785)
(4.2593 0 3.2742)
(4.63939 0 3.42428)
(3.6834 0 3.39186)
(4.08606 0 3.59715)
(3.05806 0 3.43969)
(3.48132 0 3.71654)
(2.37774 0 3.3918)
(2.81837 0 3.75813)
(1.63791 0 3.22618)
(2.09916 0 3.69399)
(0.839134 0 2.90086)
(1.27893 0 3.50449)
(0.573362 0 3.11372)
(9.98273 0 0.12358)
(9.99316 0 0.0868166)
(9.94873 0 0.204307)
(9.97027 0 0.172091)
(9.89794 0 0.285249)
(9.92927 0 0.256973)
(9.83051 0 0.367962)
(9.87124 0 0.342985)
(9.74671 0 0.453848)
(9.79715 0 0.431674)
(9.64668 0 0.544073)
(9.70735 0 0.524347)
(9.53038 0 0.639703)
(9.60181 0 0.622131)
(9.39763 0 0.741795)
(9.48039 0 0.726121)
(9.24813 0 0.85141)
(9.34286 0 0.83742)
(9.08153 0 0.969602)
(9.18894 0 0.957127)
(8.89737 0 1.09742)
(9.01825 0 1.08634)
(8.6951 0 1.23588)
(8.8303 0 1.22613)
(8.47413 0 1.38598)
(8.62455 0 1.37758)
(8.23377 0 1.54863)
(8.40037 0 1.54168)
(7.97323 0 1.7246)
(8.15702 0 1.71938)
(7.69161 0 1.91445)
(7.89364 0 1.91143)
(7.38786 0 2.11835)
(7.6092 0 2.11836)
(7.06062 0 2.33597)
(7.30242 0 2.34029)
(6.70821 0 2.56613)
(6.97165 0 2.57676)
(6.32837 0 2.80649)
(6.61472 0 2.82644)
(5.91811 0 3.05305)
(6.22872 0 3.08671)
(5.47346 0 3.29953)
(5.80975 0 3.35318)
(4.98932 0 3.53666)
(5.35266 0 3.61899)
(4.45935 0 3.75142)
(4.85089 0 3.874)
(3.87623 0 3.92647)
(4.29643 0 4.10394)
(3.23234 0 4.03986)
(3.68056 0 4.28969)
(2.52084 0 4.06499)
(2.99352 0 4.40678)
(1.73838 0 3.97614)
(2.23739 0 4.42459)
(0.889476 0 3.71877)
(1.36336 0 4.3163)
(0.598755 0 3.98491)
(9.98321 0 0.136202)
(9.99339 0 0.0950394)
(9.95032 0 0.22557)
(9.97131 0 0.188587)
(9.90151 0 0.315493)
(9.93193 0 0.282046)
(9.83694 0 0.407499)
(9.87643 0 0.376956)
(9.75684 0 0.503008)
(9.80579 0 0.474836)
(9.66135 0 0.603272)
(9.7203 0 0.577045)
(9.55046 0 0.709454)
(9.61996 0 0.684809)
(9.42404 0 0.822695)
(9.50465 0 0.79931)
(9.28184 0 0.94414)
(9.37423 0 0.921728)
(9.12356 0 1.07493)
(9.22844 0 1.05324)
(8.9488 0 1.21619)
(9.06696 0 1.19503)
(8.75706 0 1.36904)
(8.88939 0 1.34827)
(8.54777 0 1.53458)
(8.69521 0 1.51411)
(8.32025 0 1.71384)
(8.48383 0 1.6937)
(8.07371 0 1.90774)
(8.25451 0 1.8881)
(7.80714 0 2.11702)
(8.00637 0 2.09826)
(7.51933 0 2.34216)
(7.73826 0 2.32497)
(7.20869 0 2.58315)
(7.44874 0 2.56868)
(6.87311 0 2.83939)
(7.13586 0 2.82945)
(6.50978 0 3.10927)
(6.79702 0 3.10664)
(6.11489 0 3.38981)
(6.42869 0 3.39862)
(5.68333 0 3.67603)
(6.02606 0 3.7023)
(5.2084 0 3.96021)
(5.5827 0 4.01249)
(4.68167 0 4.23099)
(5.09023 0 4.32097)
(4.0932 0 4.47232)
(4.53818 0 4.61539)
(3.43243 0 4.66254)
(3.9146 0 4.87787)
(2.69005 0 4.77315)
(3.20559 0 5.08358)
(1.86179 0 4.77239)
(2.4112 0 5.19795)
(0.954148 0 4.58971)
(1.47622 0 5.18429)
(0.639166 0 4.91943)
(9.98386 0 0.148367)
(9.99368 0 0.102943)
(9.95235 0 0.245968)
(9.9726 0 0.204392)
(9.90579 0 0.344396)
(9.9351 0 0.305967)
(9.84437 0 0.445194)
(9.88241 0 0.409266)
(9.76833 0 0.549806)
(9.81552 0 0.515812)
(9.6778 0 0.659554)
(9.73471 0 0.627006)
(9.57282 0 0.775682)
(9.63999 0 0.744152)
(9.45328 0 0.899411)
(9.5313 0 0.86851)
(9.31902 0 1.03196)
(9.40854 0 1.00133)
(9.16979 0 1.17455)
(9.27152 0 1.14387)
(9.00523 0 1.32839)
(9.12 0 1.29738)
(8.82493 0 1.49471)
(8.95362 0 1.46312)
(8.62835 0 1.6747)
(8.77195 0 1.64236)
(8.41485 0 1.86954)
(8.57443 0 1.83636)
(8.18362 0 2.08033)
(8.36038 0 2.04634)
(7.93361 0 2.30805)
(8.1289 0 2.27349)
(7.66348 0 2.5535)
(7.87881 0 2.51888)
(7.37144 0 2.81718)
(7.60855 0 2.7834)
(7.05506 0 3.09912)
(7.31598 0 3.06769)
(6.71102 0 3.39865)
(6.9982 0 3.37196)
(6.3348 0 3.71408)
(6.65119 0 3.69578)
(5.92025 0 4.0421)
(6.2694 0 4.03767)
(5.45916 0 4.37707)
(5.84529 0 4.39452)
(4.94093 0 4.70989)
(5.36876 0 4.76073)
(4.35257 0 5.02653)
(4.82665 0 5.12674)
(3.67943 0 5.30617)
(4.20301 0 5.47705)
(2.90736 0 5.51815)
(3.47773 0 5.78745)
(2.02754 0 5.62296)
(2.64488 0 6.01946)
(1.04504 0 5.5294)
(1.6376 0 6.12386)
(0.704416 0 5.94298)
(9.98465 0 0.15998)
(9.99402 0 0.110461)
(9.95473 0 0.265379)
(9.97409 0 0.219398)
(9.91065 0 0.371817)
(9.93868 0 0.328609)
(9.85267 0 0.48088)
(9.88905 0 0.439772)
(9.781 0 0.59404)
(9.82619 0 0.554429)
(9.69581 0 0.712676)
(9.75038 0 0.67402)
(9.59717 0 0.838102)
(9.66167 0 0.799911)
(9.48503 0 0.97161)
(9.56003 0 0.933429)
(9.35928 0 1.11449)
(9.44544 0 1.07589)
(9.21974 0 1.26802)
(9.31777 0 1.2286)
(9.06613 0 1.43351)
(9.17685 0 1.39291)
(8.89811 0 1.61227)
(9.02241 0 1.57014)
(8.71522 0 1.80563)
(8.85411 0 1.76168)
(8.51686 0 2.01489)
(8.67146 0 1.9689)
(8.30226 0 2.24136)
(8.47385 0 2.1932)
(8.0704 0 2.4863)
(8.26045 0 2.436)
(7.81989 0 2.7509)
(8.03012 0 2.6987)
(7.54884 0 3.03619)
(7.7813 0 2.98268)
(7.25464 0 3.34298)
(7.51183 0 3.28922)
(6.93368 0 3.67171)
(7.21868 0 3.61949)
(6.58093 0 4.02218)
(6.89763 0 3.97441)
(6.18946 0 4.39316)
(6.54272 0 4.35436)
(5.74976 0 4.78164)
(6.14569 0 4.75884)
(5.24908 0 5.18176)
(5.69504 0 5.18559)
(4.67088 0 5.58283)
(5.17502 0 5.62926)
(3.99482 0 5.96656)
(4.565 0 6.07884)
(3.19831 0 6.3017)
(3.8362 0 6.5136)
(2.26166 0 6.54062)
(2.97068 0 6.89402)
(1.18053 0 6.565)
(1.879 0 7.15775)
(0.812731 0 7.09924)
(9.98553 0 0.170962)
(9.9944 0 0.117545)
(9.95739 0 0.283696)
(9.97572 0 0.233517)
(9.91601 0 0.397632)
(9.94258 0 0.349866)
(9.86169 0 0.514407)
(9.89624 0 0.468347)
(9.79469 0 0.63553)
(9.83765 0 0.590535)
(9.71517 0 0.762423)
(9.76713 0 0.717904)
(9.62325 0 0.896461)
(9.68476 0 0.851869)
(9.51895 0 1.03899)
(9.59056 0 0.993811)
(9.40222 0 1.19137)
(9.48457 0 1.1451)
(9.27294 0 1.35494)
(9.36674 0 1.30711)
(9.13095 0 1.53108)
(9.23699 0 1.48122)
(8.97597 0 1.72118)
(9.09515 0 1.66887)
(8.80764 0 1.92669)
(8.94097 0 1.87149)
(8.62547 0 2.14907)
(8.77409 0 2.09062)
(8.42878 0 2.38983)
(8.59401 0 2.32781)
(8.21662 0 2.65051)
(8.40003 0 2.5847)
(7.9877 0 2.93271)
(8.19115 0 2.86304)
(7.74018 0 3.23805)
(7.96595 0 3.16465)
(7.47149 0 3.56817)
(7.72244 0 3.49154)
(7.17799 0 3.9247)
(7.45776 0 3.84584)
(6.85455 0 4.30914)
(7.16784 0 4.22988)
(6.49389 0 4.72265)
(6.84687 0 4.64612)
(6.08574 0 5.16554)
(6.4865 0 5.097)
(5.61566 0 5.63632)
(6.07471 0 5.58449)
(5.06357 0 6.12983)
(5.59402 0 6.10909)
(4.40216 0 6.63377)
(5.01955 0 6.66758)
(3.59603 0 7.12116)
(4.31245 0 7.24852)
(2.6042 0 7.54052)
(3.43552 0 7.82012)
(1.3942 0 7.74026)
(2.25629 0 8.31488)
(1.00251 0 8.46478)
(9.9865 0 0.18125)
(9.9948 0 0.124155)
(9.96027 0 0.300829)
(9.97747 0 0.246677)
(9.92177 0 0.421729)
(9.94676 0 0.369643)
(9.87134 0 0.545645)
(9.90388 0 0.49488)
(9.80924 0 0.674116)
(9.84977 0 0.623998)
(9.73568 0 0.808606)
(9.78479 0 0.758499)
(9.65081 0 0.950536)
(9.70903 0 0.899838)
(9.55472 0 1.1013)
(9.62259 0 1.04944)
(9.44743 0 1.2623)
(9.52556 0 1.20871)
(9.32892 0 1.43494)
(9.418 0 1.37907)
(9.19909 0 1.62066)
(9.29989 0 1.56197)
(9.05781 0 1.82093)
(9.1712 0 1.75886)
(8.90481 0 2.03729)
(9.03178 0 1.97131)
(8.73976 0 2.27134)
(8.88143 0 2.2009)
(8.56211 0 2.52478)
(8.71982 0 2.44938)
(8.37111 0 2.79944)
(8.54643 0 2.71857)
(8.16566 0 3.09729)
(8.36051 0 3.01052)
(7.94415 0 3.42053)
(8.16095 0 3.32751)
(7.70432 0 3.77163)
(7.9461 0 3.67214)
(7.44286 0 4.15341)
(7.71361 0 4.04748)
(7.15503 0 4.56912)
(7.46002 0 4.45723)
(6.83396 0 5.0225)
(7.18032 0 4.90586)
(6.46958 0 5.51766)
(6.86711 0 5.39891)
(6.04702 0 6.05875)
(6.50934 0 5.94307)
(5.54405 0 6.64877)
(6.09004 0 6.54624)
(4.92702 0 7.28701)
(5.58308 0 7.21682)
(4.14489 0 7.96139)
(4.9424 0 7.96156)
(3.1216 0 8.63344)
(4.10911 0 8.77558)
(1.7561 0 9.12757)
(2.8782 0 9.62071)
(1.36455 0 10.1848)
(9.98754 0 0.190797)
(9.99523 0 0.130259)
(9.96332 0 0.316703)
(9.97932 0 0.258821)
(9.92785 0 0.444017)
(9.95115 0 0.387863)
(9.88148 0 0.574483)
(9.91188 0 0.519279)
(9.82449 0 0.709672)
(9.86243 0 0.654707)
(9.75713 0 0.851078)
(9.80318 0 0.795675)
(9.67959 0 1.00016)
(9.73426 0 0.943666)
(9.59201 0 1.15834)
(9.65583 0 1.10013)
(9.49452 0 1.32706)
(9.56806 0 1.26652)
(9.38716 0 1.50777)
(9.47108 0 1.44427)
(9.26997 0 1.70195)
(9.365 0 1.63485)
(9.1429 0 1.91113)
(9.24987 0 1.8398)
(9.00588 0 2.13694)
(9.12573 0 2.0607)
(8.85872 0 2.38108)
(8.99252 0 2.29924)
(8.70109 0 2.64542)
(8.85012 0 2.55725)
(8.53248 0 2.93202)
(8.69829 0 2.83674)
(8.35213 0 3.24318)
(8.53658 0 3.13999)
(8.15886 0 3.5816)
(8.36432 0 3.4696)
(7.95093 0 3.95046)
(8.18044 0 3.82871)
(7.72579 0 4.35364)
(7.98335 0 4.22111)
(7.4797 0 4.79601)
(7.77069 0 4.65161)
(7.20709 0 5.28374)
(7.53896 0 5.1264)
(6.89957 0 5.82482)
(7.28292 0 5.6537)
(6.54419 0 6.42961)
(6.99459 0 6.24464)
(6.12019 0 7.1115)
(6.66124 0 6.91474)
(5.59284 0 7.88765)
(6.26229 0 7.68624)
(4.90062 0 8.77787)
(5.7573 0 8.59263)
(3.92655 0 9.80138)
(5.08697 0 9.68509)
(2.43292 0 10.8563)
(3.97903 0 11.0491)
(2.14586 0 12.5677)
(9.98862 0 0.199561)
(9.99567 0 0.135834)
(9.96652 0 0.331258)
(9.98124 0 0.269903)
(9.9342 0 0.464413)
(9.9557 0 0.404467)
(9.89202 0 0.600815)
(9.92017 0 0.54147)
(9.8403 0 0.742059)
(9.87552 0 0.682575)
(9.77932 0 0.889661)
(9.82216 0 0.82933)
(9.70932 0 1.0451)
(9.76028 0 0.983234)
(9.63051 0 1.20984)
(9.6901 0 1.14576)
(9.54308 0 1.38533)
(9.61186 0 1.31836)
(9.44718 0 1.57305)
(9.52578 0 1.5025)
(9.34296 0 1.7745)
(9.43207 0 1.69967)
(9.23052 0 1.99126)
(9.33093 0 1.91142)
(9.10995 0 2.22501)
(9.22253 0 2.13936)
(8.98126 0 2.47753)
(9.10704 0 2.38523)
(8.84438 0 2.7508)
(8.98456 0 2.65092)
(8.69913 0 3.04704)
(8.85516 0 2.93855)
(8.54516 0 3.3688)
(8.71879 0 3.25052)
(8.38186 0 3.71913)
(8.57529 0 3.58966)
(8.20828 0 4.10172)
(8.42434 0 3.95941)
(8.02296 0 4.52124)
(8.26535 0 4.36403)
(7.82372 0 4.98374)
(8.09741 0 4.80899)
(7.60725 0 5.49725)
(7.91917 0 5.30152)
(7.36853 0 6.07283)
(7.72864 0 5.85148)
(7.09964 0 6.72613)
(7.52294 0 6.47282)
(6.78741 0 7.48034)
(7.29784 0 7.1861)
(6.40829 0 8.37219)
(7.04786 0 8.02371)
(5.91524 0 9.4661)
(6.76276 0 9.04213)
(5.19565 0 10.9083)
(6.46155 0 10.357)
(3.88391 0 13.1783)
(6.18906 0 12.3035)
(5.25771 0 16.3717)
(0.182275 0 -0.108097)
(0.106909 0 -0.178527)
(0.355661 0 -0.091817)
(0.260395 0 -0.16581)
(0.497834 0 -0.0700579)
(0.412372 0 -0.132749)
(0.608727 0 -0.0509322)
(0.539819 0 -0.101097)
(0.693396 0 -0.0357844)
(0.639435 0 -0.0753667)
(0.757232 0 -0.0242399)
(0.716144 0 -0.055481)
(0.804907 0 -0.0156401)
(0.775624 0 -0.0404563)
(0.840307 0 -0.00937791)
(0.822354 0 -0.0293304)
(0.866597 0 -0.00493555)
(0.859648 0 -0.0212677)
(0.886291 0 -0.00188516)
(0.890021 0 -0.0155559)
(0.901361 0 0.00011215)
(0.915414 0 -0.0116223)
(0.913351 0 0.00131973)
(0.937328 0 -0.00902825)
(0.923465 0 0.00194635)
(0.956921 0 -0.00743545)
(0.93262 0 0.00216569)
(0.975078 0 -0.00657197)
(0.94147 0 0.00213145)
(0.992462 0 -0.00620288)
(0.950394 0 0.00198807)
(1.00953 0 -0.00610764)
(0.959477 0 0.00187522)
(1.02653 0 -0.00606911)
(0.968491 0 0.00192164)
(1.04348 0 -0.00588032)
(0.976921 0 0.00222562)
(1.06018 0 -0.00536978)
(0.984058 0 0.00282775)
(1.0762 0 -0.00443893)
(0.98916 0 0.00368696)
(1.09103 0 -0.00309828)
(0.991676 0 0.00465617)
(1.10412 0 -0.0014914)
(0.991576 0 0.00548026)
(1.11508 0 5.74856e-05)
(0.988791 0 0.00606807)
(1.12374 0 0.00157458)
(0.983656 0 0.00652378)
(1.13011 0 0.00283389)
(0.976225 0 0.00690546)
(1.13433 0 0.00400393)
(0.966509 0 0.0072195)
(1.13649 0 0.00511195)
(0.954437 0 0.00733908)
(1.13627 0 0.00620111)
(0.940711 0 0.00655203)
(1.13352 0 0.00688464)
(1.12868 0 0.0053871)
(0.169328 0 -0.259718)
(0.0896741 0 -0.344374)
(0.330913 0 -0.226799)
(0.231477 0 -0.320334)
(0.465957 0 -0.179307)
(0.36367 0 -0.258843)
(0.574857 0 -0.137044)
(0.47532 0 -0.200378)
(0.662421 0 -0.103472)
(0.564105 0 -0.15331)
(0.733385 0 -0.0778054)
(0.634844 0 -0.117157)
(0.79164 0 -0.0585726)
(0.692255 0 -0.0898904)
(0.840296 0 -0.0444183)
(0.739834 0 -0.0696441)
(0.881803 0 -0.0341894)
(0.780138 0 -0.0548459)
(0.918045 0 -0.0269387)
(0.815085 0 -0.0441821)
(0.950456 0 -0.0219267)
(0.84611 0 -0.0366177)
(0.980128 0 -0.0185899)
(0.874294 0 -0.0313717)
(1.0079 0 -0.0164913)
(0.900453 0 -0.0278525)
(1.0344 0 -0.0152763)
(0.925206 0 -0.0255975)
(1.06011 0 -0.014637)
(0.949023 0 -0.0242241)
(1.08537 0 -0.0142857)
(0.97225 0 -0.0233881)
(1.11034 0 -0.0139436)
(0.995121 0 -0.0227588)
(1.13508 0 -0.0133534)
(1.01776 0 -0.0220184)
(1.15945 0 -0.0123155)
(1.04015 0 -0.0208927)
(1.18319 0 -0.010738)
(1.06217 0 -0.0192063)
(1.20598 0 -0.00867415)
(1.08356 0 -0.0169354)
(1.22746 0 -0.00633062)
(1.10405 0 -0.0142264)
(1.24712 0 -0.00399359)
(1.12335 0 -0.0113261)
(1.26486 0 -0.00181725)
(1.14113 0 -0.00844963)
(1.28061 0 0.000223483)
(1.15746 0 -0.00585833)
(1.29446 0 0.00224566)
(1.17249 0 -0.00345976)
(1.30616 0 0.00431088)
(1.18635 0 -0.00104537)
(1.31519 0 0.00608767)
(1.19913 0 0.00156119)
(1.32168 0 0.00641561)
(1.21046 0 0.00363256)
(1.22166 0 0.00364103)
(0.143234 0 -0.411417)
(0.0701153 0 -0.484663)
(0.274757 0 -0.35929)
(0.188612 0 -0.44611)
(0.382202 0 -0.286364)
(0.287654 0 -0.359166)
(0.467854 0 -0.222135)
(0.371013 0 -0.278464)
(0.536647 0 -0.171434)
(0.435736 0 -0.214545)
(0.59269 0 -0.132725)
(0.487218 0 -0.165864)
(0.639112 0 -0.103645)
(0.529127 0 -0.129283)
(0.678315 0 -0.0821114)
(0.563875 0 -0.102126)
(0.712161 0 -0.066379)
(0.593272 0 -0.082226)
(0.742037 0 -0.0550235)
(0.618718 0 -0.0677806)
(0.768987 0 -0.0469435)
(0.641207 0 -0.0574014)
(0.793797 0 -0.0413077)
(0.661465 0 -0.0500536)
(0.817064 0 -0.037482)
(0.680039 0 -0.0449591)
(0.839244 0 -0.0349642)
(0.697351 0 -0.0415193)
(0.860685 0 -0.0333303)
(0.713724 0 -0.0392519)
(0.881647 0 -0.0321915)
(0.729419 0 -0.0377332)
(0.9023 0 -0.0311753)
(0.744637 0 -0.0365585)
(0.922709 0 -0.0299384)
(0.759525 0 -0.0353335)
(0.94283 0 -0.0282142)
(0.774154 0 -0.0337091)
(0.962517 0 -0.0258731)
(0.788507 0 -0.0314507)
(0.981568 0 -0.0229645)
(0.802472 0 -0.0285039)
(0.999774 0 -0.019697)
(0.815869 0 -0.0250212)
(1.01703 0 -0.0163284)
(0.828501 0 -0.0213141)
(1.03341 0 -0.0130977)
(0.840263 0 -0.0177123)
(1.04903 0 -0.0101162)
(0.85119 0 -0.0144749)
(1.06417 0 -0.00724115)
(0.86147 0 -0.011621)
(1.07921 0 -0.00428325)
(0.87138 0 -0.0089577)
(1.09434 0 -0.00141241)
(0.881469 0 -0.00621087)
(1.10866 0 0.000785573)
(0.891517 0 -0.00355009)
(0.902598 0 -0.00116399)
(0.114101 0 -0.528737)
(0.0501639 0 -0.596417)
(0.210075 0 -0.455732)
(0.139792 0 -0.537892)
(0.284083 0 -0.360809)
(0.199579 0 -0.428268)
(0.341252 0 -0.27951)
(0.251393 0 -0.330583)
(0.386425 0 -0.216398)
(0.288057 0 -0.254756)
(0.422865 0 -0.168622)
(0.316513 0 -0.197534)
(0.452733 0 -0.132855)
(0.33899 0 -0.154629)
(0.477572 0 -0.106373)
(0.356739 0 -0.122706)
(0.498651 0 -0.0869654)
(0.370825 0 -0.0992787)
(0.516838 0 -0.0728615)
(0.382176 0 -0.0821456)
(0.532767 0 -0.0627129)
(0.391385 0 -0.0696862)
(0.546921 0 -0.0555088)
(0.398858 0 -0.0607109)
(0.559665 0 -0.0504835)
(0.404915 0 -0.0543291)
(0.571291 0 -0.0470418)
(0.409812 0 -0.0498652)
(0.582045 0 -0.0446913)
(0.413762 0 -0.0467894)
(0.592143 0 -0.0429872)
(0.416969 0 -0.0446436)
(0.601767 0 -0.0415024)
(0.419641 0 -0.0429889)
(0.611043 0 -0.0398372)
(0.421991 0 -0.0413849)
(0.620018 0 -0.0376711)
(0.424199 0 -0.0394261)
(0.628659 0 -0.034833)
(0.426369 0 -0.0368251)
(0.636866 0 -0.0313514)
(0.428488 0 -0.0334877)
(0.644491 0 -0.027455)
(0.430416 0 -0.029542)
(0.651423 0 -0.0234876)
(0.431877 0 -0.0253269)
(0.657676 0 -0.0197851)
(0.432587 0 -0.0212469)
(0.663303 0 -0.0165497)
(0.432428 0 -0.0175806)
(0.668599 0 -0.0137205)
(0.431291 0 -0.0144746)
(0.673686 0 -0.0110875)
(0.429426 0 -0.011634)
(0.678608 0 -0.00871287)
(0.427723 0 -0.00873942)
(0.68344 0 -0.00612478)
(0.424954 0 -0.00597351)
(0.419063 0 -0.00251885)
(0.079964 0 -0.61332)
(0.0289273 0 -0.674737)
(0.136343 0 -0.51847)
(0.0843705 0 -0.591807)
(0.173723 0 -0.405772)
(0.100417 0 -0.463171)
(0.199707 0 -0.312683)
(0.119119 0 -0.354272)
(0.218413 0 -0.241683)
(0.12509 0 -0.271407)
(0.232127 0 -0.188329)
(0.127723 0 -0.209453)
(0.242023 0 -0.148422)
(0.127371 0 -0.163027)
(0.248772 0 -0.118836)
(0.124475 0 -0.128298)
(0.253165 0 -0.0970294)
(0.119576 0 -0.102833)
(0.255638 0 -0.0809756)
(0.113159 0 -0.0840986)
(0.256503 0 -0.0692247)
(0.105561 0 -0.0703531)
(0.256012 0 -0.0606914)
(0.0970321 0 -0.0603414)
(0.254366 0 -0.0545568)
(0.087779 0 -0.0531191)
(0.251742 0 -0.0501968)
(0.0779738 0 -0.0479815)
(0.248334 0 -0.0471108)
(0.0677732 0 -0.0444004)
(0.244364 0 -0.0448533)
(0.0573562 0 -0.0419268)
(0.240069 0 -0.0429868)
(0.0469417 0 -0.0401194)
(0.235654 0 -0.041075)
(0.0367607 0 -0.0385043)
(0.231241 0 -0.0387329)
(0.0269803 0 -0.0366151)
(0.226856 0 -0.0357114)
(0.0176433 0 -0.0340976)
(0.222416 0 -0.0319664)
(0.00864688 0 -0.030792)
(0.21773 0 -0.0277002)
(-0.000244047 0 -0.0267636)
(0.212594 0 -0.0233145)
(-0.00936111 0 -0.0223536)
(0.206837 0 -0.0192088)
(-0.0190287 0 -0.0179925)
(0.200096 0 -0.0156658)
(-0.0293812 0 -0.0138607)
(0.19241 0 -0.0127741)
(-0.0407159 0 -0.0103328)
(0.183835 0 -0.00976057)
(-0.0541522 0 -0.00712266)
(0.173055 0 -0.00571777)
(-0.0681991 0 -0.00320171)
(0.159116 0 -0.00160421)
(-0.0802739 0 0.00101797)
(-0.0926201 0 0.00267122)
(0.0405303 0 -0.660305)
(0.00525074 0 -0.714434)
(0.0533315 0 -0.543425)
(0.0210264 0 -0.604049)
(0.0520532 0 -0.417311)
(-0.00867917 0 -0.461977)
(0.0454426 0 -0.317046)
(-0.0254332 0 -0.348245)
(0.0351154 0 -0.241658)
(-0.0519952 0 -0.262214)
(0.0228366 0 -0.185428)
(-0.0781642 0 -0.198781)
(0.00921823 0 -0.143181)
(-0.104381 0 -0.15147)
(-0.00569856 0 -0.1119)
(-0.130331 0 -0.115939)
(-0.0215989 0 -0.0891963)
(-0.155972 0 -0.0899702)
(-0.0381166 0 -0.0725925)
(-0.181162 0 -0.0710519)
(-0.05504 0 -0.0604539)
(-0.205661 0 -0.0573016)
(-0.0721859 0 -0.051663)
(-0.229291 0 -0.0474306)
(-0.0894049 0 -0.0453864)
(-0.251975 0 -0.0404595)
(-0.106566 0 -0.0410127)
(-0.273712 0 -0.0356628)
(-0.123496 0 -0.0380696)
(-0.294557 0 -0.0325337)
(-0.139991 0 -0.0361176)
(-0.314535 0 -0.0306389)
(-0.15586 0 -0.0346784)
(-0.333622 0 -0.0295159)
(-0.171013 0 -0.0332315)
(-0.351784 0 -0.0286188)
(-0.185513 0 -0.0313078)
(-0.369071 0 -0.0273784)
(-0.199563 0 -0.0286215)
(-0.38566 0 -0.0253599)
(-0.213412 0 -0.0251321)
(-0.40184 0 -0.0223816)
(-0.22733 0 -0.0210724)
(-0.417944 0 -0.0185114)
(-0.241459 0 -0.016869)
(-0.434245 0 -0.0141746)
(-0.255706 0 -0.0126907)
(-0.450999 0 -0.00993934)
(-0.270417 0 -0.00830157)
(-0.468205 0 -0.00574221)
(-0.287078 0 -0.00378929)
(-0.484304 0 -0.00135479)
(-0.305623 0 0.000401761)
(-0.499712 0 0.00263416)
(-0.32243 0 0.00375197)
(-0.514616 0 0.00543212)
(-0.333526 0 0.00497182)
(-0.525967 0 0.00658347)
(-0.531922 0 0.00603679)
(-0.00725374 0 -0.663095)
(-0.0233769 0 -0.70733)
(-0.0389856 0 -0.525858)
(-0.0522953 0 -0.573703)
(-0.0794908 0 -0.392496)
(-0.127336 0 -0.424157)
(-0.121712 0 -0.290719)
(-0.183059 0 -0.309753)
(-0.164072 0 -0.215534)
(-0.243073 0 -0.224509)
(-0.205188 0 -0.160588)
(-0.299332 0 -0.163046)
(-0.244329 0 -0.119965)
(-0.351337 0 -0.118256)
(-0.281313 0 -0.0899859)
(-0.398677 0 -0.0852953)
(-0.316449 0 -0.0682228)
(-0.441905 0 -0.0615464)
(-0.349652 0 -0.0526588)
(-0.481556 0 -0.0448258)
(-0.380784 0 -0.0416884)
(-0.517906 0 -0.0332921)
(-0.409805 0 -0.0341094)
(-0.551265 0 -0.025578)
(-0.436815 0 -0.0290078)
(-0.582025 0 -0.0206018)
(-0.462042 0 -0.025749)
(-0.610204 0 -0.0175533)
(-0.485703 0 -0.0238809)
(-0.636282 0 -0.0159496)
(-0.507987 0 -0.0229732)
(-0.660711 0 -0.0153896)
(-0.529044 0 -0.0225347)
(-0.683821 0 -0.0154459)
(-0.549055 0 -0.0219988)
(-0.705809 0 -0.0155635)
(-0.568295 0 -0.0208278)
(-0.72679 0 -0.015123)
(-0.587106 0 -0.0186511)
(-0.747095 0 -0.0136605)
(-0.605785 0 -0.0153293)
(-0.767242 0 -0.0110386)
(-0.624638 0 -0.0110396)
(-0.787481 0 -0.00733342)
(-0.643979 0 -0.0063573)
(-0.807174 0 -0.00297779)
(-0.663706 0 -0.00198579)
(-0.825678 0 0.0012112)
(-0.68211 0 0.00176714)
(-0.842649 0 0.00441465)
(-0.696965 0 0.00490373)
(-0.857266 0 0.00665014)
(-0.70834 0 0.00719685)
(-0.868899 0 0.00861835)
(-0.717759 0 0.0082913)
(-0.878668 0 0.0102707)
(-0.726057 0 0.0080943)
(-0.887092 0 0.0107457)
(-0.891793 0 0.00985318)
(-0.0575668 0 -0.61675)
(-0.0594463 0 -0.650946)
(-0.139843 0 -0.467266)
(-0.137117 0 -0.495022)
(-0.222532 0 -0.3349)
(-0.260278 0 -0.346948)
(-0.302392 0 -0.236515)
(-0.358246 0 -0.236948)
(-0.377082 0 -0.165731)
(-0.451948 0 -0.158025)
(-0.445219 0 -0.115866)
(-0.537325 0 -0.103828)
(-0.505996 0 -0.0802504)
(-0.613746 0 -0.0666816)
(-0.559821 0 -0.0545095)
(-0.680463 0 -0.0406991)
(-0.607604 0 -0.0362761)
(-0.736562 0 -0.0228913)
(-0.650314 0 -0.0238398)
(-0.784372 0 -0.0110907)
(-0.688796 0 -0.0157144)
(-0.825587 0 -0.00361379)
(-0.723775 0 -0.0107444)
(-0.861644 0 0.000760695)
(-0.755537 0 -0.00805711)
(-0.89374 0 0.00275019)
(-0.784465 0 -0.00693865)
(-0.922784 0 0.00321226)
(-0.811191 0 -0.00683335)
(-0.949583 0 0.00278241)
(-0.836315 0 -0.00733945)
(-0.974757 0 0.00180416)
(-0.860215 0 -0.00801578)
(-0.99866 0 0.000523152)
(-0.88304 0 -0.00828109)
(-1.02141 0 -0.000672179)
(-0.90502 0 -0.00752819)
(-1.04306 0 -0.00112202)
(-0.926709 0 -0.00545066)
(-1.06375 0 -0.000171292)
(-0.948469 0 -0.00229527)
(-1.08371 0 0.00217507)
(-0.969645 0 0.00131456)
(-1.10307 0 0.0052222)
(-0.988741 0 0.00471304)
(-1.12141 0 0.00807711)
(-1.00469 0 0.00735967)
(-1.13787 0 0.0102285)
(-1.01787 0 0.00919277)
(-1.15177 0 0.011688)
(-1.02918 0 0.0106694)
(-1.16371 0 0.0127412)
(-1.0389 0 0.0119925)
(-1.17395 0 0.0137338)
(-1.04726 0 0.0126501)
(-1.18293 0 0.0145652)
(-1.05484 0 0.0122539)
(-1.19034 0 0.0145453)