/*--------------------------------*- C++ -*----------------------------------*\
  =========                 |
  \\      /  F ield         | OpenFOAM: The Open Source CFD Toolbox
   \\    /   O peration     | Website:  https://openfoam.org
    \\  /    A nd           | Version:  dev
     \\/     M anipulation  |
\*---------------------------------------------------------------------------*/
FoamFile
{
    version     2.0;
    format      ascii;
    class       surfaceScalarField;
    location    "1.1";
    object      phi;
}
// * * * * * * * * * * * * * * * * * * * * * * * * * * * * * * * * * * * * * //

dimensions      [0 3 -1 0 0 0 0];

internalField   nonuniform List<scalar> 
5457
(
0.1984
0.00160004
0.196428
0.00197204
0.194088
0.00233945
0.191338
0.00275081
0.188174
0.00316336
0.184602
0.00357275
0.180615
0.00398701
0.176201
0.0044133
0.171345
0.0048565
0.166024
0.00532034
0.160216
0.00580804
0.153894
0.00632222
0.147029
0.00686474
0.139593
0.00743629
0.131557
0.00803587
0.122897
0.00866015
0.113595
0.00930255
0.103642
0.00995219
0.0930496
0.0105927
0.0818484
0.0112012
0.0701015
0.011747
0.0579098
0.0121917
0.0454193
0.0124905
0.0328197
0.0125996
0.0203044
0.0125153
0.00786104
0.0124434
-0.00349824
0.0113593
-0.00858475
0.00508651
-0.00794028
-0.000644472
-0.00794028
0.19991
0.00168961
0.199123
0.0027596
0.19786
0.00360229
0.196159
0.00445201
0.194016
0.0053066
0.191428
0.00616007
0.188391
0.00702396
0.184893
0.00791126
0.180918
0.00883178
0.176445
0.00979329
0.171451
0.0108024
0.165908
0.0118649
0.159788
0.0129848
0.15306
0.0141641
0.145695
0.0154016
0.137663
0.0166916
0.128944
0.018022
0.119523
0.0193724
0.109405
0.0207112
0.0986128
0.0219934
0.0872022
0.0231576
0.0752688
0.024125
0.0629613
0.0247981
0.0504997
0.0250611
0.0382402
0.0247748
0.0269714
0.0237122
0.0175534
0.0207773
0.00791461
0.0147253
0.0008156
0.00645454
-0.00712468
0.199763
0.00192641
0.199035
0.00348785
0.197843
0.00479387
0.196241
0.00605471
0.194234
0.00731324
0.191821
0.00857289
0.188998
0.00984708
0.185757
0.0111528
0.182084
0.0125044
0.177964
0.0139135
0.173376
0.0153903
0.168297
0.0169437
0.162701
0.0185803
0.156561
0.0203044
0.149847
0.0221157
0.14253
0.0240083
0.134585
0.0259675
0.12599
0.027967
0.116737
0.0299647
0.106831
0.0318988
0.0963059
0.033683
0.0852292
0.0352018
0.0737215
0.0363057
0.0619809
0.0368018
0.0503242
0.0364314
0.0392123
0.0348241
0.0287384
0.0312512
0.0184828
0.0249809
0.00914832
0.015789
0.00202364
0.199686
0.00224074
0.198956
0.00421753
0.197785
0.00596501
0.196208
0.0076316
0.19424
0.00928164
0.19188
0.0109323
0.189127
0.0125998
0.185976
0.0143039
0.182419
0.0160621
0.178443
0.0178894
0.174034
0.0197987
0.169177
0.021801
0.163852
0.0239053
0.158039
0.0261176
0.151715
0.0284391
0.14486
0.0308643
0.137449
0.0333781
0.129464
0.035952
0.12089
0.0385389
0.111721
0.0410674
0.101968
0.0434356
0.0916669
0.0455034
0.0808879
0.0470847
0.0697519
0.0479378
0.0584314
0.0477519
0.0471187
0.0461368
0.0358445
0.0425254
0.0244984
0.036327
0.012938
0.0273494
0.0149616
0.19965
0.00259074
0.198912
0.0049552
0.19776
0.00711703
0.196212
0.00917944
0.194283
0.011211
0.191975
0.0132408
0.189285
0.0152893
0.186211
0.0173784
0.182745
0.0195281
0.178878
0.0217558
0.174601
0.0240762
0.169899
0.0265021
0.164761
0.0290438
0.159171
0.031708
0.153113
0.0344971
0.146571
0.0374061
0.139528
0.0404205
0.131969
0.0435115
0.123877
0.0466311
0.115239
0.0497053
0.106048
0.0526264
0.0963075
0.0552439
0.0860361
0.0573561
0.075272
0.0587019
0.0640691
0.0589549
0.0524791
0.0577268
0.0404692
0.0545354
0.0278842
0.048912
0.0144686
0.040765
0.0294302
0.199635
0.00295539
0.198897
0.00569372
0.197768
0.00824583
0.196257
0.0106901
0.194376
0.0130921
0.192128
0.0154889
0.189512
0.0179058
0.186523
0.0203667
0.183158
0.0228938
0.179407
0.0255063
0.175263
0.0282207
0.170714
0.0310508
0.16575
0.0340078
0.160359
0.0370994
0.154527
0.0403282
0.148244
0.0436901
0.141493
0.0471714
0.134259
0.0507449
0.126526
0.0543645
0.118272
0.0579589
0.109475
0.061423
0.100111
0.0646087
0.0901514
0.0673155
0.0795704
0.0692829
0.0683381
0.0701871
0.0564166
0.0696483
0.0437197
0.0672322
0.0301128
0.062519
0.0154854
0.0553923
0.0449157
0.199633
0.00332281
0.198902
0.00642424
0.197801
0.00934647
0.196335
0.0121565
0.194511
0.014916
0.192334
0.0176664
0.189802
0.0204376
0.186913
0.0232558
0.183662
0.0261449
0.180042
0.0291261
0.176046
0.0322171
0.171663
0.035433
0.166885
0.0387861
0.1617
0.0422845
0.156096
0.045932
0.150061
0.0497255
0.143579
0.0536531
0.136633
0.0576904
0.129202
0.0617962
0.121255
0.0659057
0.112755
0.069923
0.103652
0.0737119
0.0938819
0.0770853
0.083368
0.0797968
0.0720198
0.0815352
0.0597388
0.0819293
0.0464136
0.0805574
0.0319529
0.0769797
0.0163617
0.0709835
0.0612774
0.199637
0.00368565
0.198922
0.00713894
0.197856
0.0104134
0.19644
0.0135723
0.194681
0.0166742
0.192584
0.0197634
0.190149
0.0228733
0.187372
0.0260326
0.18425
0.0292669
0.180777
0.032599
0.176946
0.0360482
0.172748
0.0396308
0.168174
0.0433601
0.163213
0.0472457
0.157852
0.0512926
0.152078
0.0554998
0.145873
0.0598584
0.139215
0.0643487
0.132074
0.0689364
0.124413
0.0735673
0.116176
0.0781599
0.107291
0.0825967
0.0976629
0.0867133
0.0871727
0.0902871
0.0756808
0.0930271
0.0630409
0.0945693
0.049119
0.0944793
0.0338476
0.0922511
0.0173083
0.0875228
0.0785856
0.199647
0.00403898
0.198954
0.00783138
0.197927
0.0114409
0.196568
0.0149312
0.194883
0.0183591
0.192876
0.0217707
0.190547
0.0252023
0.187894
0.028685
0.184915
0.0322462
0.181604
0.03591
0.177955
0.0396972
0.17396
0.0436256
0.16961
0.0477101
0.164894
0.0519617
0.159799
0.0563876
0.154309
0.0609901
0.148403
0.0657644
0.142054
0.0706975
0.135226
0.0757645
0.127869
0.0809249
0.119912
0.086116
0.111264
0.0912454
0.101798
0.0961792
0.0913567
0.100728
0.0797525
0.104631
0.0667851
0.107537
0.0522769
0.108988
0.0361445
0.108383
0.0185092
0.105158
0.0970948
0.19966
0.00437926
0.198995
0.00849626
0.198012
0.0124236
0.196716
0.016227
0.195112
0.0199633
0.193203
0.0236797
0.190991
0.0274148
0.188474
0.0312019
0.18565
0.03507
0.182515
0.0390447
0.179064
0.0431482
0.17529
0.0473999
0.171184
0.0518162
0.166735
0.0564104
0.16193
0.0611925
0.156751
0.0661686
0.151176
0.0713398
0.145173
0.076701
0.138698
0.0822391
0.131693
0.08793
0.124075
0.0937343
0.11573
0.09959
0.106507
0.105402
0.0962078
0.111027
0.0845893
0.11625
0.0713772
0.120749
0.0563061
0.124059
0.0392111
0.125478
0.0201882
0.124181
0.117283
0.199675
0.0047038
0.199042
0.00912923
0.19811
0.0133566
0.196882
0.0174545
0.195365
0.0214804
0.193562
0.0254827
0.191475
0.029502
0.189103
0.0335733
0.186446
0.0377271
0.183501
0.0419903
0.180262
0.0463866
0.176725
0.050937
0.172882
0.0556596
0.168722
0.0605703
0.164232
0.0656821
0.159395
0.0710057
0.154186
0.0765486
0.148572
0.0823152
0.142506
0.0883055
0.135921
0.0945143
0.128727
0.100928
0.120796
0.107521
0.111952
0.114247
0.101958
0.121021
0.0905076
0.1277
0.077223
0.134033
0.0616856
0.139596
0.0435322
0.143632
0.0226864
0.145027
0.139969
0.199693
0.0050105
0.199096
0.00972673
0.198217
0.0142355
0.197063
0.0186086
0.195639
0.0229046
0.193948
0.027173
0.191994
0.031456
0.189778
0.0357901
0.187298
0.040207
0.184553
0.0447352
0.18154
0.0493994
0.178255
0.054222
0.174691
0.0592232
0.170841
0.064421
0.166691
0.069832
0.162225
0.0754715
0.15742
0.0813538
0.152242
0.0874928
0.146646
0.0939024
0.140563
0.100597
0.1339
0.107591
0.126523
0.114898
0.118243
0.122527
0.108792
0.130472
0.0978001
0.138692
0.0847634
0.14707
0.06903
0.155329
0.0498471
0.162815
0.0266223
0.168252
0.166592
0.199713
0.00529772
0.199154
0.0102858
0.198333
0.0150565
0.197256
0.0196849
0.19593
0.0242307
0.194358
0.0287447
0.192545
0.03327
0.19049
0.0378444
0.188196
0.0425012
0.185662
0.0472693
0.182886
0.0521749
0.179867
0.0572417
0.176599
0.0624913
0.173075
0.0679441
0.169288
0.0736198
0.165221
0.0795379
0.160856
0.0857193
0.156162
0.0921867
0.151097
0.0989669
0.145601
0.106093
0.139586
0.113606
0.132925
0.121559
0.125432
0.13002
0.116834
0.139071
0.10672
0.148806
0.0944732
0.159317
0.0791572
0.170645
0.0593779
0.182594
0.0332839
0.194346
0.199876
0.199734
0.00556414
0.199215
0.010804
0.198455
0.0158167
0.19746
0.0206798
0.196236
0.0254546
0.194788
0.0301926
0.19312
0.0349381
0.191235
0.0397299
0.189134
0.044602
0.186819
0.0495843
0.18429
0.0547038
0.181547
0.059985
0.178587
0.065451
0.175407
0.0711239
0.172001
0.077026
0.168359
0.0831804
0.164465
0.0896131
0.160297
0.0963541
0.155823
0.103441
0.150995
0.110921
0.145742
0.118859
0.139961
0.127341
0.133496
0.136485
0.126108
0.146458
0.117417
0.157497
0.106786
0.169948
0.0930904
0.184341
0.0741913
0.201493
0.0457328
0.222804
0.245609
0.199755
0.00580875
0.19928
0.0112795
0.198583
0.0165133
0.197673
0.0215902
0.196555
0.0265725
0.195235
0.0315127
0.193717
0.0364558
0.192006
0.0414413
0.190104
0.0465037
0.188015
0.0516735
0.18574
0.0569782
0.183282
0.0624431
0.180641
0.0680919
0.177817
0.073948
0.174808
0.0800353
0.171609
0.0863793
0.168213
0.0930094
0.164606
0.0999604
0.160771
0.107277
0.156677
0.115015
0.152282
0.123254
0.147524
0.132099
0.142308
0.141701
0.136485
0.152281
0.129814
0.164169
0.121863
0.177898
0.111779
0.194425
0.0975144
0.215758
0.0724032
0.247915
0.318012
0.0101001
-0.0101001
0.0157742
-0.00567411
0.0184033
-0.00262904
0.0181378
0.000265477
0.0154053
0.0027325
0.0107501
0.00465518
0.00464705
0.00610306
-0.00250433
0.00715138
-0.010409
0.00790464
-0.0188817
0.00847271
-0.0277414
0.0088597
-0.0368113
0.0090699
-0.0459195
0.00910819
-0.0548969
0.00897741
-0.0635752
0.00867833
-0.0717853
0.00821008
-0.0793558
0.00757053
-0.0861126
0.00675679
-0.0918786
0.00576598
-0.0964753
0.00459677
-0.0997255
0.00325019
-0.10144
0.00171399
-0.101342
-9.79852e-05
-0.0991269
-0.00221467
-0.0943988
-0.00472808
-0.0868412
-0.00755763
-0.0760269
-0.0108143
-0.061211
-0.0148159
-0.0419201
-0.0192909
-0.0196193
0.00205408
-0.0121542
0.00185212
-0.00547214
-0.000915529
0.000138608
-0.00526883
0.00461878
-0.0108455
0.00830921
-0.0175322
0.0113418
-0.025175
0.0137459
-0.0336141
0.0155904
-0.0426799
0.0169705
-0.0521735
0.0179662
-0.0619223
0.0186086
-0.0717659
0.0189134
-0.0815472
0.0188895
-0.0911101
0.0185403
-0.100297
0.017865
-0.108947
0.0168601
-0.116896
0.0155196
-0.123976
0.0138372
-0.130018
0.0118074
-0.134849
0.00942852
-0.138302
0.0067027
-0.140202
0.00361409
-0.140442
0.000141845
-0.138837
-0.00381992
-0.135337
-0.0082281
-0.129857
-0.0130369
-0.122419
-0.018253
-0.113315
-0.0239198
-0.103161
-0.0294447
-0.0334281
-0.00445701
-0.0076972
-0.00967119
-0.000257968
-0.0153078
0.00577526
-0.0216873
0.0109983
-0.0288275
0.0154493
-0.0366472
0.0191616
-0.0450737
0.0221723
-0.054021
0.0245378
-0.0633766
0.0263261
-0.0730058
0.0275954
-0.0827769
0.0283797
-0.0925611
0.0286976
-0.102229
0.028558
-0.111651
0.027962
-0.120692
0.0269057
-0.129213
0.0253807
-0.13707
0.0233767
-0.144115
0.0208829
-0.150199
0.0178913
-0.15517
0.014399
-0.158876
0.0104095
-0.161195
0.00593298
-0.16197
0.000916603
-0.161228
-0.004562
-0.158868
-0.0105885
-0.154909
-0.0169958
-0.14949
-0.0236713
-0.14293
-0.0304799
-0.135258
-0.037117
-0.0429569
-0.008352
0.000654806
-0.0163075
0.00769751
-0.0241494
0.0136172
-0.0321387
0.0189875
-0.0403841
0.0236948
-0.0489307
0.0277082
-0.057786
0.0310276
-0.066927
0.0336789
-0.0763012
0.0357002
-0.0858327
0.0371269
-0.0954349
0.0379819
-0.105014
0.0382769
-0.11447
0.0380137
-0.123694
0.0371864
-0.132572
0.0357831
-0.140979
0.0337879
-0.148785
0.0311827
-0.155853
0.0279508
-0.162041
0.0240796
-0.167207
0.0195651
-0.171213
0.0144155
-0.173929
0.0086487
-0.175284
0.0022718
-0.175206
-0.00464045
-0.173735
-0.0120594
-0.170908
-0.0198228
-0.166887
-0.0276925
-0.161912
-0.0354551
-0.156024
-0.0430049
-0.0496712
-0.0103029
0.0109577
-0.0199427
0.0173373
-0.0291656
0.0228401
-0.0381794
0.0280014
-0.0471213
0.0326366
-0.0560886
0.0366755
-0.0651422
0.0400812
-0.0743092
0.0428458
-0.0835852
0.0449762
-0.0929399
0.0464816
-0.102324
0.0473661
-0.111673
0.0476258
-0.120909
0.0472496
-0.129942
0.0462192
-0.13867
0.0445113
-0.146981
0.0420992
-0.154754
0.0389558
-0.16186
0.0350566
-0.168164
0.030384
-0.173532
0.0249325
-0.17783
0.0187137
-0.180941
0.0117598
-0.182795
0.00412623
-0.183356
-0.00407928
-0.182661
-0.0127546
-0.180773
-0.021711
-0.177848
-0.0306178
-0.174084
-0.0392184
-0.169643
-0.0474464
-0.054446
-0.0110444
0.0220021
-0.0215072
0.0278001
-0.031413
0.0327459
-0.0409252
0.0375136
-0.0501761
0.0418876
-0.0592817
0.0457811
-0.0683311
0.0491306
-0.0773838
0.0518986
-0.0864694
0.0540617
-0.0955894
0.0556017
-0.104722
0.0564987
-0.113825
0.0567291
-0.122839
0.0562636
-0.131689
0.0550684
-0.140283
0.0531056
-0.14852
0.0503358
-0.156284
0.0467205
-0.163454
0.0422262
-0.169899
0.0368289
-0.175487
0.0305208
-0.180091
0.0233176
-0.183599
0.015268
-0.185941
0.00646806
-0.187088
-0.00293229
-0.187084
-0.0127587
-0.186004
-0.0227909
-0.183992
-0.0326297
-0.181239
-0.0419714
-0.177992
-0.0506936
-0.0578129
-0.0110374
0.0330395
-0.0216059
0.0383686
-0.031609
0.0427491
-0.0411521
0.0470566
-0.0503501
0.0510856
-0.059321
0.054752
-0.0681661
0.0579757
-0.0769629
0.0606954
-0.0857611
0.06286
-0.0945829
0.0644234
-0.103425
0.0653408
-0.112261
0.0655652
-0.121045
0.0650474
-0.129711
0.063735
-0.13818
0.061574
-0.146354
0.0585102
-0.154126
0.0544925
-0.161377
0.0494767
-0.167979
0.0434316
-0.173805
0.0363465
-0.178729
0.0282416
-0.182642
0.0191813
-0.185468
0.00929375
-0.187172
-0.00122838
-0.187801
-0.0121292
-0.187442
-0.0231506
-0.186226
-0.0338459
-0.184351
-0.0438464
-0.182107
-0.0529375
-0.0600856
-0.0104945
0.0435339
-0.020626
0.0485002
-0.0302392
0.0523623
-0.0394012
0.0562186
-0.0482111
0.0598955
-0.0567834
0.0633243
-0.0652227
0.066415
-0.0736138
0.0690865
-0.0820163
0.0712625
-0.0904633
0.0728704
-0.0989621
0.0738396
-0.107497
0.0740998
-0.11603
0.0735802
-0.124504
0.0722092
-0.132845
0.0699153
-0.140964
0.0666286
-0.148755
0.0622841
-0.156104
0.0568259
-0.162887
0.0502141
-0.168974
0.0424339
-0.174241
0.0335085
-0.178575
0.0235153
-0.181888
0.012607
-0.184128
0.00101117
-0.185342
-0.0109148
-0.185639
-0.0228543
-0.185135
-0.0343495
-0.184038
-0.0449434
-0.182655
-0.0543203
-0.0614543
-0.00953533
0.0530693
-0.0188107
0.0577756
-0.027632
0.0611836
-0.036052
0.0646386
-0.0441656
0.0680091
-0.0520864
0.0712451
-0.0599186
0.0742472
-0.067748
0.0769159
-0.0756363
0.0791507
-0.0836195
0.0808536
-0.0917092
0.0819294
-0.0998944
0.0822849
-0.108143
0.0818286
-0.116403
0.0804694
-0.124606
0.0781183
-0.132666
0.0746891
-0.140484
0.0701022
-0.147947
0.0642885
-0.15493
0.0571973
-0.161303
0.0488072
-0.166936
0.0391408
-0.171703
0.0282829
-0.175501
0.0164046
-0.178277
0.00378725
-0.180063
-0.00912866
-0.180975
-0.0219428
-0.181125
-0.0341989
-0.18073
-0.0453392
-0.180105
-0.054945
-0.0620361
-0.00824864
0.0613179
-0.0163323
0.0658592
-0.0240207
0.068872
-0.0313772
0.0719951
-0.0385095
0.0751413
-0.0455381
0.0782737
-0.0525664
0.0812755
-0.0596766
0.0840261
-0.0669258
0.0863999
-0.0743468
0.0882746
-0.0819495
0.0895321
-0.0897234
0.0900589
-0.0976389
0.089744
-0.105648
0.0884788
-0.113687
0.0861566
-0.121673
0.0826757
-0.129512
0.0779412
-0.137093
0.0718692
-0.144291
0.0643951
-0.15097
0.0554865
-0.156989
0.0451599
-0.16221
0.0335036
-0.166515
0.0207096
-0.169846
0.0071185
-0.172211
-0.00676337
-0.173718
-0.0204366
-0.174486
-0.0334308
-0.174736
-0.045089
-0.174798
-0.054883
-0.0618985
-0.00671722
0.0680351
-0.0133356
0.0724776
-0.0195862
0.0751226
-0.0255807
0.0779896
-0.0314634
0.0810241
-0.0373723
0.0841825
-0.043409
0.0873123
-0.0496468
0.0902639
-0.0561317
0.0928848
-0.0628866
0.0950295
-0.0699147
0.0965602
-0.0772022
0.0973464
-0.0847196
0.0972614
-0.0924216
0.0961807
-0.100248
0.0939825
-0.108122
0.0905499
-0.115954
0.0857735
-0.123638
0.0795535
-0.13105
0.071807
-0.138048
0.0624845
-0.14448
0.0515917
-0.150194
0.0392175
-0.15506
0.0255756
-0.15899
0.0110482
-0.16195
-0.00380326
-0.164048
-0.0183379
-0.165422
-0.0320569
-0.166287
-0.0442243
-0.16699
-0.0541795
-0.0610794
-0.00504298
0.0730781
-0.00997119
0.0774058
-0.0144841
0.0796354
-0.0188199
0.0823255
-0.0231945
0.0853987
-0.0277714
0.0887594
-0.0326441
0.0921851
-0.0378683
0.095488
-0.0434704
0.0984869
-0.0494565
0.101016
-0.0558173
0.102921
-0.0625322
0.104061
-0.0695699
0.104299
-0.0768866
0.103497
-0.0844256
0.101522
-0.0921177
0.0982419
-0.099882
0.0935378
-0.107622
0.0872931
-0.115217
0.0794028
-0.122527
0.0697943
-0.129392
0.058456
-0.135648
0.0454742
-0.141147
0.0310748
-0.145758
0.0156589
-0.149358
-0.000203758
-0.152067
-0.015629
-0.15407
-0.0300537
-0.15555
-0.0427441
-0.156876
-0.0528531
-0.0595876
-0.00339554
0.0764736
-0.00643661
0.0804468
-0.00886083
0.0820597
-0.0112132
0.0846779
-0.0138253
0.0880108
-0.0168799
0.0918139
-0.0204413
0.0957465
-0.0245321
0.0995788
-0.0291487
0.103104
-0.0342721
0.106139
-0.0398746
0.108523
-0.0459255
0.110112
-0.0523907
0.110764
-0.0592264
0.110333
-0.0663791
0.108674
-0.0737861
0.105649
-0.0813797
0.101131
-0.0890798
0.0949932
-0.0967813
0.0871042
-0.104351
0.0773641
-0.111632
0.0657372
-0.11846
0.0523017
-0.124659
0.0372741
-0.130039
0.0210393
-0.134375
0.0041316
-0.137776
-0.0122276
-0.140488
-0.0273418
-0.142635
-0.0405973
-0.144601
-0.0508871
-0.0573965
-0.00212128
0.0785949
-0.00301393
0.0813395
-0.00287809
0.0819238
-0.00283435
0.0846341
-0.00344125
0.0886177
-0.00481454
0.0931872
-0.00695422
0.0978862
-0.00982394
0.102448
-0.0133771
0.106657
-0.0175618
0.110324
-0.0223251
0.113287
-0.0276234
0.11541
-0.0334208
0.116562
-0.0396718
0.116584
-0.0463242
0.115327
-0.0533183
0.112643
-0.060602
0.108415
-0.0681201
0.102511
-0.0757874
0.0947715
-0.0834889
0.0850656
-0.0910801
0.0733284
-0.0984075
0.0596292
-0.105278
0.0441444
-0.111447
0.0272081
-0.116756
0.0094407
-0.121078
-0.00790533
-0.124648
-0.0237716
-0.127587
-0.0376586
-0.130261
-0.0482132
-0.0544476
-0.00192825
0.0805232
-0.000129693
0.0795409
0.00349272
0.0783014
0.00632532
0.0818015
0.00784935
0.0870937
0.0082254
0.0928111
0.00758028
0.0985313
0.00601691
0.104012
0.00362432
0.109049
0.000468779
0.113479
-0.00339658
0.117152
-0.00788753
0.119901
-0.0129367
0.121611
-0.0185051
0.122152
-0.0245453
0.121367
-0.0309907
0.119088
-0.0378052
0.11523
-0.0449706
0.109677
-0.0524213
0.102222
-0.0600646
0.0927089
-0.0677646
0.0810283
-0.0754084
0.067273
-0.0828455
0.0515814
-0.0899056
0.0342682
-0.0963738
0.0159089
-0.101798
-0.00248159
-0.106408
-0.0191615
-0.110366
-0.0337
-0.113902
-0.0446773
-0.0506485
0.20743
0.00603878
0.206983
0.0117265
0.206329
0.0171673
0.205476
0.0224432
0.204431
0.0276177
0.203199
0.0327439
0.201788
0.0378672
0.200202
0.0430277
0.198445
0.0482601
0.196523
0.0535952
0.194441
0.0590607
0.192202
0.064682
0.189811
0.0704831
0.187271
0.0764878
0.184586
0.0827206
0.181757
0.089208
0.178786
0.0959805
0.175672
0.103075
0.172412
0.110536
0.169001
0.118426
0.165433
0.126822
0.161698
0.135834
0.157788
0.145612
0.153699
0.15637
0.149447
0.168421
0.145116
0.182229
0.141046
0.198495
0.138798
0.218006
0.148433
0.238279
0.249189
0.217257
0.212473
0.00624851
0.212066
0.0121337
0.211471
0.0177624
0.210696
0.0232181
0.209749
0.028565
0.208636
0.0338564
0.207365
0.0391383
0.205942
0.0444506
0.204374
0.0498282
0.202667
0.0553017
0.200829
0.0608985
0.198868
0.0666437
0.19679
0.072561
0.194604
0.0786736
0.192319
0.0850053
0.189945
0.091582
0.187493
0.0984328
0.184975
0.105592
0.182408
0.113104
0.179813
0.12102
0.177223
0.129412
0.174686
0.13837
0.172287
0.148011
0.170175
0.158482
0.168634
0.169962
0.168252
0.182611
0.170317
0.19643
0.177197
0.211126
0.189742
0.225735
0.239333
0.199598
0.21764
0.00643568
0.217277
0.0124971
0.216747
0.0182926
0.216058
0.0239069
0.215219
0.0294044
0.214236
0.0348388
0.213119
0.0402559
0.211874
0.0456953
0.210511
0.0511915
0.209038
0.0567747
0.207465
0.0624714
0.205803
0.068306
0.204063
0.0743009
0.202259
0.0804779
0.200405
0.0868592
0.198519
0.0934679
0.196622
0.10033
0.19474
0.107474
0.192908
0.114936
0.191171
0.122757
0.189594
0.130989
0.188274
0.13969
0.187357
0.148928
0.187072
0.158768
0.187778
0.169256
0.190011
0.180378
0.194438
0.192003
0.201592
0.203971
0.211046
0.216281
0.2265
0.223878
0.222934
0.00659817
0.222619
0.0128123
0.22216
0.0187518
0.221565
0.0245017
0.220843
0.0301266
0.220002
0.03568
0.21905
0.0412072
0.217998
0.0467473
0.216855
0.0523342
0.215633
0.0579968
0.214344
0.0637606
0.213002
0.0696485
0.211621
0.0756811
0.210221
0.081878
0.208822
0.0882582
0.207449
0.094841
0.206132
0.101647
0.20491
0.108697
0.20383
0.116016
0.202956
0.123631
0.202377
0.131568
0.20221
0.139856
0.202622
0.148515
0.203839
0.157551
0.206157
0.166938
0.209929
0.176606
0.215518
0.186414
0.223379
0.19611
0.234249
0.205411
0.212164
0.248586
0.228358
0.00673396
0.228094
0.0130755
0.227712
0.0191344
0.227218
0.0249954
0.226622
0.0307229
0.225932
0.0363698
0.225159
0.0419806
0.224312
0.0475938
0.223405
0.0532418
0.222449
0.0589525
0.22146
0.0647497
0.220454
0.070654
0.219451
0.076684
0.218473
0.0828559
0.217547
0.0891851
0.216702
0.0956857
0.215977
0.102371
0.215419
0.109255
0.215085
0.11635
0.215051
0.123665
0.215412
0.131207
0.216291
0.138977
0.217847
0.14696
0.220273
0.155124
0.223808
0.163404
0.228723
0.171691
0.23533
0.179808
0.243997
0.187443
0.255107
0.1943
0.199329
0.267942
0.233913
0.00684119
0.233706
0.0132832
0.233405
0.0194352
0.233019
0.0253812
0.232557
0.031185
0.232028
0.0368986
0.231443
0.0425656
0.230814
0.048223
0.230154
0.053902
0.229477
0.0596287
0.228802
0.0654249
0.228147
0.0713089
0.227535
0.0772962
0.226992
0.0833997
0.226547
0.08963
0.226236
0.0959961
0.226103
0.102504
0.226199
0.109159
0.226588
0.115961
0.227347
0.122906
0.22857
0.129984
0.230375
0.137173
0.232899
0.144436
0.236307
0.151716
0.240783
0.158927
0.246531
0.165942
0.253751
0.172588
0.262581
0.178613
0.273081
0.1838
0.187657
0.284753
0.239604
0.00691816
0.239456
0.013432
0.239241
0.0196494
0.238969
0.0256531
0.238649
0.0315058
0.238289
0.0372583
0.237902
0.0429529
0.237499
0.0486251
0.237097
0.0543044
0.236711
0.0600147
0.23636
0.0657758
0.236066
0.0716033
0.235852
0.0775094
0.235749
0.0835032
0.235788
0.0895907
0.236009
0.0957753
0.236457
0.102057
0.237185
0.108431
0.238257
0.114888
0.239749
0.121415
0.241748
0.127985
0.244356
0.134564
0.247689
0.141103
0.251874
0.147531
0.257044
0.153757
0.263325
0.159662
0.270814
0.165099
0.279541
0.169887
0.289488
0.173854
0.176748
0.300397
0.245434
0.0069634
0.245347
0.0135191
0.245223
0.0197729
0.24507
0.0258059
0.244897
0.0316791
0.244714
0.037442
0.244531
0.0431351
0.244364
0.0487922
0.244228
0.0544409
0.244139
0.060103
0.24412
0.0657958
0.244191
0.0715319
0.24438
0.0773203
0.244717
0.0831665
0.245236
0.0890719
0.245976
0.0950347
0.246984
0.101049
0.248312
0.107102
0.250021
0.11318
0.252178
0.119257
0.254862
0.125301
0.258156
0.13127
0.262151
0.137108
0.266939
0.142743
0.272605
0.148091
0.279219
0.153048
0.286821
0.157497
0.2954
0.161308
0.304901
0.164352
0.166506
0.315144
0.251405
0.00697564
0.251382
0.0135421
0.251353
0.0198023
0.251323
0.0258351
0.251303
0.0316998
0.251301
0.0374439
0.251329
0.0431062
0.251403
0.0487185
0.251538
0.0543062
0.251752
0.059889
0.252066
0.0654813
0.252505
0.0710933
0.253094
0.0767308
0.253866
0.0823954
0.254853
0.0880848
0.256095
0.0937925
0.257636
0.0995075
0.259525
0.105213
0.261817
0.110888
0.26457
0.116503
0.26785
0.122022
0.271723
0.127398
0.276254
0.132576
0.281506
0.137492
0.287528
0.142069
0.294354
0.146222
0.301987
0.149864
0.310394
0.152901
0.319499
0.155247
0.156846
0.32916
0.257521
0.00695386
0.257564
0.013499
0.257631
0.0197348
0.257729
0.0257375
0.257865
0.0315641
0.258048
0.0372602
0.258292
0.0428624
0.25861
0.0484004
0.259019
0.0538975
0.259537
0.059371
0.260185
0.064833
0.260988
0.0702907
0.261972
0.0757471
0.263166
0.0812007
0.264605
0.086646
0.266325
0.0920727
0.268366
0.0974661
0.270773
0.102807
0.273592
0.108069
0.276874
0.113222
0.280668
0.118228
0.285024
0.123042
0.289987
0.127613
0.295595
0.131884
0.301873
0.135791
0.308827
0.139268
0.316441
0.14225
0.324667
0.144675
0.333427
0.146486
0.147664
0.342609
0.263784
0.00689733
0.263895
0.0133883
0.264061
0.0195684
0.264288
0.0255106
0.264583
0.0312694
0.264955
0.0368883
0.265415
0.0424015
0.265979
0.0478367
0.266662
0.0532148
0.267482
0.0585508
0.268461
0.0638545
0.269621
0.0691307
0.270988
0.0743799
0.272591
0.079598
0.27446
0.0847766
0.276629
0.0899032
0.279135
0.0949607
0.282014
0.0999274
0.285306
0.104777
0.28905
0.109478
0.293284
0.113994
0.298042
0.118284
0.303352
0.122303
0.309233
0.126003
0.315691
0.129332
0.322718
0.132242
0.330283
0.134685
0.338337
0.136621
0.346805
0.138018
0.13887
0.355599
0.270199
0.00680556
0.270378
0.0132093
0.270644
0.019302
0.271002
0.0251532
0.271456
0.0308147
0.272017
0.0363275
0.272695
0.0417236
0.273504
0.0470282
0.274458
0.0522603
0.275576
0.0574327
0.276878
0.0625529
0.278385
0.0676237
0.280121
0.0726434
0.282113
0.077606
0.284389
0.0825013
0.286977
0.087315
0.289909
0.0920291
0.293215
0.0966212
0.296926
0.101065
0.301073
0.105331
0.30568
0.109386
0.31077
0.113194
0.316357
0.116716
0.322446
0.119913
0.329032
0.122746
0.336094
0.12518
0.343599
0.127181
0.351495
0.128725
0.359718
0.129795
0.130395
0.368193
0.276768
0.00667837
0.277016
0.0129614
0.277383
0.0189351
0.277871
0.024665
0.278486
0.0302
0.279235
0.0355785
0.280128
0.0408303
0.281178
0.0459782
0.282399
0.0510391
0.283808
0.0560238
0.285423
0.060938
0.287264
0.0657828
0.289352
0.0705547
0.291712
0.0752465
0.294366
0.0798467
0.297341
0.0843406
0.30066
0.0887098
0.304349
0.0929325
0.30843
0.0969842
0.312924
0.100838
0.317847
0.104463
0.32321
0.107831
0.329018
0.110908
0.335266
0.113665
0.341939
0.116073
0.349013
0.118105
0.356452
0.119742
0.364207
0.12097
0.372222
0.12178
0.122183
0.380434
0.283495
0.00651584
0.283812
0.0126451
0.284278
0.0184682
0.284897
0.0240469
0.28567
0.0294268
0.286605
0.0346438
0.28771
0.0397251
0.288996
0.0446917
0.290477
0.0495581
0.292167
0.0543336
0.294083
0.0590222
0.296242
0.0636236
0.298664
0.0681333
0.301367
0.0725431
0.304373
0.0768413
0.3077
0.081013
0.311369
0.0850406
0.315398
0.0889037
0.319802
0.09258
0.324594
0.0960455
0.329783
0.099275
0.335371
0.102243
0.341354
0.104925
0.347721
0.107298
0.354454
0.10934
0.361524
0.111035
0.368896
0.112371
0.376525
0.11334
0.384362
0.113943
0.114191
0.392354
0.290384
0.00631832
0.290768
0.0122608
0.291334
0.0179024
0.29208
0.0233006
0.293009
0.0284977
0.294126
0.033527
0.295438
0.0384133
0.296954
0.0431754
0.298686
0.0478263
0.300646
0.0523734
0.302849
0.0568196
0.305309
0.0611636
0.308042
0.0654001
0.311065
0.0695206
0.314392
0.0735137
0.31804
0.077365
0.322023
0.081058
0.326352
0.0845746
0.331037
0.0878949
0.336084
0.0909984
0.341495
0.0938643
0.347266
0.0964724
0.353387
0.0988035
0.359844
0.100841
0.366615
0.102569
0.37367
0.10398
0.380976
0.105065
0.388493
0.105824
0.396176
0.106259
0.106386
0.403981
0.297438
0.0060864
0.297889
0.0118099
0.298551
0.0172397
0.299423
0.0224288
0.300505
0.0274164
0.301798
0.0322331
0.30331
0.0369013
0.305048
0.0414379
0.30702
0.0458541
0.309237
0.0501562
0.311711
0.0543459
0.314453
0.0584213
0.317477
0.0623768
0.320793
0.0662041
0.324415
0.0698922
0.328352
0.0734279
0.332613
0.0767965
0.337206
0.0799817
0.342134
0.0829667
0.347398
0.0857346
0.352994
0.0882684
0.358914
0.0905526
0.365145
0.0925729
0.371668
0.0943175
0.37846
0.0957773
0.385493
0.0969465
0.392735
0.0978233
0.400149
0.0984095
0.407697
0.0987108
0.0987415
0.415342
0.304661
0.00582088
0.305177
0.0112939
0.305934
0.0164824
0.306928
0.021435
0.308157
0.0261876
0.309621
0.0307681
0.311326
0.0351968
0.313275
0.0394886
0.315476
0.0436532
0.317937
0.0476958
0.320665
0.0516175
0.32367
0.0554159
0.326962
0.0590855
0.330547
0.0626184
0.334435
0.0660044
0.338631
0.0692318
0.34314
0.0722876
0.347964
0.0751581
0.353101
0.0778291
0.358549
0.080287
0.364299
0.0825185
0.370339
0.084512
0.376655
0.0862575
0.383225
0.087747
0.390027
0.0889756
0.397033
0.0899408
0.404212
0.0906438
0.411533
0.0910887
0.418961
0.0912824
0.0912389
0.426464
0.312056
0.00552275
0.312636
0.0107147
0.313484
0.0156335
0.314596
0.0203233
0.315967
0.0248167
0.317596
0.029139
0.319485
0.0333083
0.321635
0.0373378
0.324052
0.041236
0.326741
0.045007
0.329707
0.0486514
0.332956
0.0521668
0.336494
0.0555478
0.340325
0.0587873
0.344453
0.0618762
0.348881
0.0648043
0.353608
0.0675605
0.358633
0.0701333
0.363951
0.0725113
0.369554
0.0746837
0.375432
0.0766407
0.38157
0.0783738
0.387951
0.0798763
0.394554
0.0811435
0.401357
0.0821733
0.408332
0.0829659
0.415451
0.0835242
0.422686
0.0838537
0.430007
0.083962
0.0838624
0.437383
0.319629
0.00519315
0.320269
0.0100747
0.321206
0.0146964
0.322431
0.0190983
0.323938
0.0233098
0.325724
0.0273533
0.327787
0.0312451
0.330128
0.0349967
0.332749
0.0386154
0.335651
0.0421046
0.338838
0.0454645
0.342312
0.0486928
0.346075
0.0517846
0.350129
0.0547336
0.354474
0.0575318
0.359107
0.0601706
0.364027
0.0626408
0.369227
0.064933
0.3747
0.0670383
0.380436
0.0689485
0.38642
0.0706565
0.392637
0.0721564
0.399069
0.0734442
0.405695
0.0745177
0.412492
0.0753767
0.419434
0.0760233
0.426497
0.0764615
0.433653
0.0766976
0.440876
0.0767393
0.076599
0.448139
0.327383
0.0048333
0.328082
0.00937609
0.329103
0.0136748
0.330437
0.0177651
0.332073
0.0216731
0.334008
0.0254189
0.336236
0.0290167
0.338756
0.0324764
0.341568
0.0358042
0.344669
0.0390031
0.34806
0.0420732
0.351741
0.045012
0.35571
0.0478154
0.359966
0.0504779
0.364505
0.0529928
0.369323
0.055353
0.374413
0.0575509
0.379766
0.0595792
0.385374
0.0614311
0.391221
0.0631006
0.397295
0.0645828
0.403578
0.0658739
0.41005
0.0669721
0.416691
0.0678767
0.423478
0.0685892
0.430389
0.0691127
0.437399
0.0694519
0.444483
0.0696133
0.451618
0.0696045
0.0694368
0.45878
0.335323
0.00444443
0.336077
0.00862148
0.33718
0.0125723
0.338616
0.0163286
0.340376
0.0199133
0.342451
0.0233439
0.344835
0.0266325
0.347524
0.0297879
0.350513
0.0328152
0.353799
0.0357169
0.357379
0.0384929
0.36125
0.0411412
0.365407
0.0436581
0.369846
0.046039
0.37456
0.0482785
0.379543
0.0503707
0.384784
0.0523098
0.390273
0.0540901
0.395997
0.0557066
0.401943
0.0571551
0.408093
0.0584324
0.414431
0.0595366
0.420936
0.0604671
0.427588
0.0612246
0.434365
0.0618116
0.441246
0.0622316
0.448208
0.0624899
0.455229
0.0625927
0.462286
0.0625473
0.062364
0.469359
0.343452
0.00402777
0.344261
0.00781322
0.34544
0.0113928
0.346975