/*--------------------------------*- C++ -*----------------------------------*\
  =========                 |
  \\      /  F ield         | OpenFOAM: The Open Source CFD Toolbox
   \\    /   O peration     | Website:  https://openfoam.org
    \\  /    A nd           | Version:  dev
     \\/     M anipulation  |
\*---------------------------------------------------------------------------*/
FoamFile
{
    version     2.0;
    format      ascii;
    class       volVectorField;
    location    "1.1";
    object      U;
}
// * * * * * * * * * * * * * * * * * * * * * * * * * * * * * * * * * * * * * //

dimensions      [0 1 -1 0 0 0 0];

internalField   nonuniform List<vector> 
2790
(
(9.94364 0 0.0207294)
(9.87419 0 0.0300188)
(9.77156 0 0.0366524)
(9.64281 0 0.0434533)
(9.49371 0 0.0505176)
(9.32522 0 0.0577943)
(9.13658 0 0.0654103)
(8.92695 0 0.0735247)
(8.69558 0 0.0822723)
(8.44159 0 0.0917741)
(8.16388 0 0.10215)
(7.8612 0 0.113524)
(7.53217 0 0.126017)
(7.17535 0 0.139746)
(6.78931 0 0.154813)
(6.37272 0 0.171294)
(5.92447 0 0.189212)
(5.44391 0 0.20852)
(4.93101 0 0.229056)
(4.38674 0 0.250507)
(3.81334 0 0.272354)
(3.21475 0 0.293825)
(2.59694 0 0.313874)
(1.96808 0 0.331329)
(1.33692 0 0.34633)
(0.73523 0 0.3671)
(0.042547 0 0.29282)
(-0.467437 0 -0.119656)
(-0.449987 0 -0.278956)
(-0.230216 0 -0.40995)
(9.99815 0 0.0413417)
(9.97991 0 0.0636863)
(9.93206 0 0.0811187)
(9.85747 0 0.099278)
(9.76048 0 0.118444)
(9.64213 0 0.138459)
(9.50185 0 0.159567)
(9.33885 0 0.182115)
(9.15241 0 0.2064)
(8.94164 0 0.232688)
(8.70547 0 0.261232)
(8.44263 0 0.29228)
(8.15171 0 0.326057)
(7.83123 0 0.362748)
(7.47966 0 0.402462)
(7.09552 0 0.445191)
(6.67755 0 0.490742)
(6.2248 0 0.538664)
(5.73696 0 0.588146)
(5.21459 0 0.637907)
(4.65954 0 0.686084)
(4.07538 0 0.730127)
(3.46796 0 0.766744)
(2.84619 0 0.791962)
(2.22296 0 0.801509)
(1.62714 0 0.791593)
(1.0512 0 0.721828)
(0.618464 0 0.519093)
(0.142517 0 0.180354)
(-0.0124303 0 -0.456668)
(9.99525 0 0.0442885)
(9.97405 0 0.0774613)
(9.9282 0 0.106661)
(9.85835 0 0.136816)
(9.76756 0 0.168623)
(9.65695 0 0.202056)
(9.52629 0 0.237449)
(9.37498 0 0.27529)
(9.20246 0 0.316044)
(9.00802 0 0.360145)
(8.79077 0 0.408019)
(8.54962 0 0.460084)
(8.28335 0 0.516736)
(7.99061 0 0.578309)
(7.66996 0 0.645027)
(7.31994 0 0.716934)
(6.93917 0 0.793786)
(6.52642 0 0.874925)
(6.08088 0 0.959102)
(5.60238 0 1.04429)
(5.09174 0 1.12744)
(4.55126 0 1.20428)
(3.98533 0 1.26905)
(3.40142 0 1.31415)
(2.81077 0 1.32943)
(2.23365 0 1.29978)
(1.6771 0 1.18601)
(1.17286 0 0.935273)
(0.675512 0 0.533081)
(0.335074 0 -0.189156)
(9.99368 0 0.0510048)
(9.9703 0 0.0962514)
(9.92427 0 0.138175)
(9.85571 0 0.180371)
(9.76672 0 0.224135)
(9.65841 0 0.269863)
(9.53077 0 0.318065)
(9.38343 0 0.369388)
(9.21598 0 0.424472)
(9.02795 0 0.483928)
(8.8187 0 0.548354)
(8.58748 0 0.618345)
(8.33339 0 0.69447)
(8.05546 0 0.777233)
(7.75263 0 0.867018)
(7.42377 0 0.963997)
(7.06777 0 1.068)
(6.68356 0 1.17836)
(6.27021 0 1.29364)
(5.82716 0 1.41141)
(5.3544 0 1.52788)
(4.8529 0 1.6375)
(4.32504 0 1.73256)
(3.77526 0 1.80253)
(3.21019 0 1.83299)
(2.64043 0 1.80388)
(2.07108 0 1.68105)
(1.51172 0 1.42783)
(0.931881 0 1.03206)
(0.492471 0 0.45629)
(9.99296 0 0.0591455)
(9.96843 0 0.114868)
(9.92232 0 0.168012)
(9.85491 0 0.221255)
(9.76775 0 0.276236)
(9.66174 0 0.333713)
(9.53692 0 0.394333)
(9.39304 0 0.458824)
(9.22977 0 0.527927)
(9.04673 0 0.602358)
(8.84344 0 0.682818)
(8.61932 0 0.770003)
(8.37372 0 0.864582)
(8.10593 0 0.967163)
(7.81518 0 1.07823)
(7.50068 0 1.19806)
(7.16161 0 1.32657)
(6.79712 0 1.46312)
(6.40639 0 1.6063)
(5.98866 0 1.75353)
(5.54336 0 1.90066)
(5.07025 0 2.04152)
(4.56974 0 2.16726)
(4.0431 0 2.26578)
(3.49246 0 2.32085)
(2.9214 0 2.31153)
(2.33093 0 2.20923)
(1.72324 0 1.98434)
(1.06349 0 1.62413)
(0.520592 0 1.09046)
(9.99267 0 0.0678976)
(9.96771 0 0.133474)
(9.92195 0 0.197326)
(9.85596 0 0.261494)
(9.77101 0 0.327634)
(9.66776 0 0.396714)
(9.54628 0 0.469502)
(9.40636 0 0.546807)
(9.24773 0 0.629456)
(9.07007 0 0.718265)
(8.87298 0 0.814031)
(8.65596 0 0.91754)
(8.41848 0 1.02955)
(8.15996 0 1.15074)
(7.87979 0 1.2817)
(7.57733 0 1.42277)
(7.25191 0 1.57396)
(6.90278 0 1.73474)
(6.52913 0 1.90378)
(6.12999 0 2.07858)
(5.70428 0 2.25504)
(5.25075 0 2.42689)
(4.76805 0 2.58507)
(4.25482 0 2.71711)
(3.70964 0 2.80656)
(3.13138 0 2.83295)
(2.51738 0 2.77104)
(1.86801 0 2.5945)
(1.14511 0 2.29063)
(0.534697 0 1.81232)
(9.99262 0 0.0768615)
(9.96775 0 0.151952)
(9.92275 0 0.226005)
(9.8585 0 0.300696)
(9.77611 0 0.377605)
(9.67609 0 0.457848)
(9.55849 0 0.542328)
(9.42316 0 0.631948)
(9.26986 0 0.727621)
(9.09832 0 0.830248)
(8.90818 0 0.940712)
(8.699 0 1.05987)
(8.4703 0 1.18856)
(8.22155 0 1.32754)
(7.95218 0 1.47744)
(7.66159 0 1.63871)
(7.34908 0 1.81146)
(7.01386 0 1.99531)
(6.65495 0 2.18912)
(6.27109 0 2.39066)
(5.86062 0 2.59618)
(5.42135 0 2.79983)
(4.95047 0 2.99302)
(4.44447 0 3.16379)
(3.89921 0 3.29634)
(3.31029 0 3.37088)
(2.67235 0 3.36379)
(1.98638 0 3.24945)
(1.21141 0 3.01271)
(0.547933 0 2.59106)
(9.99272 0 0.085803)
(9.96829 0 0.170112)
(9.92444 0 0.253884)
(9.86225 0 0.338645)
(9.78277 0 0.425904)
(9.68643 0 0.516877)
(9.57324 0 0.612586)
(9.4431 0 0.714021)
(9.29582 0 0.822175)
(9.13116 0 0.938027)
(8.9488 0 1.06254)
(8.74835 0 1.19664)
(8.52935 0 1.34124)
(8.29129 0 1.49719)
(8.0336 0 1.66519)
(7.75561 0 1.84581)
(7.45654 0 2.0393)
(7.13544 0 2.24548)
(6.79105 0 2.46351)
(6.42171 0 2.69161)
(6.02512 0 2.92662)
(5.59819 0 3.16349)
(5.13678 0 3.39461)
(4.63557 0 3.60917)
(4.08815 0 3.79245)
(3.48753 0 3.92546)
(2.82594 0 3.98495)
(2.10527 0 3.94371)
(1.28122 0 3.7812)
(0.566251 0 3.41592)
(9.99291 0 0.094572)
(9.9692 0 0.187783)
(9.92682 0 0.280818)
(9.867 0 0.375177)
(9.79079 0 0.472329)
(9.69854 0 0.573557)
(9.59026 0 0.67998)
(9.46588 0 0.792674)
(9.32526 0 0.912703)
(9.1682 0 1.04112)
(8.99443 0 1.17896)
(8.80359 0 1.32724)
(8.59525 0 1.48695)
(8.36891 0 1.65901)
(8.12398 0 1.84426)
(7.85974 0 2.0434)
(7.57528 0 2.25687)
(7.26944 0 2.48479)
(6.94068 0 2.72671)
(6.58687 0 2.98144)
(6.20511 0 3.24664)
(5.79139 0 3.51836)
(5.34035 0 3.79041)
(4.845 0 4.05358)
(4.2967 0 4.2947)
(3.68586 0 4.49579)
(3.00164 0 4.63334)
(2.24564 0 4.67689)
(1.36885 0 4.59783)
(0.594777 0 4.29203)
(9.99318 0 0.103065)
(9.97039 0 0.204822)
(9.92977 0 0.306665)
(9.87262 0 0.410128)
(9.79999 0 0.516676)
(9.71221 0 0.627639)
(9.60929 0 0.744216)
(9.49119 0 0.86756)
(9.35783 0 0.998804)
(9.20905 0 1.13907)
(9.04461 0 1.28947)
(8.86421 0 1.45109)
(8.66747 0 1.62501)
(8.4539 0 1.81227)
(8.2229 0 2.01383)
(7.97371 0 2.23057)
(7.70534 0 2.46319)
(7.41646 0 2.71214)
(7.10525 0 2.9775)
(6.76922 0 3.25879)
(6.4049 0 3.5547)
(6.00751 0 3.86266)
(5.57055 0 4.17829)
(5.08537 0 4.49448)
(4.541 0 4.80031)
(3.9246 0 5.07943)
(3.22077 0 5.30831)
(2.42811 0 5.45258)
(1.48993 0 5.473)
(0.640352 0 5.23694)
(9.9935 0 0.111205)
(9.97179 0 0.221112)
(9.93316 0 0.331292)
(9.87895 0 0.443349)
(9.81021 0 0.558761)
(9.72725 0 0.678899)
(9.63011 0 0.805029)
(9.51877 0 0.938371)
(9.3932 0 1.08012)
(9.25329 0 1.23147)
(9.09888 0 1.39358)
(8.92971 0 1.56764)
(8.74544 0 1.75481)
(8.54563 0 1.95624)
(8.32973 0 2.17304)
(8.09696 0 2.4063)
(7.84631 0 2.65701)
(7.57635 0 2.92603)
(7.28513 0 3.21402)
(6.96992 0 3.52136)
(6.6269 0 3.84791)
(6.2507 0 4.19276)
(5.8339 0 4.55371)
(5.3664 0 4.92646)
(4.8347 0 5.30331)
(4.22195 0 5.67097)
(3.50597 0 6.00756)
(2.67777 0 6.27595)
(1.66643 0 6.42454)
(0.714399 0 6.28228)
(9.99386 0 0.118934)
(9.97336 0 0.236553)
(9.93693 0 0.354582)
(9.88591 0 0.474701)
(9.82132 0 0.598418)
(9.74349 0 0.727138)
(9.65248 0 0.862183)
(9.54832 0 1.00483)
(9.43102 0 1.15633)
(9.30054 0 1.31793)
(9.15677 0 1.49087)
(8.99951 0 1.67639)
(8.82852 0 1.87575)
(8.64342 0 2.0902)
(8.44372 0 2.32104)
(8.22871 0 2.56954)
(7.99742 0 2.83701)
(7.74847 0 3.12475)
(7.47993 0 3.43407)
(7.18906 0 3.76622)
(6.87194 0 4.12239)
(6.52304 0 4.5035)
(6.13451 0 4.90997)
(5.69521 0 5.34101)
(5.18948 0 5.79353)
(4.59605 0 6.25981)
(3.88375 0 6.72347)
(3.02947 0 7.14969)
(1.93463 0 7.47728)
(0.839025 0 7.48317)
(9.99425 0 0.126206)
(9.97507 0 0.251065)
(9.94101 0 0.376432)
(9.89337 0 0.504062)
(9.83317 0 0.635497)
(9.76076 0 0.772178)
(9.6762 0 0.915468)
(9.57958 0 1.06669)
(9.47097 0 1.22715)
(9.35038 0 1.39814)
(9.21778 0 1.58095)
(9.07305 0 1.77688)
(8.91605 0 1.98728)
(8.74649 0 2.21351)
(8.564 0 2.457)
(8.36799 0 2.71924)
(8.15763 0 3.00185)
(7.93174 0 3.30654)
(7.68857 0 3.63524)
(7.42564 0 3.99011)
(7.13937 0 4.37364)
(6.82459 0 4.78869)
(6.47376 0 5.23849)
(6.07582 0 5.72645)
(5.6142 0 6.25563)
(5.06441 0 6.82716)
(4.38594 0 7.43695)
(3.53491 0 8.06511)
(2.36109 0 8.65931)
(1.06248 0 8.94349)
(9.99467 0 0.132984)
(9.97689 0 0.264582)
(9.94534 0 0.396754)
(9.90126 0 0.531327)
(9.84566 0 0.669877)
(9.77888 0 0.813874)
(9.70105 0 0.964718)
(9.61228 0 1.12377)
(9.51269 0 1.29237)
(9.40239 0 1.47184)
(9.2814 0 1.66352)
(9.14973 0 1.86877)
(9.0073 0 2.08898)
(8.854 0 2.32563)
(8.68958 0 2.58026)
(8.51365 0 2.85456)
(8.32562 0 3.15036)
(8.1246 0 3.46979)
(7.90925 0 3.8153)
(7.67765 0 4.18984)
(7.42697 0 4.59709)
(7.15306 0 5.04167)
(6.84977 0 5.52956)
(6.50778 0 6.0685)
(6.11239 0 6.66858)
(5.64016 0 7.34284)
(5.04695 0 8.10784)
(4.2704 0 8.98113)
(3.07898 0 9.97809)
(1.5027 0 10.8901)
(9.99511 0 0.139241)
(9.97879 0 0.277049)
(9.94986 0 0.415472)
(9.90949 0 0.556394)
(9.85865 0 0.701424)
(9.7977 0 0.852057)
(9.72681 0 1.00972)
(9.64613 0 1.17579)
(9.55586 0 1.35165)
(9.45615 0 1.53864)
(9.34714 0 1.73813)
(9.22891 0 1.95152)
(9.10155 0 2.18024)
(8.96506 0 2.42583)
(8.81939 0 2.68993)
(8.6644 0 2.97436)
(8.49981 0 3.28114)
(8.32513 0 3.61267)
(8.13962 0 3.97181)
(7.94212 0 4.36208)
(7.73097 0 4.78803)
(7.50369 0 5.25562)
(7.25663 0 5.77291)
(6.98427 0 6.35115)
(6.67778 0 7.0066)
(6.32295 0 7.76385)
(5.88972 0 8.66338)
(5.33428 0 9.77962)
(4.38486 0 11.3015)
(2.49468 0 13.9038)
(0.257482 0 -0.419176)
(0.667799 0 -0.27045)
(0.898546 0 -0.163005)
(0.958184 0 -0.0565126)
(0.871582 0 0.0365731)
(0.678691 0 0.103066)
(0.399037 0 0.144883)
(0.0539327 0 0.168017)
(-0.323528 0 0.179198)
(-0.735536 0 0.184402)
(-1.17123 0 0.184632)
(-1.62158 0 0.180617)
(-2.07797 0 0.172967)
(-2.53193 0 0.162166)
(-2.97505 0 0.148596)
(-3.39891 0 0.132567)
(-3.79499 0 0.114322)
(-4.15468 0 0.0940416)
(-4.46929 0 0.0718466)
(-4.72989 0 0.0477894)
(-4.92697 0 0.0217604)
(-5.05033 0 -0.00671184)
(-5.09044 0 -0.0390718)
(-5.03821 0 -0.07959)
(-4.86854 0 -0.127024)
(-4.56561 0 -0.181886)
(-4.09488 0 -0.247183)
(-3.40332 0 -0.326497)
(-2.46944 0 -0.406873)
(-1.47114 0 -0.432848)
(0.00808099 0 -0.625429)
(0.158917 0 -0.334773)
(0.0349454 0 -0.095176)
(-0.137137 0 0.0951646)
(-0.383727 0 0.235113)
(-0.695512 0 0.339041)
(-1.05927 0 0.41428)
(-1.46559 0 0.465909)
(-1.9064 0 0.499743)
(-2.37315 0 0.520602)
(-2.85663 0 0.530121)
(-3.34865 0 0.529483)
(-3.84132 0 0.519637)
(-4.32687 0 0.50133)
(-4.79747 0 0.475146)
(-5.24518 0 0.441549)
(-5.66187 0 0.400921)
(-6.03925 0 0.353591)
(-6.36887 0 0.29988)
(-6.64213 0 0.240122)
(-6.85018 0 0.174557)
(-6.98414 0 0.102879)
(-7.0363 0 0.0236683)
(-7.00233 0 -0.0645571)
(-6.87623 0 -0.16158)
(-6.65328 0 -0.265159)
(-6.31989 0 -0.376817)
(-5.86047 0 -0.497731)
(-5.31485 0 -0.609885)
(-4.91517 0 -0.667165)
(-0.193143 0 -0.516392)
(-0.343618 0 -0.153303)
(-0.625635 0 0.136866)
(-0.914809 0 0.354389)
(-1.25348 0 0.526364)
(-1.62948 0 0.660198)
(-2.03824 0 0.759651)
(-2.47519 0 0.829258)
(-2.93518 0 0.874004)
(-3.41197 0 0.898127)
(-3.89897 0 0.904164)
(-4.38971 0 0.893936)
(-4.8778 0 0.868853)
(-5.35677 0 0.830032)
(-5.82 0 0.778379)
(-6.26065 0 0.71466)
(-6.67167 0 0.639572)
(-7.04573 0 0.553803)
(-7.37537 0 0.458126)
(-7.65294 0 0.353455)
(-7.8708 0 0.240861)
(-8.02139 0 0.121196)
(-8.09741 0 -0.00543384)
(-8.09719 0 -0.139024)
(-8.02026 0 -0.280398)
(-7.86317 0 -0.42589)
(-7.61982 0 -0.573423)
(-7.28189 0 -0.721192)
(-6.8883 0 -0.859539)
(-6.62657 0 -0.962948)
(-0.318538 0 -0.178739)
(-0.621318 0 0.178191)
(-1.0179 0 0.453207)
(-1.40649 0 0.682801)
(-1.81086 0 0.870344)
(-2.23067 0 1.01812)
(-2.66662 0 1.12901)
(-3.11784 0 1.20684)
(-3.58219 0 1.25582)
(-4.05633 0 1.27971)
(-4.53616 0 1.2813)
(-5.01718 0 1.26273)
(-5.49453 0 1.22566)
(-5.96303 0 1.17136)
(-6.41708 0 1.10087)
(-6.85071 0 1.015)
(-7.25754 0 0.914464)
(-7.63084 0 0.799929)
(-7.96358 0 0.672119)
(-8.24856 0 0.531924)
(-8.47856 0 0.380452)
(-8.64687 0 0.218969)
(-8.74801 0 0.0483344)
(-8.77721 0 -0.13172)
(-8.73882 0 -0.316595)
(-8.63173 0 -0.502271)
(-8.45253 0 -0.683659)
(-8.1968 0 -0.856932)
(-7.90049 0 -1.01866)
(-7.7122 0 -1.15023)
(-0.372083 0 0.29459)
(-0.760467 0 0.598684)
(-1.2398 0 0.849458)
(-1.68872 0 1.06941)
(-2.13522 0 1.25275)
(-2.58182 0 1.39897)
(-3.03215 0 1.50935)
(-3.48802 0 1.58643)
(-3.94981 0 1.63323)
(-4.41649 0 1.65263)
(-4.88601 0 1.64701)
(-5.3555 0 1.61827)
(-5.82137 0 1.56784)
(-6.27941 0 1.49688)
(-6.72482 0 1.40627)
(-7.15224 0 1.29678)
(-7.5558 0 1.16914)
(-7.92918 0 1.02414)
(-8.26574 0 0.862789)
(-8.5586 0 0.686375)
(-8.8009 0 0.49659)
(-8.9864 0 0.295488)
(-9.11001 0 0.0854291)
(-9.16765 0 -0.130537)
(-9.16394 0 -0.350061)
(-9.09908 0 -0.567606)
(-8.97154 0 -0.775387)
(-8.78028 0 -0.968187)
(-8.55804 0 -1.14477)
(-8.42028 0 -1.28559)
(-0.382524 0 0.805115)
(-0.815228 0 1.07666)
(-1.33793 0 1.29552)
(-1.81657 0 1.49205)
(-2.28319 0 1.65825)
(-2.74044 0 1.79229)
(-3.19346 0 1.89392)
(-3.64575 0 1.96421)
(-4.09937 0 2.00483)
(-4.55498 0 2.0176)
(-5.01201 0 2.0041)
(-5.46881 0 1.96567)
(-5.92281 0 1.90336)
(-6.37059 0 1.81798)
(-6.80797 0 1.7102)
(-7.23011 0 1.58062)
(-7.63156 0 1.42985)
(-8.00632 0 1.25864)
(-8.34799 0 1.06801)
(-8.64989 0 0.859372)
(-8.90536 0 0.634677)
(-9.10838 0 0.396572)
(-9.25411 0 0.148627)
(-9.3391 0 -0.104474)
(-9.36636 0 -0.358084)
(-9.33838 0 -0.606089)
(-9.25471 0 -0.838929)
(-9.11733 0 -1.05034)
(-8.95523 0 -1.23878)
(-8.85587 0 -1.38248)
(-0.371317 0 1.34405)
(-0.813705 0 1.58014)
(-1.34643 0 1.76175)
(-1.82824 0 1.92796)
(-2.29463 0 2.07024)
(-2.747 0 2.18624)
(-3.19122 0 2.27448)
(-3.63163 0 2.33465)
(-4.07132 0 2.36706)
(-4.51199 0 2.37228)
(-4.95406 0 2.35095)
(-5.39673 0 2.30358)
(-5.83815 0 2.2306)
(-6.2755 0 2.13235)
(-6.7051 0 2.00911)
(-7.1225 0 1.86119)
(-7.52255 0 1.68903)
(-7.89951 0 1.4933)
(-8.24717 0 1.27507)
(-8.55898 0 1.03597)
(-8.82841 0 0.778377)
(-9.04949 0 0.505744)
(-9.21749 0 0.222859)
(-9.3293 0 -0.0642896)
(-9.38517 0 -0.3492)
(-9.39049 0 -0.624926)
(-9.34555 0 -0.880612)
(-9.2549 0 -1.10868)
(-9.14358 0 -1.3061)
(-9.07529 0 -1.44995)
(-0.345668 0 1.87469)
(-0.771962 0 2.07803)
(-1.28777 0 2.22233)
(-1.74994 0 2.3566)
(-2.19761 0 2.47291)
(-2.63032 0 2.56898)
(-3.05433 0 2.64239)
(-3.47428 0 2.69162)
(-3.89374 0 2.71564)
(-4.31498 0 2.71382)
(-4.73895 0 2.68566)
(-5.16538 0 2.63084)
(-5.59289 0 2.54903)
(-6.01908 0 2.44001)
(-6.44064 0 2.30361)
(-6.85343 0 2.13981)
(-7.25257 0 1.94882)
(-7.63251 0 1.73119)
(-7.98717 0 1.48799)
(-8.3101 0 1.22098)
(-8.59472 0 0.932932)
(-8.83487 0 0.627922)
(-9.02564 0 0.311691)
(-9.16399 0 -0.00849701)
(-9.24651 0 -0.323517)
(-9.28239 0 -0.625386)
(-9.27242 0 -0.902676)
(-9.2232 0 -1.14607)
(-9.15599 0 -1.3506)
(-9.11407 0 -1.49359)
(-0.309454 0 2.36978)
(-0.699533 0 2.54578)
(-1.17665 0 2.65585)
(-1.59979 0 2.76004)
(-2.01209 0 2.85178)
(-2.41117 0 2.92917)
(-2.80375 0 2.98904)
(-3.19446 0 3.02875)
(-3.58698 0 3.04601)
(-3.9837 0 3.03895)
(-4.38578 0 3.00603)
(-4.79318 0 2.94598)
(-5.20477 0 2.85776)
(-5.61845 0 2.74051)
(-6.03117 0 2.59359)
(-6.43904 0 2.4166)
(-6.83739 0 2.20947)
(-7.22085 0 1.97259)
(-7.58344 0 1.70695)
(-7.91866 0 1.41443)
(-8.21971 0 1.0981)
(-8.47996 0 0.762544)
(-8.69384 0 0.414317)
(-8.85755 0 0.0622842)
(-8.96794 0 -0.282092)
(-9.03242 0 -0.608927)
(-9.05483 0 -0.906961)
(-9.04311 0 -1.1647)
(-9.01527 0 -1.37516)
(-8.99671 0 -1.51691)
(-0.265439 0 2.80984)
(-0.603051 0 2.96466)
(-1.02355 0 3.04464)
(-1.39072 0 3.12257)
(-1.75249 0 3.19355)
(-2.1048 0 3.25604)
(-2.45511 0 3.30597)
(-2.80784 0 3.33953)
(-3.16645 0 3.35322)
(-3.53317 0 3.34399)
(-3.90902 0 3.30928)
(-4.29394 0 3.24697)
(-4.68691 0 3.1553)
(-5.08596 0 3.03282)
(-5.48827 0 2.8784)
(-5.89015 0 2.69125)
(-6.28718 0 2.471)
(-6.67416 0 2.2178)
(-7.04518 0 1.93252)
(-7.3936 0 1.61702)
(-7.71221 0 1.27454)
(-7.99368 0 0.910087)
(-8.23151 0 0.531061)
(-8.42117 0 0.148163)
(-8.56134 0 -0.225017)
(-8.65341 0 -0.576394)
(-8.7066 0 -0.89473)
(-8.72968 0 -1.16625)
(-8.73803 0 -1.38185)
(-8.74105 0 -1.52202)
(-0.216202 0 3.18054)
(-0.488219 0 3.3199)
(-0.83684 0 3.37354)
(-1.13254 0 3.43003)
(-1.4296 0 3.4859)
(-1.72268 0 3.5394)
(-2.02042 0 3.58498)
(-2.32672 0 3.61752)
(-2.64458 0 3.63221)
(-2.97565 0 3.62494)
(-3.32054 0 3.59223)
(-3.67896 0 3.53125)
(-4.04982 0 3.4396)
(-4.43122 0 3.31532)
(-4.82049 0 3.15682)
(-5.21422 0 2.96292)
(-5.60826 0 2.73296)
(-5.9977 0 2.46678)
(-6.37676 0 2.165)
(-6.73871 0 1.82932)
(-7.0759 0 1.46302)
(-7.38025 0 1.07146)
(-7.64424 0 0.663026)
(-7.86258 0 0.250104)
(-8.03432 0 -0.152031)
(-8.15382 0 -0.52817)
(-8.23734 0 -0.866679)
(-8.29381 0 -1.15182)
(-8.33667 0 -1.37207)
(-8.36063 0 -1.51022)
(-0.164926 0 3.47215)
(-0.361426 0 3.59953)
(-0.624441 0 3.62857)
(-0.833115 0 3.66899)
(-1.0516 0 3.71719)
(-1.27361 0 3.76972)
(-1.50925 0 3.81844)
(-1.76138 0 3.85657)
(-2.03207 0 3.87802)
(-2.32204 0 3.87768)
(-2.63116 0 3.85138)
(-2.95864 0 3.79575)
(-3.30321 0 3.70796)
(-3.66298 0 3.58562)
(-4.03542 0 3.42674)
(-4.41736 0 3.22985)
(-4.80509 0 2.99398)
(-5.19419 0 2.71865)
(-5.57931 0 2.40405)
(-5.95381 0 2.05154)
(-6.30988 0 1.66426)
(-6.63885 0 1.24795)
(-6.93214 0 0.8119)
(-7.18324 0 0.369595)
(-7.39019 0 -0.0625784)
(-7.53793 0 -0.464212)
(-7.65279 0 -0.822792)
(-7.74308 0 -1.12191)
(-7.8205 0 -1.34667)
(-7.866 0 -1.48215)
(-0.11675 0 3.68123)
(-0.232192 0 3.79353)
(-0.395378 0 3.795)
(-0.498924 0 3.82567)
(-0.624509 0 3.87623)
(-0.764247 0 3.93834)
(-0.929515 0 3.99956)
(-1.12091 0 4.05126)
(-1.33897 0 4.08612)
(-1.583 0 4.09829)
(-1.85178 0 4.08315)
(-2.14381 0 4.0371)
(-2.4575 0 3.95713)
(-2.79094 0 3.84055)
(-3.14167 0 3.6851)
(-3.50675 0 3.48907)
(-3.88295 0 3.25136)
(-4.26671 0 2.97118)
(-4.65345 0 2.64814)
(-5.03715 0 2.28307)
(-5.41032 0 1.87879)
(-5.76417 0 1.44123)
(-6.08936 0 0.980052)
(-6.37763 0 0.508962)
(-6.6228 0 0.0456049)
(-6.80516 0 -0.383411)
(-6.95443 0 -0.761963)
(-7.0817 0 -1.07608)
(-7.19616 0 -1.30585)
(-7.26546 0 -1.43773)
(-0.0816743 0 3.81658)
(-0.11812 0 3.89199)
(-0.161511 0 3.85409)
(-0.134687 0 3.88357)
(-0.151939 0 3.95217)
(-0.19932 0 4.03825)
(-0.287924 0 4.12376)
(-0.413824 0 4.19827)
(-0.575241 0 4.2537)
(-0.769579 0 4.28388)
(-0.994152 0 4.28421)
(-1.24652 0 4.25179)
(-1.52476 0 4.18359)
(-1.82692 0 4.07651)
(-2.15053 0 3.92816)
(-2.49271 0 3.73666)
(-2.85067 0 3.50114)
(-3.22197 0 3.22065)
(-3.6032 0 2.89408)
(-3.98931 0 2.52153)
(-4.37353 0 2.10515)
(-4.74772 0 1.65078)
(-5.10248 0 1.16769)
(-5.4275 0 0.669497)
(-5.71157 0 0.176364)
(-5.95004 0 -0.281608)
(-6.13871 0 -0.681284)
(-6.30988 0 -1.01229)
(-6.46749 0 -1.24865)
(-6.56545 0 -1.37573)
(-0.0943779 0 3.94603)
(-0.0530877 0 3.88592)
(0.0692199 0 3.78282)
(0.257623 0 3.8305)
(0.363586 0 3.93891)
(0.412846 0 4.06414)
(0.404717 0 4.18567)
(0.348275 0 4.29231)
(0.24806 0 4.37605)
(0.108535 0 4.43118)
(-0.0678212 0 4.45328)
(-0.279424 0 4.43821)
(-0.518606 0 4.38425)
(-0.784957 0 4.28898)
(-1.07626 0 4.14983)
(-1.38941 0 3.96578)
(-1.72171 0 3.73647)
(-2.07226 0 3.46009)
(-2.43916 0 3.13477)
(-2.81841 0 2.75996)
(-3.20384 0 2.33721)
(-3.5883 0 1.87305)
(-3.96441 0 1.37546)
(-4.32366 0 0.856404)
(-4.65617 0 0.33713)
(-4.962 0 -0.15133)
(-5.19661 0 -0.575377)
(-5.42231 0 -0.925324)
(-5.63463 0 -1.1717)
(-5.77084 0 -1.29303)
(9.99557 0 0.145055)
(9.9808 0 0.288637)
(9.95463 0 0.432863)
(9.91816 0 0.579665)
(9.87233 0 0.730678)
(9.81751 0 0.887415)
(9.75392 0 1.05131)
(9.68177 0 1.22378)
(9.60131 0 1.40619)
(9.51278 0 1.59992)
(9.41641 0 1.80633)
(9.31241 0 2.02684)
(9.20099 0 2.26292)
(9.08234 0 2.51613)
(8.95663 0 2.78816)
(8.82399 0 3.08089)
(8.68451 0 3.39647)
(8.53822 0 3.73741)
(8.38507 0 4.1068)
(8.2249 0 4.50844)
(8.0575 0 4.9473)
(7.88255 0 5.42991)
(7.6998 0 5.96524)
(7.50926 0 6.56595)
(7.31178 0 7.25068)
(7.11177 0 8.04832)
(6.9211 0 9.00684)
(6.82346 0 10.2097)
(7.18532 0 11.7848)
(7.28422 0 14.2544)
(9.99606 0 0.150438)
(9.98292 0 0.299354)
(9.95965 0 0.448913)
(9.92727 0 0.601083)
(9.88665 0 0.757518)
(9.83821 0 0.91974)
(9.78218 0 1.0892)
(9.71886 0 1.2673)
(9.64854 0 1.45542)
(9.57156 0 1.65493)
(9.48824 0 1.86721)
(9.39892 0 2.09365)
(9.30396 0 2.33571)
(9.20374 0 2.59496)
(9.09866 0 2.87308)
(8.98917 0 3.17195)
(8.87575 0 3.4937)
(8.75896 0 3.84086)
(8.63949 0 4.21645)
(8.51823 0 4.62423)
(8.39643 0 5.06898)
(8.27601 0 5.55689)
(8.16006 0 6.09621)
(8.05393 0 6.69802)
(7.96741 0 7.37748)
(7.9202 0 8.15507)
(7.94702 0 9.05678)
(8.09801 0 10.1105)
(8.62281 0 11.2587)
(8.96952 0 12.2334)
(9.99657 0 0.155298)
(9.98513 0 0.309029)
(9.96488 0 0.46339)
(9.93674 0 0.620372)
(9.90154 0 0.781638)
(9.85969 0 0.948709)
(9.81148 0 1.12303)
(9.75724 0 1.306)
(9.69736 0 1.49898)
(9.63223 0 1.70332)
(9.56228 0 1.92037)
(9.48798 0 2.1515)
(9.40985 0 2.39813)
(9.32844 0 2.66178)
(9.2444 0 2.94406)
(9.15848 0 3.24678)
(9.07155 0 3.57195)
(8.98469 0 3.92193)
(8.89927 0 4.29948)
(8.81709 0 4.70794)
(8.74065 0 5.15139)
(8.67355 0 5.63487)
(8.62115 0 6.16455)
(8.59168 0 6.7478)
(8.59772 0 7.3928)
(8.65865 0 8.10675)
(8.80147 0 8.89009)
(9.03118 0 9.73105)
(9.46952 0 10.578)
(9.97303 0 11.2311)
(9.9971 0 0.159579)
(9.98741 0 0.317548)
(9.97027 0 0.476115)
(9.9465 0 0.637284)
(9.91687 0 0.802713)
(9.88179 0 0.973917)
(9.84159 0 1.15232)
(9.79665 0 1.3393)
(9.74741 0 1.5362)
(9.69436 0 1.74432)
(9.638 0 1.96497)
(9.57894 0 2.19946)
(9.51782 0 2.44914)
(9.45539 0 2.71544)
(9.39251 0 2.99986)
(9.33021 0 3.30403)
(9.2697 0 3.62977)
(9.21249 0 3.97911)
(9.1605 0 4.35438)
(9.11619 0 4.75825)
(9.08287 0 5.19377)
(9.06505 0 5.66437)
(9.06889 0 6.17375)
(9.10289 0 6.72538)
(9.17833 0 7.32163)
(9.3095 0 7.9619)
(9.51578 0 8.63922)
(9.80114 0 9.33992)
(10.2291 0 10.0542)
(10.8344 0 10.6739)
(9.99764 0 0.163231)
(9.98974 0 0.32481)
(9.97578 0 0.486943)
(9.95648 0 0.651626)
(9.93252 0 0.820507)
(9.90433 0 0.995079)
(9.87227 0 1.17674)
(9.83677 0 1.36683)
(9.79831 0 1.56665)
(9.75745 0 1.77745)
(9.71479 0 2.00046)
(9.67102 0 2.23692)
(9.62692 0 2.48808)
(9.5834 0 2.75523)
(9.5415 0 3.0397)
(9.50247 0 3.34292)
(9.4678 0 3.66641)
(9.4393 0 4.01179)
(9.41924 0 4.38084)
(9.41048 0 4.77543)
(9.41667 0 5.19749)
(9.4425 0 5.6489)
(9.49399 0 6.13117)
(9.57876 0 6.64499)
(9.70616 0 7.1895)
(9.88711 0 7.76134)
(10.1364 0 8.35338)
(10.4619 0 8.95282)
(10.8863 0 9.55077)
(11.4706 0 10.0761)
(9.99818 0 0.166207)
(9.9921 0 0.330722)
(9.98137 0 0.495733)
(9.9666 0 0.663215)
(9.94839 0 0.834791)
(9.92715 0 1.01192)
(9.90329 0 1.19597)
(9.87727 0 1.38823)
(9.84963 0 1.58994)
(9.82096 0 1.80227)
(9.79196 0 2.02638)
(9.76338 0 2.2634)
(9.73612 0 2.51446)
(9.71119 0 2.78067)
(9.6898 0 3.06317)
(9.67333 0 3.36312)
(9.66344 0 3.6817)
(9.66215 0 4.0201)
(9.67187 0 4.37948)
(9.69558 0 4.76093)
(9.7369 0 5.16538)
(9.80028 0 5.59336)
(9.89112 0 6.0448)
(10.0158 0 6.51861)
(10.1818 0 7.01216)
(10.3973 0 7.52066)
(10.6717 0 8.03642)
(11.0109 0 8.54612)
(11.4163 0 9.03649)
(11.9472 0 9.46811)
(9.99873 0 0.168462)
(9.99448 0 0.335199)
(9.98701 0 0.502358)
(9.97678 0 0.671883)
(9.96433 0 0.84536)
(9.95006 0 1.02421)
(9.9344 0 1.20974)
(9.91784 0 1.40319)
(9.90094 0 1.60572)
(9.88436 0 1.81842)
(9.86882 0 2.04236)
(9.85517 0 2.27853)
(9.84435 0 2.52792)
(9.83748 0 2.79145)
(9.83583 0 3.07005)
(9.84087 0 3.36458)
(9.85436 0 3.67587)
(9.87834 0 4.00466)
(9.91523 0 4.35154)
(9.9679 0 4.71691)
(10.0397 0 5.10083)
(10.1346 0 5.50285)
(10.2571 0 5.92178)
(10.4123 0 6.35542)
(10.6056 0 6.80012)
(10.8424 0 7.2504)
(11.128 0 7.69856)
(11.4652 0 8.13329)
(11.8492 0 8.54299)
(12.3338 0 8.90861)
(9.99928 0 0.169959)
(9.99686 0 0.338161)
(9.99263 0 0.506704)
(9.98694 0 0.677481)
(9.98022 0 0.85203)
(9.97287 0 1.03172)
(9.96533 0 1.2178)
(9.95811 0 1.41144)
(9.9518 0 1.61372)
(9.94707 0 1.82563)
(9.94468 0 2.04812)
(9.94552 0 2.28207)
(9.95058 0 2.52827)
(9.96099 0 2.78749)
(9.97807 0 3.06039)
(10.0033 0 3.34757)
(10.0385 0 3.64949)
(10.0855 0 3.96649)
(10.1467 0 4.29868)
(10.2246 0 4.64585)
(10.3223 0 5.00743)
(10.4431 0 5.38227)
(10.5904 0 5.76848)
(10.768 0 6.16325)
(10.9796 0 6.56261)
(11.2285 0 6.96122)
(11.5171 0 7.35232)
(11.8466 0 7.7274)
(12.2105 0 8.07767)
(12.6564 0 8.39303)
(9.99982 0 0.170662)
(9.99922 0 0.339544)
(9.99819 0 0.508673)
(9.99699 0 0.679881)
(9.99593 0 0.854651)
(9.9954 0 1.03429)
(9.99583 0 1.21998)
(9.99776 0 1.41279)
(10.0018 0 1.61374)
(10.0085 0 1.82371)
(10.0188 0 2.04352)
(10.0336 0 2.2739)
(10.0538 0 2.5155)
(10.0805 0 2.76887)
(10.1151 0 3.03446)
(10.1591 0 3.31259)
(10.214 0 3.60343)
(10.2816 0 3.90694)
(10.3642 0 4.22282)
(10.4638 0 4.55044)
(10.583 0 4.88877)
(10.7244 0 5.23621)
(10.8906 0 5.59054)
(11.0843 0 5.94877)
(11.3076 0 6.30706)
(11.5624 0 6.66064)
(11.8495 0 7.00395)
(12.1688 0 7.33062)
(12.5138 0 7.63404)
(12.9262 0 7.90824)
(10.0004 0 0.170546)
(10.0015 0 0.339292)
(10.0037 0 0.508184)
(10.0068 0 0.678983)
(10.0113 0 0.853102)
(10.0174 0 1.03178)
(10.0256 0 1.21612)
(10.0364 0 1.40711)
(10.0504 0 1.60566)
(10.0682 0 1.81256)
(10.0907 0 2.02849)
(10.1186 0 2.25405)
(10.153 0 2.48973)
(10.195 0 2.73588)
(10.2458 0 2.99275)
(10.3067 0 3.26042)
(10.3793 0 3.53879)
(10.4652 0 3.82752)
(10.5661 0 4.12603)
(10.684 0 4.43337)
(10.8207 0 4.74822)
(10.9783 0 5.06879)
(11.1586 0 5.39275)
(11.3633 0 5.71721)
(11.5935 0 6.03866)
(11.8501 0 6.35305)
(12.1328 0 6.6559)
(12.4408 0 6.94241)
(12.7681 0 7.20771)
(13.1522 0 7.44819)
(10.0009 0 0.169587)
(10.0038 0 0.337362)
(10.009 0 0.505178)
(10.0164 0 0.67471)
(10.0263 0 0.847297)
(10.0388 0 1.0241)
(10.0545 0 1.20614)
(10.0738 0 1.39432)
(10.0973 0 1.58944)
(10.1256 0 1.79218)
(10.1595 0 2.00312)
(10.1998 0 2.22269)
(10.2475 0 2.45124)
(10.3035 0 2.68896)
(10.369 0 2.93591)
(10.4452 0 3.19197)
(10.5334 0 3.45681)
(10.6351 0 3.72989)
(10.7516 0 4.01041)
(10.8845 0 4.29724)
(11.0352 0 4.58892)
(11.2052 0 4.8836)
(11.3956 0 5.17903)
(11.6074 0 5.47254)
(11.841 0 5.76109)
(12.0966 0 6.0413)
(12.3732 0 6.30962)
(12.6699 0 6.56246)
(12.9811 0 6.79635)
(13.3411 0 7.00904)
(10.0014 0 0.167771)
(10.006 0 0.333726)
(10.0141 0 0.499613)
(10.0257 0 0.667014)
(10.0407 0 0.837186)
(10.0594 0 1.01121)
(10.0823 0 1.19001)
(10.1096 0 1.37442)
(10.1421 0 1.56511)
(10.1803 0 1.76268)
(10.2249 0 1.96756)
(10.2767 0 2.18009)
(10.3365 0 2.40045)
(10.4052 0 2.6287)
(10.4839 0 2.86474)
(10.5736 0 3.10828)
(10.6754 0 3.35884)
(10.7905 0 3.61573)
(10.92 0 3.87802)
(11.0651 0 4.14448)
(11.2267 0 4.41364)
(11.4059 0 4.6837)
(11.6032 0 4.95256)
(11.8191 0 5.21787)
(12.0536 0 5.47703)
(12.3063 0 5.72732)
(12.576 0 5.96596)
(12.8616 0 6.19028)
(13.1583 0 6.3978)
(13.4977 0 6.58708)
(10.0019 0 0.16509)
(10.008 0 0.328367)
(10.019 0 0.491469)
(10.0345 0 0.655876)
(10.0545 0 0.822757)
(10.079 0 0.993108)
(10.1086 0 1.16777)
(10.1436 0 1.34746)
(10.1845 0 1.53279)
(10.2319 0 1.72422)
(10.2864 0 1.92209)
(10.3486 0 2.12662)
(10.4194 0 2.33788)
(10.4995 0 2.55578)
(10.5899 0 2.78012)
(10.6913 0 3.01047)
(10.8048 0 3.24626)
(10.9311 0 3.48671)
(11.0712 0 3.7308)
(11.2259 0 3.97733)
(11.3958 0 4.22483)
(11.5815 0 4.47165)
(11.7832 0 4.71591)
(12.001 0 4.95557)
(12.2345 0 5.18847)
(12.4831 0 5.41243)
(12.7456 0 5.6253)
(13.0206 0 5.82509)
(13.3043 0 6.01003)
(13.6259 0 6.1792)
(10.0023 0 0.161542)
(10.01 0 0.321286)
(10.0237 0 0.480748)
(10.0429 0 0.641303)
(10.0675 0 0.80403)
(10.0976 0 0.969837)
(10.1335 0 1.13947)
(10.1755 0 1.31358)
(10.2242 0 1.49265)
(10.2801 0 1.67706)
(10.3435 0 1.86706)
(10.4152 0 2.06275)
(10.4959 0 2.26411)
(10.5861 0 2.47097)
(10.6866 0 2.683)
(10.7981 0 2.89971)
(10.9213 0 3.12046)
(11.0569 0 3.34442)
(11.2055 0 3.57059)
(11.3676 0 3.79777)
(11.5435 0 4.02463)
(11.7335 0 4.24964)
(11.9376 0 4.47117)
(12.1555 0 4.68749)
(12.3868 0 4.89683)
(12.6305 0 5.09746)
(12.8855 0 5.28771)
(13.1507 0 5.46613)
(13.4224 0 5.63141)
(13.7284 0 5.78298)
(10.0027 0 0.157134)
(10.0119 0 0.312492)
(10.0281 0 0.467468)
(10.0508 0 0.62333)
(10.0797 0 0.78106)
(10.1149 0 0.941482)
(10.1566 0 1.10526)
(10.2053 0 1.27293)
(10.2611 0 1.44493)
(10.3246 0 1.62152)
(10.3961 0 1.80288)
(10.4763 0 1.98902)
(10.5656 0 2.17983)
(10.6646 0 2.37507)
(10.7738 0 2.57436)
(10.8938 0 2.77715)
(11.0251 0 2.98277)
(11.1681 0 3.19039)
(11.3232 0 3.39904)
(11.4908 0 3.60761)
(11.6708 0 3.81486)
(11.8634 0 4.01947)
(12.0683 0 4.22001)
(12.2851 0 4.41506)
(12.5131 0 4.60317)
(12.7514 0 4.78296)
(12.9991 0 4.95318)
(13.2548 0 5.11271)
(13.5157 0 5.26064)
(13.8078 0 5.39659)
(10.0031 0 0.151875)
(10.0136 0 0.302009)
(10.0321 0 0.451671)
(10.0581 0 0.602016)
(10.091 0 0.753936)
(10.1309 0 0.908166)
(10.178 0 1.06528)
(10.2326 0 1.22576)
(10.2949 0 1.38992)
(10.3653 0 1.55797)
(10.444 0 1.73001)
(10.5316 0 1.90599)
(10.6285 0 2.08573)
(10.735 0 2.26893)
(10.8515 0 2.45519)
(10.9785 0 2.64392)
(11.1163 0 2.83447)
(11.2651 0 3.02603)
(11.4252 0 3.21768)
(11.5966 0 3.40841)
(11.7792 0 3.59712)
(11.9729 0 3.78265)
(12.1773 0 3.96381)
(12.3919 0 4.13941)
(12.6161 0 4.30828)
(12.8488 0 4.46934)
(13.0892 0 4.62162)
(13.336 0 4.76431)
(13.5869 0 4.89671)
(13.8664 0 5.01862)
(10.0035 0 0.145784)
(10.0152 0 0.289873)
(10.0359 0 0.433411)
(10.0648 0 0.577444)
(10.1014 0 0.722769)
(10.1456 0 0.87004)
(10.1976 0 1.01976)
(10.2575 0 1.1723)
(10.3256 0 1.32794)
(10.4021 0 1.48683)
(10.4872 0 1.64897)
(10.5812 0 1.81427)
(10.6845 0 1.98252)
(10.7974 0 2.15339)
(10.92 0 2.32644)
(11.0527 0 2.50111)
(11.1956 0 2.67676)
(11.3488 0 2.85261)
(11.5123 0 3.02784)
(11.6861 0 3.20154)
(11.87 0 3.37273)
(12.0637 0 3.54044)
(12.2667 0 3.70366)
(12.4785 0 3.86141)
(12.6983 0 4.01276)
(12.9252 0 4.15686)
(13.1584 0 4.29296)
(13.3969 0 4.42045)
(13.6384 0 4.53884)
(13.9064 0 4.648)
(10.0039 0 0.138883)
(10.0167 0 0.276128)
(10.0393 0 0.41276)
(10.0709 0 0.549713)
(10.1108 0 0.687698)
(10.1589 0 0.827287)
(10.2153 0 0.968903)
(10.28 0 1.11286)
(10.3532 0 1.25937)
(10.435 0 1.40851)
(10.5256 0 1.56026)
(10.6252 0 1.71448)