/*--------------------------------*- C++ -*----------------------------------*\
  =========                 |
  \\      /  F ield         | OpenFOAM: The Open Source CFD Toolbox
   \\    /   O peration     | Website:  https://openfoam.org
    \\  /    A nd           | Version:  dev
     \\/     M anipulation  |
\*---------------------------------------------------------------------------*/
FoamFile
{
    version     2.0;
    format      ascii;
    class       surfaceVectorField;
    location    "1.1";
    object      Uf;
}
// * * * * * * * * * * * * * * * * * * * * * * * * * * * * * * * * * * * * * //

dimensions      [0 1 -1 0 0 0 0];

internalField   nonuniform List<vector> 
5457
(
(9.92 0 0.0254296)
(9.97089 0 0.0391785)
(9.8214 0 0.0333753)
(9.92705 0 0.0494554)
(9.70442 0 0.0400935)
(9.85181 0 0.0600884)
(9.56688 0 0.0470277)
(9.75014 0 0.0723635)
(9.40871 0 0.0541994)
(9.62709 0 0.0852289)
(9.23008 0 0.0616478)
(9.48368 0 0.0985873)
(9.03073 0 0.069516)
(9.31921 0 0.11268)
(8.81006 0 0.0779508)
(9.1329 0 0.127745)
(8.56724 0 0.08708)
(8.92399 0 0.143974)
(8.30122 0 0.0970242)
(8.69161 0 0.16154)
(8.01082 0 0.107905)
(8.43467 0 0.180613)
(7.69471 0 0.119845)
(8.15191 0 0.201359)
(7.35147 0 0.132963)
(7.84194 0 0.223927)
(6.97966 0 0.14737)
(7.50329 0 0.248438)
(6.57786 0 0.163152)
(7.13449 0 0.274963)
(6.14486 0 0.18036)
(6.73412 0 0.303492)
(5.67973 0 0.198981)
(6.30101 0 0.333891)
(5.18212 0 0.218911)
(5.83435 0 0.365849)
(4.65248 0 0.23991)
(5.33398 0 0.398815)
(4.09242 0 0.261561)
(4.80066 0 0.431924)
(3.50507 0 0.283218)
(4.23644 0 0.463928)
(2.89549 0 0.303969)
(3.64507 0 0.493138)
(2.27096 0 0.322706)
(3.03245 0 0.517446)
(1.64099 0 0.338919)
(2.40714 0 0.534589)
(1.01522 0 0.356839)
(1.77994 0 0.543858)
(0.393052 0 0.329517)
(1.18118 0 0.553815)
(-0.174912 0 0.0841173)
(0.546876 0 0.517794)
(-0.429238 0 -0.200258)
(0.0755132 0 0.237469)
(-0.397014 0 -0.345236)
(-0.153735 0 -0.0308156)
(-0.121323 0 -0.388851)
(9.99552 0 0.0526475)
(9.9967 0 0.0413717)
(9.95614 0 0.0725066)
(9.97698 0 0.069206)
(9.893 0 0.0903068)
(9.93013 0 0.0925244)
(9.80794 0 0.108975)
(9.85791 0 0.117116)
(9.70078 0 0.128571)
(9.76402 0 0.142973)
(9.57141 0 0.149139)
(9.64954 0 0.169983)
(9.41957 0 0.170976)
(9.51407 0 0.198509)
(9.24467 0 0.194403)
(9.35692 0 0.228995)
(9.0459 0 0.219701)
(9.17744 0 0.261823)
(8.82226 0 0.24713)
(8.97483 0 0.297351)
(8.57254 0 0.276941)
(8.74812 0 0.335925)
(8.2954 0 0.30937)
(8.49613 0 0.377889)
(7.9894 0 0.344622)
(8.21753 0 0.42356)
(7.65301 0 0.382842)
(7.91092 0 0.473205)
(7.28473 0 0.424082)
(7.57481 0 0.526995)
(6.88316 0 0.468238)
(7.20773 0 0.584951)
(6.44718 0 0.514989)
(6.80836 0 0.646854)
(5.97617 0 0.563701)
(6.37561 0 0.712142)
(5.47025 0 0.613324)
(5.90892 0 0.779775)
(4.93064 0 0.662284)
(5.40848 0 0.848077)
(4.36011 0 0.708369)
(4.87564 0 0.914573)
(3.76344 0 0.748654)
(4.31332 0 0.975826)
(3.14806 0 0.779504)
(3.72665 0 1.02731)
(2.52499 0 0.796793)
(3.12381 0 1.06332)
(1.91201 0 0.796492)
(2.51687 0 1.0766)
(1.34857 0 0.756294)
(1.93039 0 1.05535)
(0.877669 0 0.619249)
(1.36415 0 0.947099)
(0.395731 0 0.347699)
(0.895662 0 0.687464)
(0.04078 0 -0.141963)
(0.409014 0 0.308626)
(0.161322 0 -0.348909)
(9.98816 0 0.0610731)
(9.99446 0 0.04717)
(9.95175 0 0.0922356)
(9.97217 0 0.0874692)
(9.89217 0 0.121918)
(9.92624 0 0.12313)
(9.81203 0 0.152909)
(9.85703 0 0.159276)
(9.7117 0 0.185539)
(9.76714 0 0.197037)
(9.59106 0 0.219964)
(9.65768 0 0.236563)
(9.4499 0 0.256595)
(9.52853 0 0.278296)
(9.28783 0 0.29591)
(9.37921 0 0.322823)
(9.1042 0 0.338358)
(9.20922 0 0.3707)
(8.89819 0 0.384368)
(9.01799 0 0.422451)
(8.66879 0 0.434363)
(8.80474 0 0.478596)
(8.41485 0 0.488749)
(8.56855 0 0.539645)
(8.13507 0 0.54789)
(8.30837 0 0.606086)
(7.82806 0 0.612067)
(8.02304 0 0.678345)
(7.49235 0 0.68141)
(7.71129 0 0.756734)
(7.12651 0 0.755819)
(7.37186 0 0.841364)
(6.72924 0 0.83484)
(7.00347 0 0.932037)
(6.29951 0 0.917516)
(6.60499 0 1.02808)
(5.83684 0 1.0022)
(6.17555 0 1.12817)
(5.34156 0 1.08636)
(5.71477 0 1.23004)
(4.8153 0 1.16632)
(5.22307 0 1.33025)
(4.26146 0 1.23705)
(4.70208 0 1.42387)
(3.68608 0 1.29187)
(4.15518 0 1.50404)
(3.09904 0 1.32188)
(3.58834 0 1.56147)
(2.51621 0 1.31442)
(3.01048 0 1.58315)
(1.96061 0 1.24222)
(2.43704 0 1.54991)
(1.43692 0 1.05915)
(1.87409 0 1.42453)
(0.92414 0 0.731774)
(1.34229 0 1.16626)
(0.457416 0 0.167647)
(0.803696 0 0.754957)
(0.413772 0 0.0991016)
(9.98428 0 0.0738984)
(9.99332 0 0.0548666)
(9.9478 0 0.117464)
(9.96936 0 0.105768)
(9.88924 0 0.159525)
(9.9233 0 0.153211)
(9.8104 0 0.202514)
(9.85531 0 0.200758)
(9.71198 0 0.247272)
(9.76723 0 0.250071)
(9.59401 0 0.294252)
(9.66007 0 0.301668)
(9.45637 0 0.344034)
(9.53385 0 0.356093)
(9.29882 0 0.39726)
(9.38824 0 0.414031)
(9.12093 0 0.454555)
(9.22288 0 0.476171)
(8.92214 0 0.516526)
(9.03734 0 0.543171)
(8.70172 0 0.583768)
(8.83107 0 0.615682)
(8.45886 0 0.656863)
(8.6034 0 0.694348)
(8.1926 0 0.736346)
(8.35356 0 0.779788)
(7.90194 0 0.822662)
(8.08069 0 0.87256)
(7.58577 0 0.916087)
(7.7839 0 0.973099)
(7.24298 0 1.01662)
(7.46223 0 1.08163)
(6.87245 0 1.12384)
(7.11469 0 1.19802)
(6.4732 0 1.23669)
(6.74034 0 1.32162)
(6.04449 0 1.35323)
(6.3383 0 1.45098)
(5.58606 0 1.47034)
(5.90791 0 1.58358)
(5.09842 0 1.58335)
(5.44888 0 1.71542)
(4.58335 0 1.6856)
(4.96158 0 1.84055)
(4.0444 0 1.76796)
(4.44739 0 1.95058)
(3.4876 0 1.81794)
(3.90918 0 2.03396)
(2.92157 0 1.81826)
(3.35132 0 2.07509)
(2.35594 0 1.74173)
(2.78092 0 2.0534)
(1.79222 0 1.55292)
(2.201 0 1.93845)
(1.22492 0 1.22758)
(1.61748 0 1.69596)
(0.646899 0 0.740736)
(0.997686 0 1.30772)
(0.506532 0 0.732699)
(9.9825 0 0.0873395)
(9.99282 0 0.0634368)
(9.94562 0 0.141757)
(9.96807 0 0.124268)
(9.88802 0 0.194952)
(9.92213 0 0.1828)
(9.81062 0 0.249074)
(9.85544 0 0.241476)
(9.71415 0 0.305318)
(9.76938 0 0.302053)
(9.59873 0 0.364385)
(9.66475 0 0.365369)
(9.46425 0 0.426964)
(9.5416 0 0.432103)
(9.31053 0 0.493788)
(9.3997 0 0.503025)
(9.13723 0 0.565587)
(9.23875 0 0.578923)
(8.94391 0 0.643069)
(9.0584 0 0.660564)
(8.73003 0 0.726931)
(8.85821 0 0.748701)
(8.49497 0 0.817857)
(8.63764 0 0.844076)
(8.23805 0 0.916485)
(8.3961 0 0.947401)
(7.95853 0 1.02336)
(8.13294 0 1.05933)
(7.65563 0 1.13886)
(7.84748 0 1.18039)
(7.32854 0 1.26308)
(7.539 0 1.31089)
(6.97642 0 1.39566)
(7.20676 0 1.45079)
(6.59845 0 1.53557)
(6.84995 0 1.59951)
(6.19384 0 1.6808)
(6.46776 0 1.75565)
(5.76194 0 1.82798)
(6.05933 0 1.91667)
(5.3024 0 1.97193)
(5.62382 0 2.07839)
(4.81538 0 2.10514)
(5.1605 0 2.23454)
(4.3018 0 2.21711)
(4.66889 0 2.3761)
(3.7636 0 2.29364)
(4.14896 0 2.49067)
(3.20345 0 2.31613)
(3.60105 0 2.56192)
(2.62396 0 2.25977)
(3.02639 0 2.56923)
(2.02346 0 2.09544)
(2.42416 0 2.4859)
(1.39421 0 1.80208)
(1.79562 0 2.2835)
(0.723431 0 1.35411)
(1.1043 0 1.94919)
(0.527645 0 1.44126)
(9.98177 0 0.101078)
(9.99265 0 0.0723655)
(9.94484 0 0.165782)
(9.96773 0 0.142789)
(9.8884 0 0.229794)
(9.92235 0 0.211793)
(9.81287 0 0.294959)
(9.85723 0 0.281215)
(9.71882 0 0.362587)
(9.77356 0 0.352734)
(9.60641 0 0.433543)
(9.67193 0 0.427404)
(9.47559 0 0.508616)
(9.55239 0 0.506049)
(9.32617 0 0.588625)
(9.41476 0 0.589523)
(9.15788 0 0.674391)
(9.2588 0 0.678701)
(8.97036 0 0.76672)
(9.0842 0 0.774441)
(8.76313 0 0.866404)
(8.89058 0 0.877583)
(8.5357 0 0.974213)
(8.67748 0 0.988948)
(8.28749 0 1.09087)
(8.44439 0 1.10933)
(8.01793 0 1.21701)
(8.19075 0 1.23945)
(7.72637 0 1.35308)
(7.91599 0 1.37991)
(7.41218 0 1.49927)
(7.61946 0 1.53111)
(7.07463 0 1.65531)
(7.30049 0 1.6931)
(6.71296 0 1.82027)
(6.95832 0 1.86541)
(6.32629 0 1.99222)
(6.59204 0 2.04682)
(5.91361 0 2.16787)
(6.20054 0 2.23493)
(5.47377 0 2.342)
(5.78245 0 2.4258)
(5.00554 0 2.50693)
(5.33605 0 2.61334)
(4.50757 0 2.65188)
(4.85926 0 2.78869)
(3.97852 0 2.76237)
(4.34965 0 2.93962)
(3.41691 0 2.81991)
(3.80442 0 3.05002)
(2.82083 0 2.80162)
(3.22084 0 3.09982)
(2.18599 0 2.68171)
(2.59487 0 3.06467)
(1.50564 0 2.44075)
(1.92719 0 2.91876)
(0.774271 0 2.04862)
(1.17826 0 2.6486)
(0.541315 0 2.19961)
(9.98163 0 0.114856)
(9.99267 0 0.0813621)
(9.9451 0 0.189421)
(9.96802 0 0.161109)
(9.89007 0 0.263797)
(9.92359 0 0.240063)
(9.81675 0 0.33961)
(9.86037 0 0.319793)
(9.72555 0 0.418206)
(9.77944 0 0.401874)
(9.61668 0 0.500593)
(9.68126 0 0.487491)
(9.49009 0 0.587674)
(9.56587 0 0.577602)
(9.34564 0 0.680356)
(9.43313 0 0.673147)
(9.18308 0 0.779548)
(9.28284 0 0.775082)
(9.0021 0 0.88614)
(9.11474 0 0.884346)
(8.80228 0 1.001)
(8.92849 0 1.00186)
(8.58317 0 1.12499)
(8.72367 0 1.12852)
(8.34425 0 1.25888)
(8.49982 0 1.26519)
(8.085 0 1.40338)
(8.25642 0 1.41268)
(7.8048 0 1.55904)
(7.99289 0 1.57166)
(7.50303 0 1.72612)
(7.7086 0 1.74261)
(7.17895 0 1.90448)
(7.40281 0 1.92574)
(6.83167 0 2.09337)
(7.07465 0 2.12074)
(6.46009 0 2.29109)
(6.723 0 2.32662)
(6.06275 0 2.49465)
(6.3464 0 2.54136)
(5.63775 0 2.69922)
(5.94287 0 2.7615)
(5.18259 0 2.89758)
(5.50977 0 2.98155)
(4.6941 0 3.07943)
(5.04362 0 3.19342)
(4.1684 0 3.23086)
(4.54002 0 3.38572)
(3.60099 0 3.33405)
(3.99368 0 3.54316)
(2.98694 0 3.3673)
(3.39891 0 3.64641)
(2.32068 0 3.30594)
(2.74915 0 3.67208)
(1.59764 0 3.12967)
(2.04583 0 3.59387)
(0.818086 0 2.79937)
(1.24631 0 3.3941)
(0.557092 0 3.00087)
(9.98186 0 0.128461)
(9.99281 0 0.0902467)
(9.94612 0 0.212499)
(9.96874 0 0.179032)
(9.89278 0 0.296771)
(9.92563 0 0.267467)
(9.82199 0 0.382796)
(9.86462 0 0.357037)
(9.73407 0 0.471934)
(9.78678 0 0.449246)
(9.62922 0 0.565303)
(9.69248 0 0.545357)
(9.50744 0 0.663909)
(9.58175 0 0.646439)
(9.3686 0 0.768744)
(9.45449 0 0.753523)
(9.2125 0 0.880794)
(9.31054 0 0.867635)
(9.03885 0 1.00103)
(9.14968 0 0.989794)
(8.84729 0 1.13039)
(8.97162 0 1.121)
(8.63741 0 1.26981)
(8.77597 0 1.26222)
(8.4087 0 1.42015)
(8.5623 0 1.4144)
(8.16065 0 1.58219)
(8.3301 0 1.57842)
(7.89262 0 1.75658)
(8.07879 0 1.75508)
(7.6039 0 1.94371)
(7.80767 0 1.94497)
(7.29364 0 2.14362)
(7.51591 0 2.14846)
(6.96073 0 2.3558)
(7.20244 0 2.3655)
(6.60371 0 2.57893)
(6.86587 0 2.59545)
(6.22063 0 2.81052)
(6.50429 0 2.8368)
(5.80879 0 3.04647)
(6.11511 0 3.0868)
(5.36455 0 3.28043)
(5.69479 0 3.34093)
(4.88315 0 3.50318)
(5.23856 0 3.59228)
(4.35863 0 3.7019)
(4.74029 0 3.83081)
(3.78404 0 3.85975)
(4.19243 0 4.04254)
(3.15204 0 3.95556)
(3.58669 0 4.20897)
(2.45595 0 3.96408)
(2.91379 0 4.30668)
(1.69238 0 3.86149)
(2.17546 0 4.30683)
(0.865413 0 3.59638)
(1.32503 0 4.18493)
(0.580514 0 3.84849)
(9.98233 0 0.141734)
(9.99305 0 0.0988984)
(9.94771 0 0.234856)
(9.96979 0 0.196397)
(9.89634 0 0.328561)
(9.92829 0 0.293859)
(9.82839 0 0.424333)
(9.86981 0 0.392782)
(9.74415 0 0.523548)
(9.79539 0 0.494639)
(9.64379 0 0.627404)
(9.70537 0 0.600745)
(9.52734 0 0.737)
(9.59977 0 0.712261)
(9.39472 0 0.853406)
(9.47853 0 0.830299)
(9.24576 0 0.97768)
(9.34154 0 0.955957)
(9.08021 0 1.11087)
(9.18863 0 1.09032)
(8.89776 0 1.25399)
(9.01952 0 1.23447)
(8.69802 0 1.40805)
(8.8339 0 1.38945)
(8.48052 0 1.57401)
(8.63136 0 1.55629)
(8.24472 0 1.75274)
(8.41141 0 1.73598)
(7.98997 0 1.94502)
(8.17344 0 1.92942)
(7.71545 0 2.15141)
(7.91673 0 2.13738)
(7.42015 0 2.37219)
(7.64031 0 2.36044)
(7.10271 0 2.6072)
(7.34295 0 2.59888)
(6.76131 0 2.8556)
(7.02296 0 2.85252)
(6.39343 0 3.11562)
(6.67804 0 3.12051)
(5.99562 0 3.38412)
(6.305 0 3.40101)
(5.56319 0 3.65601)
(5.89945 0 3.69076)
(5.08989 0 3.92357)
(5.45545 0 3.98443)
(4.56784 0 4.17558)
(4.96519 0 4.27382)
(3.98763 0 4.39644)
(4.41885 0 4.54681)
(3.33926 0 4.56538)
(3.80523 0 4.7861)
(2.61384 0 4.65537)
(3.11121 0 4.96802)
(1.80723 0 4.63689)
(2.33687 0 5.05999)
(0.925461 0 4.4431)
(1.42939 0 5.02817)
(0.617565 0 4.75492)
(9.98299 0 0.154551)
(9.99334 0 0.10723)
(9.94974 0 0.256352)
(9.97109 0 0.213071)
(9.90061 0 0.359015)
(9.93146 0 0.319099)
(9.83581 0 0.464039)
(9.87579 0 0.426872)
(9.7556 0 0.572821)
(9.8051 0 0.537861)
(9.66015 0 0.686624)
(9.71973 0 0.653423)
(9.54953 0 0.806625)
(9.6197 0 0.774792)
(9.42368 0 0.933966)
(9.50498 0 0.903153)
(9.28248 0 1.06978)
(9.37551 0 1.03967)
(9.12575 0 1.21517)
(9.23117 0 1.1855)
(8.9532 0 1.37125)
(9.07175 0 1.34179)
(8.76449 0 1.53909)
(8.89696 0 1.50966)
(8.55918 0 1.71976)
(8.70645 0 1.69023)
(8.33674 0 1.91426)
(8.49977 0 1.88461)
(8.0965 0 2.1235)
(8.27632 0 2.09383)
(7.83757 0 2.34827)
(8.03534 0 2.31886)
(7.5588 0 2.58915)
(7.77582 0 2.56056)
(7.25863 0 2.8464)
(7.4964 0 2.81958)
(6.9349 0 3.11982)
(7.19519 0 3.09629)
(6.58465 0 3.40851)
(6.86957 0 3.39063)
(6.20373 0 3.71052)
(6.5159 0 3.70188)
(5.7865 0 4.02236)
(6.1291 0 4.02828)
(5.32535 0 4.33827)
(5.70223 0 4.36651)
(4.81039 0 4.64923)
(5.22589 0 4.71081)
(4.22947 0 4.94154)
(4.68785 0 5.0517)
(3.56886 0 5.19524)
(4.07327 0 5.37413)
(2.8153 0 5.38131)
(3.36337 0 5.65501)
(1.96056 0 5.46291)
(2.55294 0 5.85808)
(1.00941 0 5.35356)
(1.57818 0 5.93776)
(0.677376 0 5.74358)
(9.98377 0 0.166815)
(9.99368 0 0.115177)
(9.95212 0 0.27686)
(9.97257 0 0.228945)
(9.90548 0 0.38799)
(9.93505 0 0.343062)
(9.8441 0 0.501745)
(9.88243 0 0.459162)
(9.76825 0 0.619548)
(9.81576 0 0.578736)
(9.67809 0 0.742718)
(9.73537 0 0.703177)
(9.57373 0 0.872497)
(9.64129 0 0.83378)
(9.45517 0 1.01009)
(9.53355 0 0.971792)
(9.32232 0 1.1567)
(9.41211 0 1.11844)
(9.17504 0 1.31349)
(9.27692 0 1.27494)
(9.01312 0 1.48165)
(9.12782 0 1.44249)
(8.83626 0 1.66235)
(8.96461 0 1.62231)
(8.64408 0 1.85673)
(8.78698 0 1.81561)
(8.43609 0 2.06593)
(8.59453 0 2.02358)
(8.21161 0 2.29106)
(8.38672 0 2.24744)
(7.96976 0 2.53315)
(8.16284 0 2.48837)
(7.70932 0 2.79312)
(7.92186 0 2.74752)
(7.4286 0 3.07174)
(7.66241 0 3.02596)
(7.12528 0 3.36953)
(7.38253 0 3.32469)
(6.79607 0 3.68658)
(7.07949 0 3.64453)
(6.43637 0 4.02239)
(6.74942 0 3.98599)
(6.0398 0 4.37539)
(6.38687 0 4.3491)
(5.59759 0 4.74231)
(5.9842 0 4.73291)
(5.0979 0 5.11714)
(5.5308 0 5.13483)
(4.52538 0 5.48934)
(5.01209 0 5.54928)
(3.86115 0 5.84128)
(4.409 0 5.96539)
(3.08428 0 6.14336)
(3.69486 0 6.36325)
(2.17661 0 6.35113)
(2.85362 0 6.70559)
(1.13432 0 6.35256)
(1.80053 0 6.9345)
(0.776712 0 6.85457)
(9.98466 0 0.178446)
(9.99406 0 0.122687)
(9.95479 0 0.296273)
(9.97421 0 0.243929)
(9.91085 0 0.41536)
(9.93897 0 0.365636)
(9.85314 0 0.537299)
(9.88964 0 0.489521)
(9.78193 0 0.663547)
(9.82725 0 0.617107)
(9.69742 0 0.795467)
(9.75212 0 0.74982)
(9.59972 0 0.934359)
(9.66434 0 0.889003)
(9.48888 0 1.08149)
(9.56395 0 1.03596)
(9.36488 0 1.2381)
(9.451 0 1.19196)
(9.22764 0 1.40544)
(9.32546 0 1.35828)
(9.077 0 1.58474)
(9.18727 0 1.53618)
(8.91275 0 1.77726)
(9.03628 0 1.72694)
(8.73457 0 1.98426)
(8.87228 0 1.93185)
(8.54204 0 2.207)
(8.69496 0 2.15223)
(8.33454 0 2.44677)
(8.50386 0 2.38944)
(8.11126 0 2.70487)
(8.29835 0 2.64487)
(7.871 0 2.9826)
(8.07753 0 2.91998)
(7.61212 0 3.28126)
(7.8401 0 3.21629)
(7.33228 0 3.60213)
(7.58425 0 3.53541)
(7.02814 0 3.94643)
(7.30735 0 3.87908)
(6.695 0 4.31522)
(7.00565 0 4.24913)
(6.32616 0 4.70916)
(6.67382 0 4.64748)
(5.91214 0 5.12806)
(6.30413 0 5.07594)
(5.4396 0 5.56997)
(5.88551 0 5.53582)
(4.89001 0 6.02946)
(5.40184 0 6.02695)
(4.23817 0 6.49441)
(4.83023 0 6.54561)
(3.4515 0 6.93913)
(4.13485 0 7.08043)
(2.49235 0 7.31544)
(3.28219 0 7.60116)
(1.33112 0 7.48026)
(2.14786 0 8.045)
(0.950751 0 8.15832)
(9.98564 0 0.189382)
(9.99446 0 0.12972)
(9.95769 0 0.314498)
(9.97598 0 0.25795)
(9.91663 0 0.44101)
(9.94317 0 0.386726)
(9.86281 0 0.570565)
(9.89732 0 0.517836)
(9.79651 0 0.704654)
(9.83942 0 0.652838)
(9.71792 0 0.844679)
(9.76982 0 0.793188)
(9.62723 0 0.991984)
(9.68862 0 0.940268)
(9.52451 0 1.14788)
(9.59593 0 1.09542)
(9.4098 0 1.31367)
(9.49183 0 1.25997)
(9.2831 0 1.49064)
(9.37638 0 1.43522)
(9.14432 0 1.68009)
(9.24959 0 1.62249)
(8.99333 0 1.88334)
(9.11139 0 1.82311)
(8.82993 0 2.10174)
(8.96168 0 2.03845)
(8.65377 0 2.33671)
(8.80025 0 2.26993)
(8.46438 0 2.58969)
(8.62679 0 2.51905)
(8.26106 0 2.86224)
(8.44082 0 2.78738)
(8.04278 0 3.15602)
(8.24163 0 3.07667)
(7.80809 0 3.47286)
(8.02817 0 3.38884)
(7.55486 0 3.8148)
(7.79891 0 3.72609)
(7.28007 0 4.18417)
(7.55165 0 4.091)
(6.97932 0 4.58364)
(7.28317 0 4.48668)
(6.64627 0 5.01628)
(6.98883 0 4.91691)
(6.27162 0 5.48539)
(6.66177 0 5.38635)
(5.84169 0 5.9942)
(6.2918 0 5.90066)
(5.336 0 6.54481)
(5.86329 0 6.46645)
(4.72366 0 7.1357)
(5.35229 0 7.09067)
(3.95786 0 7.75478)
(4.71644 0 7.77859)
(2.9689 0 8.36576)
(3.90265 0 8.52458)
(1.6642 0 8.8031)
(2.72003 0 9.29269)
(1.28259 0 9.7883)
(9.98668 0 0.19957)
(9.99489 0 0.136243)
(9.96077 0 0.331458)
(9.97784 0 0.270946)
(9.92276 0 0.464845)
(9.9476 0 0.40625)
(9.87301 0 0.60143)
(9.90538 0 0.544008)
(9.81182 0 0.742736)
(9.85215 0 0.685811)
(9.73942 0 0.890197)
(9.78829 0 0.833142)
(9.65602 0 1.04519)
(9.71393 0 0.987413)
(9.56174 0 1.20908)
(9.6292 0 1.15)
(9.4567 0 1.38318)
(9.53428 0 1.32225)
(9.34095 0 1.56882)
(9.42927 0 1.50551)
(9.21451 0 1.76737)
(9.31427 0 1.70113)
(9.07735 0 1.98019)
(9.18932 0 1.91048)
(8.92936 0 2.20872)
(9.05443 0 2.135)
(8.77037 0 2.45447)
(8.90953 0 2.37617)
(8.60006 0 2.71905)
(8.75448 0 2.6356)
(8.41793 0 3.00423)
(8.58903 0 2.91503)
(8.22324 0 3.31199)
(8.41272 0 3.21643)
(8.01487 0 3.64461)
(8.22486 0 3.54204)
(7.79117 0 4.00481)
(8.02443 0 3.89453)
(7.54975 0 4.3959)
(7.80989 0 4.27719)
(7.2871 0 4.82204)
(7.57897 0 4.69414)
(6.99803 0 5.28853)
(7.32838 0 5.15076)
(6.67479 0 5.80225)
(7.0532 0 5.65417)
(6.30542 0 6.37213)
(6.74602 0 6.2141)
(5.87085 0 7.00974)
(6.39508 0 6.84413)
(5.33929 0 7.72991)
(5.98155 0 7.56383)
(4.65452 0 8.5497)
(5.46833 0 8.40287)
(3.70956 0 9.48557)
(4.80234 0 9.40691)
(2.28664 0 10.4396)
(3.73192 0 10.6534)
(1.99869 0 12.0279)
(9.98777 0 0.208969)
(9.99534 0 0.142233)
(9.96399 0 0.347088)
(9.97978 0 0.282871)
(9.92916 0 0.486775)
(9.9522 0 0.424143)
(9.88364 0 0.629775)
(9.91375 0 0.567957)
(9.82774 0 0.777641)
(9.86536 0 0.715932)
(9.76174 0 0.931829)
(9.80742 0 0.869571)
(9.68585 0 1.09375)
(9.74011 0 1.03031)
(9.60028 0 1.26477)
(9.66361 0 1.19953)
(9.5052 0 1.44626)
(9.57816 0 1.37863)
(9.40074 0 1.63958)
(9.48393 0 1.56895)
(9.28702 0 1.8461)
(9.38112 0 1.77186)
(9.16411 0 2.06724)
(9.26988 0 1.98877)
(9.03207 0 2.3045)
(9.15033 0 2.22114)
(8.89086 0 2.55946)
(9.0226 0 2.47052)
(8.7404 0 2.83384)
(8.88672 0 2.73857)
(8.58045 0 3.12958)
(8.7427 0 3.02714)
(8.41064 0 3.44889)
(8.59043 0 3.33833)
(8.23032 0 3.79439)
(8.42968 0 3.67461)
(8.03854 0 4.16928)
(8.26004 0 4.03895)
(7.83385 0 4.5776)
(8.08086 0 4.43505)
(7.61412 0 5.02462)
(7.89116 0 4.8677)
(7.37621 0 5.51735)
(7.68956 0 5.34322)
(7.11538 0 6.06548)
(7.47405 0 5.87028)
(6.82424 0 6.68279)
(7.24183 0 6.46116)
(6.49068 0 7.38975)
(6.98882 0 7.13404)
(6.09316 0 8.21899)
(6.70995 0 7.91768)
(5.58895 0 9.22817)
(6.39572 0 8.86255)
(4.87572 0 10.5496)
(6.06488 0 10.0729)
(3.62016 0 12.6182)
(5.75878 0 11.8541)
(4.84446 0 15.5736)
(0.505006 0 -0.345701)
(0.132782 0 -0.494622)
(0.788711 0 -0.217369)
(0.413358 0 -0.271309)
(0.920163 0 -0.110395)
(0.466746 0 -0.122739)
(0.90689 0 -0.0105259)
(0.410523 0 0.0121013)
(0.770265 0 0.0694222)
(0.243928 0 0.121615)
(0.537505 0 0.123725)
(-0.00841023 0 0.202294)
(0.232353 0 0.156312)
(-0.330118 0 0.258948)
(-0.125217 0 0.173541)
(-0.705827 0 0.296261)
(-0.520449 0 0.181769)
(-1.11496 0 0.319732)
(-0.944084 0 0.184515)
(-1.55434 0 0.334616)
(-1.38707 0 0.182648)
(-2.01393 0 0.341635)
(-1.84056 0 0.176838)
(-2.48511 0 0.34148)
(-2.29597 0 0.167631)
(-2.95964 0 0.334823)
(-2.74484 0 0.155462)
(-3.4294 0 0.322221)
(-3.17876 0 0.140677)
(-3.88626 0 0.304129)
(-3.58926 0 0.123553)
(-4.32205 0 0.280924)
(-3.96779 0 0.104303)
(-4.72843 0 0.252923)
(-4.30563 0 0.0830767)
(-5.09697 0 0.220405)
(-4.59393 0 0.0599617)
(-5.41908 0 0.183643)
(-4.82377 0 0.0349304)
(-5.68601 0 0.142946)
(-4.98628 0 0.0076944)
(-5.88858 0 0.0986846)
(-5.07198 0 -0.0226985)
(-6.01724 0 0.0508123)
(-5.06708 0 -0.0590888)
(-6.06337 0 -0.00283622)
(-4.95634 0 -0.103023)
(-6.02027 0 -0.0625904)
(-4.71994 0 -0.154127)
(-5.87238 0 -0.130468)
(-4.34206 0 -0.214144)
(-5.60944 0 -0.203622)
(-3.80135 0 -0.286366)
(-5.20739 0 -0.284482)
(-3.06055 0 -0.366205)
(-4.6319 0 -0.380545)
(-2.09601 0 -0.419705)
(-3.89215 0 -0.483781)
(-3.19316 0 -0.480398)
(0.102704 0 -0.481838)
(-0.0925308 0 -0.595215)
(0.092606 0 -0.216406)
(-0.0923504 0 -0.261652)
(-0.0457764 0 -0.00114299)
(-0.295345 0 0.00647106)
(-0.263442 0 0.164302)
(-0.525973 0 0.210539)
(-0.542277 0 0.286456)
(-0.818605 0 0.369816)
(-0.87661 0 0.376211)
(-1.1625 0 0.492866)
(-1.25875 0 0.439786)
(-1.54876 0 0.583227)
(-1.6807 0 0.482624)
(-1.97039 0 0.645867)
(-2.134 0 0.510048)
(-2.42079 0 0.686434)
(-2.60867 0 0.525305)
(-2.89256 0 0.709547)
(-3.09612 0 0.529806)
(-3.3778 0 0.717558)
(-3.58829 0 0.524618)
(-3.86918 0 0.712088)
(-4.07736 0 0.510593)
(-4.35956 0 0.694391)
(-4.5555 0 0.488394)
(-4.84182 0 0.665455)
(-5.01484 0 0.458548)
(-5.30873 0 0.626074)
(-5.44734 0 0.421478)
(-5.75292 0 0.576901)
(-5.84479 0 0.377539)
(-6.16677 0 0.518493)
(-6.19882 0 0.327056)
(-6.54249 0 0.451367)
(-6.50089 0 0.270358)
(-6.87212 0 0.376058)
(-6.74247 0 0.207732)
(-7.14754 0 0.2932)
(-6.9151 0 0.139146)
(-7.36049 0 0.203512)
(-7.0101 0 0.0637469)
(-7.50276 0 0.107142)
(-7.0221 0 -0.0199172)
(-7.56686 0 0.00410576)
(-6.94183 0 -0.112489)
(-7.54976 0 -0.107958)
(-6.76683 0 -0.212751)
(-7.44824 0 -0.227048)
(-6.49287 0 -0.320321)
(-7.25822 0 -0.351246)
(-6.12093 0 -0.436552)
(-6.96985 0 -0.480166)
(-5.66574 0 -0.553138)
(-6.57118 0 -0.614377)
(-5.15805 0 -0.638183)
(-6.10157 0 -0.738422)
(-5.77087 0 -0.81852)
(-0.22285 0 -0.337017)
(-0.25584 0 -0.376946)
(-0.483559 0 -0.00995235)
(-0.482468 0 -0.0123348)
(-0.765392 0 0.244328)
(-0.821769 0 0.269624)
(-1.08437 0 0.439349)
(-1.16065 0 0.501339)
(-1.44137 0 0.592482)
(-1.53217 0 0.6876)
(-1.83236 0 0.709331)
(-1.93008 0 0.832677)
(-2.25368 0 0.794039)
(-2.35243 0 0.940754)
(-2.70105 0 0.851364)
(-2.79651 0 1.01653)
(-3.16883 0 0.885921)
(-3.25868 0 1.06485)
(-3.65029 0 0.901109)
(-3.73415 0 1.08984)
(-4.13884 0 0.899111)
(-4.21756 0 1.09434)
(-4.62805 0 0.881545)
(-4.70344 0 1.08046)
(-5.11147 0 0.849675)
(-5.18616 0 1.04981)
(-5.58256 0 0.804514)
(-5.6599 0 1.00363)
(-6.0346 0 0.7469)
(-6.11854 0 0.942901)
(-6.46063 0 0.677565)
(-6.55568 0 0.868451)
(-6.85348 0 0.5972)
(-6.9646 0 0.780987)
(-7.20576 0 0.506536)
(-7.33829 0 0.681198)
(-7.50996 0 0.406416)
(-7.66947 0 0.569828)
(-7.75849 0 0.297831)
(-7.95075 0 0.447767)
(-7.94382 0 0.181744)
(-8.17468 0 0.31606)
(-8.05977 0 0.0586375)
(-8.33413 0 0.175887)
(-8.09851 0 -0.0714306)
(-8.42271 0 0.0265314)
(-8.0614 0 -0.208866)
(-8.4372 0 -0.12893)
(-7.94338 0 -0.352275)
(-8.37954 0 -0.292183)
(-7.74543 0 -0.498775)
(-8.24745 0 -0.457911)
(-7.47451 0 -0.646424)
(-8.03618 0 -0.622702)
(-7.14651 0 -0.789539)
(-7.73935 0 -0.782873)
(-6.7629 0 -0.910626)
(-7.3944 0 -0.930829)
(-7.16938 0 -1.05184)
(-0.4176 0 -0.00240632)
(-0.34531 0 0.0320671)
(-0.815374 0 0.314056)
(-0.690892 0 0.368059)
(-1.20747 0 0.566632)
(-1.12885 0 0.635734)
(-1.60693 0 0.775452)
(-1.5476 0 0.865515)
(-2.01921 0 0.943351)
(-1.97304 0 1.05458)
(-2.44653 0 1.0729)
(-2.40625 0 1.20407)
(-2.8893 0 1.16746)
(-2.84938 0 1.31648)
(-3.34635 0 1.23104)
(-3.30293 0 1.39522)
(-3.81506 0 1.26762)
(-3.766 0 1.44403)
(-4.29163 0 1.28049)
(-4.23641 0 1.46627)
(-4.77175 0 1.27212)
(-4.71109 0 1.46461)
(-5.25071 0 1.24441)
(-5.18634 0 1.44112)
(-5.7235 0 1.19883)
(-5.65795 0 1.39741)
(-6.18471 0 1.13654)
(-6.12122 0 1.33471)
(-6.62859 0 1.05845)
(-6.57095 0 1.25401)
(-7.04895 0 0.965334)
(-7.00148 0 1.15612)
(-7.43925 0 0.857881)
(-7.40667 0 1.04178)
(-7.79264 0 0.736788)
(-7.78001 0 0.911749)
(-8.10205 0 0.602859)
(-8.11466 0 0.76692)
(-8.36036 0 0.457093)
(-8.40358 0 0.60842)
(-8.56066 0 0.300675)
(-8.63973 0 0.437693)
(-8.69645 0 0.134671)
(-8.81663 0 0.256396)
(-8.76421 0 -0.0406167)
(-8.92901 0 0.0657581)
(-8.76029 0 -0.223052)
(-8.97243 0 -0.131147)
(-8.68674 0 -0.408323)
(-8.95138 0 -0.33277)
(-8.5454 0 -0.591881)
(-8.8654 0 -0.534075)
(-8.34434 0 -0.76926)
(-8.71203 0 -0.728484)
(-8.09558 0 -0.936831)
(-8.48854 0 -0.910659)
(-7.80118 0 -1.08366)
(-8.22926 0 -1.07849)
(-8.06624 0 -1.21625)
(-0.515144 0 0.44482)
(-0.377303 0 0.536619)
(-0.997133 0 0.722572)
(-0.787847 0 0.828988)
(-1.45828 0 0.958118)
(-1.28886 0 1.06631)
(-1.90897 0 1.15998)
(-1.75265 0 1.2764)
(-2.35606 0 1.32498)
(-2.2092 0 1.45255)
(-2.80443 0 1.4535)
(-2.66113 0 1.59375)
(-3.25711 0 1.54743)
(-3.1128 0 1.70061)
(-3.71546 0 1.60955)
(-3.56689 0 1.77498)
(-4.17926 0 1.64281)
(-4.02459 0 1.81923)
(-4.647 0 1.64986)
(-4.48573 0 1.83572)
(-5.1162 0 1.63281)
(-4.94901 0 1.82646)
(-5.58365 0 1.59336)
(-5.41215 0 1.7931)
(-6.04544 0 1.53279)
(-5.87209 0 1.73692)
(-6.49708 0 1.45212)
(-6.325 0 1.65892)
(-6.93349 0 1.35218)
(-6.7664 0 1.55988)
(-7.34905 0 1.23372)
(-7.19118 0 1.44051)
(-7.73771 0 1.09751)
(-7.59368 0 1.30147)
(-8.09299 0 0.94443)
(-7.96775 0 1.14354)
(-8.40821 0 0.775636)
(-8.30686 0 0.967711)
(-8.67658 0 0.592616)
(-8.60424 0 0.775329)
(-8.89149 0 0.397241)
(-8.85313 0 0.568199)
(-9.04704 0 0.191713)
(-9.04739 0 0.348625)
(-9.13977 0 -0.0212637)
(-9.18206 0 0.119436)
(-9.16782 0 -0.238987)
(-9.25338 0 -0.115288)
(-9.13306 0 -0.457534)
(-9.26515 0 -0.351953)
(-9.03865 0 -0.670255)
(-9.21873 0 -0.584951)
(-8.89238 0 -0.870635)
(-9.11312 0 -0.805439)
(-8.70421 0 -1.05542)
(-8.9488 0 -1.00732)
(-8.48214 0 -1.21434)
(-8.75664 0 -1.18987)
(-8.63808 0 -1.33316)
(-0.552221 0 0.939266)
(-0.37692 0 1.07748)
(-1.07536 0 1.18478)
(-0.814466 0 1.32927)
(-1.57065 0 1.39261)
(-1.34218 0 1.52877)
(-2.04626 0 1.57416)
(-1.82241 0 1.70999)
(-2.50881 0 1.72447)
(-2.28891 0 1.86428)
(-2.96409 0 1.8425)
(-2.74372 0 1.98944)
(-3.41655 0 1.92864)
(-3.19234 0 2.08457)
(-3.86919 0 1.98428)
(-3.63869 0 2.15001)
(-4.32347 0 2.01114)
(-4.08534 0 2.18673)
(-4.77947 0 2.01093)
(-4.53349 0 2.1959)
(-5.23611 0 1.98511)
(-4.98303 0 2.17862)
(-5.69127 0 1.93489)
(-5.43277 0 2.13584)
(-6.14197 0 1.86118)
(-5.88048 0 2.06829)
(-6.58443 0 1.76473)
(-6.32304 0 1.97654)
(-7.01415 0 1.64618)
(-6.75654 0 1.86107)
(-7.42598 0 1.50613)
(-7.17631 0 1.72234)
(-7.81422 0 1.34527)
(-7.57705 0 1.56088)
(-8.1727 0 1.16446)
(-7.95292 0 1.37741)
(-8.49495 0 0.964939)
(-8.29758 0 1.17298)
(-8.77436 0 0.748367)
(-8.60443 0 0.94911)
(-9.00456 0 0.517047)
(-8.86688 0 0.707985)
(-9.17997 0 0.274081)
(-9.07893 0 0.45263)
(-9.29706 0 0.0235889)
(-9.2358 0 0.187221)
(-9.35441 0 -0.229764)
(-9.3342 0 -0.0828718)
(-9.35421 0 -0.480605)
(-9.37577 0 -0.352066)
(-9.30021 0 -0.721118)
(-9.36443 0 -0.614044)
(-9.19962 0 -0.94337)
(-9.30013 0 -0.858365)
(-9.06197 0 -1.14343)
(-9.18611 0 -1.07803)
(-8.89961 0 -1.30977)
(-9.0494 0 -1.27131)
(-8.96558 0 -1.4156)
(-0.551869 0 1.46069)
(-0.358492 0 1.61801)
(-1.08029 0 1.66986)
(-0.792833 0 1.83461)
(-1.58045 0 1.84386)
(-1.3171 0 1.99578)
(-2.0576 0 1.99825)
(-1.78909 0 2.145)
(-2.5175 0 2.12755)
(-2.24612 0 2.27365)
(-2.96605 0 2.22983)
(-2.68866 0 2.37928)
(-3.4083 0 2.30421)
(-3.12277 0 2.45986)
(-3.84814 0 2.35066)
(-3.55296 0 2.51443)
(-4.28805 0 2.36964)
(-3.98253 0 2.5426)
(-4.72914 0 2.36174)
(-4.41349 0 2.5443)
(-5.17124 0 2.32754)
(-4.8465 0 2.51958)
(-5.61305 0 2.26753)
(-5.28105 0 2.46852)
(-6.05224 0 2.18207)
(-5.71552 0 2.39118)
(-6.48557 0 2.07147)
(-6.14729 0 2.2876)
(-6.90899 0 1.93604)
(-6.57287 0 2.15784)
(-7.31771 0 1.77614)
(-6.98797 0 2.00204)
(-7.70631 0 1.59234)
(-7.38756 0 1.82053)
(-8.06883 0 1.38549)
(-7.76601 0 1.61392)
(-8.39897 0 1.15695)
(-8.11717 0 1.38327)
(-8.69025 0 0.908711)
(-8.43454 0 1.13027)
(-8.93645 0 0.643689)
(-8.71156 0 0.85749)
(-9.13212 0 0.365992)
(-8.94218 0 0.568642)
(-9.2734 0 0.0810003)
(-9.12156 0 0.269011)
(-9.3586 0 -0.205042)
(-9.24665 0 -0.0347163)
(-9.39007 0 -0.485415)
(-9.31584 0 -0.334695)
(-9.37209 0 -0.751241)
(-9.33644 0 -0.623735)
(-9.31128 0 -0.993285)
(-9.30899 0 -0.890356)
(-9.21753 0 -1.20621)
(-9.23905 0 -1.12619)
(-9.10534 0 -1.37716)
(-9.14978 0 -1.32758)
(-9.09468 0 -1.47125)
(-0.524723 0 1.97514)
(-0.327561 0 2.13194)
(-1.0313 0 2.14932)
(-0.735747 0 2.31905)
(-1.51196 0 2.28867)
(-1.23221 0 2.44458)
(-1.97006 0 2.41406)
(-1.67486 0 2.56263)
(-2.41055 0 2.52037)
(-2.10485 0 2.66575)
(-2.83917 0 2.60524)
(-2.52074 0 2.75179)
(-3.26113 0 2.66671)
(-2.92904 0 2.81793)
(-3.68069 0 2.70349)
(-3.33437 0 2.86205)
(-4.10081 0 2.71474)
(-3.74036 0 2.88247)
(-4.52316 0 2.69991)
(-4.14934 0 2.8779)
(-4.94811 0 2.65858)
(-4.56236 0 2.8473)
(-5.37484 0 2.59042)
(-4.97928 0 2.78985)
(-5.80148 0 2.49517)
(-5.39883 0 2.70486)
(-6.22519 0 2.37263)
(-5.81877 0 2.59176)
(-6.64226 0 2.22269)
(-6.23591 0 2.45016)
(-7.04818 0 2.04546)
(-6.64624 0 2.27983)
(-7.43776 0 1.84131)
(-7.04498 0 2.08084)
(-7.80522 0 1.61104)
(-7.42668 0 1.85365)
(-8.14435 0 1.35608)
(-7.78531 0 1.59929)
(-8.44872 0 1.07868)
(-8.11438 0 1.31957)
(-8.71206 0 0.78225)
(-8.40721 0 1.01741)
(-8.92876 0 0.471696)
(-8.65742 0 0.697124)
(-9.09442 0 0.15351)
(-8.85974 0 0.364913)
(-9.2064 0 -0.164125)
(-9.01077 0 0.0285775)
(-9.26712 0 -0.472648)
(-9.10722 0 -0.301185)
(-9.28193 0 -0.762374)
(-9.15741 0 -0.615753)
(-9.25675 0 -1.02292)
(-9.16363 0 -0.903604)
(-9.2019 0 -1.24711)
(-9.13316 0 -1.15437)
(-9.13276 0 -1.42124)
(-9.08563 0 -1.36226)
(-9.05539 0 -1.50477)
(-0.476766 0 2.45673)
(-0.287447 0 2.5989)
(-0.940537 0 2.60016)
(-0.651292 0 2.76256)
(-1.3816 0 2.70733)
(-1.1001 0 2.85641)
(-1.8026 0 2.80536)
(-1.49525 0 2.94644)
(-2.20828 0 2.89001)
(-1.88229 0 3.02686)
(-2.60432 0 2.95875)
(-2.25798 0 3.096)
(-2.99593 0 3.00866)
(-2.62943 0 3.15025)
(-3.3874 0 3.03727)
(-3.00115 0 3.1864)
(-3.78181 0 3.04252)
(-3.37672 0 3.20154)
(-4.18097 0 3.02268)
(-3.75844 0 3.19318)
(-4.58546 0 2.97636)
(-4.1474 0 3.15925)
(-4.99472 0 2.9024)
(-4.54356 0 3.09802)
(-5.40713 0 2.79984)
(-4.94584 0 3.00807)
(-5.82014 0 2.66793)
(-5.35221 0 2.88824)
(-6.23029 0 2.50615)
(-5.75972 0 2.73763)
(-6.63332 0 2.31427)
(-6.16459 0 2.55564)
(-7.02422 0 2.09245)
(-6.56228 0 2.34203)
(-7.39735 0 1.84136)
(-6.94751 0 2.09708)
(-7.74651 0 1.56244)
(-7.31431 0 1.8217)
(-8.06517 0 1.25816)
(-7.65613 0 1.51777)
(-8.34679 0 0.932326)
(-7.96596 0 1.18842)
(-8.58516 0 0.590511)
(-8.23682 0 0.838462)
(-8.77505 0 0.240404)
(-8.46268 0 0.474839)
(-8.91385 0 -0.107846)
(-8.63936 0 0.107034)
(-9.00316 0 -0.443556)
(-8.76464 0 -0.251899)