/*--------------------------------*- C++ -*----------------------------------*\
  =========                 |
  \\      /  F ield         | OpenFOAM: The Open Source CFD Toolbox
   \\    /   O peration     | Website:  https://openfoam.org
    \\  /    A nd           | Version:  dev
     \\/     M anipulation  |
\*---------------------------------------------------------------------------*/
FoamFile
{
    version     2.0;
    format      ascii;
    class       volScalarField;
    location    "5";
    object      p;
}
// * * * * * * * * * * * * * * * * * * * * * * * * * * * * * * * * * * * * * //

dimensions      [0 2 -2 0 0 0 0];

internalField   nonuniform List<scalar> 
2790
(
147.013
146.921
147.188
147.759
148.539
149.496
150.629
151.935
153.412
155.053
156.852
158.803
160.897
163.122
165.462
167.898
170.402
172.941
175.473
177.947
180.305
182.483
184.414
186.034
187.294
188.168
188.604
188.659
188.71
188.923
146.811
146.828
147.12
147.689
148.465
149.419
150.547
151.847
153.317
154.949
156.739
158.68
160.763
162.977
165.306
167.732
170.228
172.761
175.291
177.769
180.138
182.333
184.287
185.936
187.22
188.095
188.491
188.546
188.678
188.963
146.612
146.699
147.011
147.569
148.332
149.273
150.386
151.668
153.116
154.724
156.486
158.396
160.444
162.619
164.907
167.29
169.741
172.232
174.724
177.172
179.521
181.714
183.687
185.376
186.727
187.703
188.296
188.651
188.967
189.265
146.387
146.505
146.829
147.378
148.127
149.052
150.145
151.403
152.823
154.397
156.12
157.986
159.985
162.105
164.333
166.651
169.036
171.459
173.886
176.276
178.584
180.755
182.737
184.477
185.931
187.083
187.951
188.622
189.175
189.694
146.126
146.259
146.591
147.133
147.865
148.769
149.836
151.063
152.445
153.976
155.65
157.46
159.395
161.446
163.598
165.833
168.131
170.467
172.808
175.121
177.366
179.501
181.484
183.274
184.845
186.187
187.317
188.28
189.091
189.838
145.825
145.963
146.298
146.83
147.542
148.42
149.456
150.645
151.982
153.462
155.077
156.82
158.68
160.648
162.709
164.847
167.042
169.272
171.508
173.724
175.886
177.964
179.926
181.747
183.41
184.911
186.258
187.463
188.483
189.401
145.483
145.622
145.953
146.472
147.161
148.009
149.008
150.154
151.439
152.859
154.406
156.072
157.847
159.72
161.677
163.703
165.779
167.884
169.997
172.093
174.148
176.139
178.047
179.857
181.563
183.164
184.658
186.037
187.201
188.248
145.098
145.235
145.559
146.062
146.725
147.539
148.496
149.592
150.82
152.173
153.643
155.222
156.901
158.667
160.507
162.406
164.347
166.311
168.279
170.231
172.148
174.016
175.823
177.565
179.244
180.863
182.417
183.89
185.14
186.29
144.672
144.805
145.119
145.602
146.236
147.012
147.923
148.964
150.127
151.406
152.792
154.277
155.849
157.497
159.208
160.966
162.756
164.559
166.359
168.137
169.881
171.579
173.227
174.827
176.389
177.924
179.432
180.903
182.174
183.412
144.205
144.333
144.634
145.094
145.697
146.432
147.293
148.273
149.367
150.566
151.86
153.242
154.699
156.219
157.788
159.392
161.014
162.636
164.242
165.816
167.344
168.818
170.236
171.604
172.937
174.256
175.576
176.914
178.114
179.419
143.7
143.822
144.107
144.542
145.11
145.801
146.608
147.525
148.544
149.656
150.854
152.125
153.458
154.841
156.258
157.694
159.132
160.553
161.939
163.274
164.542
165.732
166.839
167.867
168.831
169.76
170.69
171.689
172.651
173.97
143.158
143.272
143.541
143.949
144.48
145.123
145.873
146.722
147.662
148.685
149.779
150.933
152.136
153.373
154.629
155.885
157.124
158.324
159.466
160.529
161.49
162.332
163.041
163.606
164.033
164.343
164.586
164.894
165.276
166.449
142.581
142.688
142.937
143.317
143.809
144.403
145.093
145.871
146.729
147.656
148.643
149.676
150.743
151.827
152.912
153.979
155.006
155.969
156.845
157.604
158.217
158.651
158.873
158.848
158.545
157.947
157.073
156.081
155.134
155.639
141.972
142.07
142.3
142.65
143.101
143.644
144.271
144.976
145.749
146.579
147.454
148.362
149.287
150.214
151.123
151.992
152.797
153.511
154.102
154.534
154.764
154.741
154.402
153.67
152.447
150.618
148.056
144.755
140.809
138.775
141.332
141.422
141.632
141.95
142.359
142.849
143.413
144.042
144.728
145.457
146.219
146.999
147.781
148.546
149.274
149.941
150.518
150.974
151.271
151.361
151.188
150.677
149.732
148.217
145.938
142.607
137.764
130.75
120.292
108.076
1.16177
1.14376
1.08062
0.993209
0.902027
0.816767
0.740274
0.672584
0.612817
0.559789
0.512229
0.468919
0.428767
0.390847
0.354404
0.318877
0.283916
0.249422
0.215566
0.18278
0.151665
0.122828
0.096694
0.0734462
0.0533761
0.0363985
0.0225748
0.012011
0.00471301
-0.000335505
1.11735
1.09659
1.03697
0.956432
0.872652
0.793884
0.722663
0.659144
0.602623
0.552088
0.506434
0.464575
0.42552
0.388406
0.352526
0.31734
0.282518
0.247984
0.213955
0.180936
0.149623
0.120713
0.0947227
0.0719045
0.0520462
0.035145
0.0214336
0.0110621
0.00426641
0.00109531
1.06871
1.04356
0.986054
0.912064
0.836298
0.764927
0.699912
0.641427
0.588896
0.541474
0.498229
0.458223
0.420582
0.384527
0.349403
0.314703
0.280119
0.245603
0.211428
0.178198
0.146729
0.117821
0.0919963
0.0693604
0.0496683
0.0327896
0.0188382
0.00861423
0.00282727
0.00150869
1.02252
0.992983
0.936949
0.868641
0.800335
0.735936
0.676832
0.62321
0.574573
0.530227
0.489393
0.451266
0.415079
0.380133
0.345829
0.311698
0.277452
0.243064
0.208852
0.175495
0.143912
0.115001
0.0893167
0.0669112
0.0474763
0.03078
0.0170118
0.00690787
0.00114617
-0.000147667
0.991611
0.957828
0.903306
0.839216
0.776409
0.716904
0.661766
0.611346
0.565254
0.522917
0.483652
0.446741
0.411488
0.377251
0.343475
0.30972
0.275717
0.241458
0.207288
0.173924
0.142338
0.113466
0.0878849
0.0656425
0.0464308
0.0299826
0.0164398
0.00665143
0.00154994
-0.000166334
0.987228
0.948234
0.894654
0.831983
0.771127
0.713055
0.658966
0.609134
0.563457
0.521429
0.48239
0.445639
0.410492
0.376322
0.342591
0.30888
0.274941
0.240785
0.206763
0.173574
0.142145
0.113376
0.087829
0.0655857
0.046414
0.0301268
0.0169898
0.00729751
0.00149889
-0.000322407
1.01914
0.972587
0.916381
0.850181
0.78569
0.724455
0.667786
0.615791
0.568349
0.524904
0.484724
0.447054
0.411176
0.376441
0.342306
0.308363
0.274395
0.240423
0.206764
0.174013
0.142957
0.114403
0.0889194
0.0666426
0.0475094
0.0312115
0.0176543
0.00747015
0.00124269
-0.000435704
1.09291
1.03475
0.96717
0.889987
0.81569
0.746682
0.683869
0.627153
0.576133
0.530021
0.487846
0.448679
0.411678
0.376112
0.341389
0.307116
0.273141
0.239527
0.206533
0.174584
0.144205
0.116019
0.0906103
0.0681013
0.0485499
0.0320985
0.0185137
0.00769683
0.000679225
-0.000601411
1.20772
1.12596
1.03672
0.940378
0.850832
0.771237
0.701154
0.638852
0.583303
0.533831
0.489229
0.448355
0.41021
0.373897
0.338687
0.304194
0.270397
0.237485
0.205653
0.175007
0.145592
0.117658
0.0917978
0.0688753
0.0492886
0.0329238
0.0192252
0.00774622
3.53694e-05
-0.000774191
1.34059
1.22377
1.10696
0.990377
0.882964
0.788754
0.708591
0.641043
0.583216
0.532409
0.486856
0.445286
0.406689
0.370078
0.334596
0.299886
0.266204
0.234052
0.203594
0.174475
0.146274
0.118893
0.0928598
0.069383
0.0494862
0.0332219
0.0195457
0.00757542
-0.000615016
-0.000920746
1.44415
1.30062
1.15336
1.01325
0.892214
0.790483
0.705569
0.634967
0.575782
0.52471
0.479171
0.437705
0.399421
0.36323
0.327972
0.293251
0.259813
0.22878
0.200412
0.173687
0.147179
0.120214
0.0935288
0.0690532
0.0486568
0.0326437
0.0193592
0.0072926
-0.00110944
-0.00100693
1.52135
1.33048
1.15529
0.997058
0.866791
0.762893
0.67941
0.6116
0.555845
0.508028
0.464723
0.424679
0.387772
0.353007
0.318587
0.283875
0.250476
0.220781
0.195399
0.172252
0.148256
0.121759
0.0937831
0.0675226
0.0462673
0.0307868
0.0185535
0.00699166
-0.00134925
-0.000999918
1.50514
1.24607
1.0545
0.902636
0.785442
0.696302
0.625635
0.568091
0.521763
0.481923
0.443493
0.40593
0.371349
0.339329
0.30663
0.271728
0.237642
0.20927
0.188148
0.170404
0.150105
0.124029
0.0937115
0.0643922
0.0416786
0.0272054
0.0170947
0.00685205
-0.00123259
-0.000871815
1.21923
0.910714
0.785071
0.703283
0.632453
0.583515
0.542602
0.503749
0.473179
0.447234
0.416477
0.381386
0.349629
0.322417
0.293119
0.257556
0.221017
0.193318
0.178172
0.168693
0.153887
0.127991
0.0935872
0.0591621
0.0340025
0.0212974
0.0150307
0.00721351
-0.000620891
-0.000598331
0.49388
0.13887
0.253959
0.389416
0.404052
0.433253
0.443723
0.423213
0.409068
0.405926
0.387755
0.353155
0.323072
0.303342
0.280116
0.242343
0.199202
0.170094
0.163531
0.167286
0.160976
0.134851
0.0936999
0.0510647
0.0219044
0.0121532
0.0125154
0.00870535
0.0006892
-0.000162525
140.653
140.734
140.923
141.207
141.572
142.007
142.505
143.057
143.652
144.279
144.924
145.572
146.205
146.805
147.348
147.806
148.15
148.342
148.335
148.075
147.489
146.48
144.915
142.602
139.239
134.333
126.963
115.213
93.058
33.2872
139.926
139.997
140.163
140.413
140.732
141.11
141.539
142.01
142.512
143.032
143.556
144.069
144.55
144.98
145.333
145.58
145.686
145.61
145.299
144.689
143.696
142.206
140.06
137.027
132.749
126.642
117.673
104.109
84.5839
56.1253
139.157
139.218
139.361
139.575
139.846
140.165
140.524
140.912
141.318
141.729
142.131
142.505
142.833
143.092
143.255
143.29
143.161
142.821
142.215
141.272
139.902
137.982
135.349
131.773
126.928
120.358
111.475
99.638
85.3979
68.766
138.346
138.397
138.516
138.693
138.916
139.175
139.461
139.765
140.075
140.377
140.655
140.891
141.066
141.155
141.13
140.959
140.601
140.01
139.128
137.882
136.181
133.908
130.91
126.991
121.903
115.355
107.05
96.6531
84.1033
68.9608
137.496
137.537
137.631
137.771
137.945
138.143
138.357
138.576
138.789
138.981
139.136
139.236
139.26
139.183
138.977
138.607
138.035
137.211
136.08
134.569
132.595
130.05
126.804
122.703
117.565
111.191
103.381
93.8907
82.5534
69.576
136.61
136.64
136.71
136.811
136.936
137.073
137.214
137.349
137.466
137.55
137.584
137.551
137.428
137.192
136.813
136.257
135.486
134.454
133.104
131.374
129.185
126.446
123.053
118.886
113.815
107.706
100.435
91.9034
82.1016
71.4424
135.689
135.708
135.753
135.818
135.892
135.969
136.038
136.09
136.112
136.09
136.007
135.845
135.583
135.196
134.655
133.929
132.98
131.764
130.232
128.325
125.978
123.117
119.658
115.516
110.603
104.839
98.1715
90.5883
82.1329
73.1411
134.736
134.746
134.766
134.793
134.819
134.836
134.835
134.806
134.736
134.611
134.415
134.131
133.737
133.209
132.521
131.641
130.536
129.165
127.484
125.445
122.992
120.066
116.609
112.559
107.863
102.482
96.4022
89.6432
82.2549
74.5097
133.757
133.756
133.752
133.743
133.721
133.679
133.61
133.501
133.343
133.12
132.818
132.419
131.902
131.246
130.424
129.41
128.171
126.673
124.878
122.745
120.23
117.291
113.883
109.971
105.523
100.526
94.9857
88.9362
82.4313
75.6984
132.754
132.743
132.716
132.67
132.602
132.504
132.369
132.185
131.942
131.627
131.225
130.719
130.09
129.318
128.38
127.25
125.9
124.302
122.422
120.23
117.692
114.776
111.455
107.706
103.518
98.8898
93.8404
88.409
82.6485
76.7439
131.732
131.711
131.662
131.582
131.469
131.317
131.118
130.863
130.541
130.14
129.646
129.042
128.313
127.439
126.399
125.172
123.733
122.059
120.123
117.902
115.37
112.507
109.295
105.725
101.794
97.5131
92.9053
88.0098
82.8749
77.6486
130.696
130.666
130.595
130.482
130.327
130.124
129.866
129.544
129.148
128.667
128.089
127.398
126.579
125.616
124.491
123.185
121.678
119.95
117.982
115.755
113.253
110.462
107.374
103.987
100.306
96.3454
92.1307
87.6983
83.0899
78.4249
129.651
129.613
129.521
129.377
129.182
128.931
128.618
128.234
127.771
127.217
126.563
125.794
124.898
123.86
122.665
121.296
119.739
117.977
115.996
113.783
111.328
108.623
105.666
102.46
99.0145
95.3461
91.4794
87.4469
83.2844
79.088
128.604
128.557
128.446
128.273
128.041
127.745
127.381
126.94
126.416
125.798
125.076
124.24
123.278
122.177
120.925
119.509
117.918
116.138
114.161
111.977
109.581
106.97
104.145
101.114
97.8881
94.4836
90.9239
87.2371
83.4537
79.6515
127.56
127.505
127.377
127.177
126.91
126.574
126.163
125.671
125.091
124.415
123.635
122.741
121.724
120.572
119.277
117.828
116.216
114.432
112.471
110.327
107.997
105.484
102.79
99.9251
96.9004
93.7329
90.4432
87.0558
83.5961
80.1274
126.525
126.464
126.319
126.095
125.796
125.423
124.97
124.432
123.804
123.078
122.248
121.305
120.242
119.051
117.724
116.253
114.632
112.855
110.92
108.823
106.565
104.149
101.581
98.8708
96.03
93.0743
90.022
86.894
83.7118
80.5269
125.507
125.439
125.279
125.033
124.706
124.3
123.81
123.231
122.561
121.792
120.919
119.936
118.837
117.616
116.267
114.784
113.164
111.403
109.5
107.455
105.27
102.95
100.501
97.934
95.2597
92.4925
89.6485
86.7457
83.802
80.8598
124.512
124.439
124.266
123.999
123.647
123.211
122.688
122.075
121.368
120.563
119.655
118.64
117.514
116.271
114.908
113.421
111.809
110.07
108.204
106.214
104.101
101.873
99.5363
97.1001
94.5756
91.9757
89.3145
86.6072
83.8689
81.1348
123.548
123.469
123.284
123
122.626
122.164
121.613
120.97
120.232
119.397
118.461
117.421
116.274
115.016
113.647
112.163
110.565
108.852
107.027
105.091
103.049
100.908
98.674
96.3569
93.9666
91.5147
89.0135
86.476
83.9151
81.3598
122.622
122.538
122.343
122.043
121.65
121.166
120.59
119.922
119.158
118.299
117.34
116.281
115.12
113.855
112.485
111.009
109.429
107.745
105.96
104.078
102.104
100.044
97.9045
95.6948
93.4242
91.1027
88.7414
86.3513
83.9435
81.542
121.741
121.653
121.449
121.136
120.726
120.223
119.627
118.937
118.153
117.274
116.299
115.226
114.056
112.788
111.421
109.957
108.397
106.744
105
103.17
101.259
99.2732
97.2196
95.1062
92.9415
90.7346
88.4951
86.2327
83.9569
81.6876
120.913
120.822
120.61
120.285
119.861
119.342
118.729
118.022
117.222
116.327
115.34
114.258
113.083
111.815
110.456
109.006
107.468
105.845
104.141
102.36
100.508
98.5896
96.613
94.585
92.5136
90.4068
88.2731
86.1209
83.9586
81.8028
120.146
120.052
119.833
119.499
119.063
118.53
117.904
117.183
116.37
115.464
114.467
113.38
112.204
110.94
109.589
108.155
106.64
105.046
103.38
101.644
99.8447
97.9877
96.0794
94.1267
92.1366
90.1166
88.0741
86.0166
83.9514
81.8924
119.449
119.353
119.127
118.784
118.338
117.795
117.157
116.426
115.602
114.689
113.686
112.596
111.421
110.162
108.823
107.404
105.911
104.346
102.713
101.019
99.2673
97.4643
95.6159
93.7285
91.8088
89.8633
87.8988
85.922
83.9393
81.9625
118.83
118.731
118.5
118.149
117.695
117.142
116.496
115.756
114.925
114.006
113
111.909
110.737
109.485
108.155
106.753
105.28
103.74
102.139
100.481
98.7716
97.0154
95.2187
93.3873
91.5273
89.6449
87.7462
85.8371
83.9234
82.015
118.298
118.196
117.96
117.602
117.14
116.581
115.927
115.181
114.345
113.422
112.414
111.325
110.156
108.911
107.592
106.204
104.749
103.233
101.659
100.033
98.3589
96.6425
94.8893
93.1048
91.2947
89.4648
87.6205
85.7675
83.9109
82.0592
117.863
117.758
117.514
117.149
116.68
116.114
115.455
114.704
113.864
112.939
111.931
110.843
109.678
108.44
107.131
105.755
104.317
102.82
101.269
99.669
98.0244
96.3404
94.6225
92.8758
91.1058
89.3177
87.5168
85.7081
83.8964
82.0887
117.537
117.426
117.173
116.801
116.327
115.758
115.094
114.34
113.498
112.571
111.563
110.477
109.316
108.083
106.782
105.417
103.992
102.511
100.978
99.3988
97.7774
96.119
94.4286
92.7114
90.9725
89.2169
87.4496
85.6754
83.899
82.1264
117.335
117.2
116.93
116.552
116.076
115.504
114.838
114.082
113.239
112.312
111.305
110.221
109.063
107.835
106.541
105.183
103.768
102.297
100.777
99.2121
97.6064
95.9651
94.2931
92.5955
90.8772
89.1429
87.3975
85.6454
83.8912
82.1398
117.317
117.118
116.82
116.435
115.956
115.381
114.712
113.954
113.11
112.183
111.177
110.095
108.94
107.715
106.425
105.074
103.665
102.202
100.691
99.1348
97.5394
95.9093
94.2491
92.5639
90.8584
89.1373
87.4054
85.6669
83.9264
82.1879
-50.5522
-30.3219
-11.086
35.7736
28.3734
16.4296
51.281
39.2134
28.0305
52.6957
42.2816
34.2495
57.0303
48.7494
41.9999
61.4146
54.5113
48.6253
64.6839
58.8066
53.7612
67.2761
62.2542
57.9477
69.4611
65.131
61.424
71.3053
67.5281
64.3024
72.8557
69.5266
66.6906
74.1618
71.2002
68.6824
75.2641
72.6069
70.3512
76.1949
73.7921
71.7545
76.9806
74.7924
72.938
77.6432
75.6374
73.938
78.2007
76.3508
74.7834
78.6686
76.9525
75.498
79.0596
77.4589
76.1011
79.3848
77.8836
76.609
79.6538
78.2385
77.0353
79.8751
78.5337
77.3918
80.0554
78.7775
77.6878
80.2029
78.9788
77.9333
80.3199
79.1411
78.1327
80.4183
79.2769
78.2985
80.4894
79.3778
78.4242
80.5617
79.4729
78.5365
80.5954
79.5229
78.6005
80.6644
79.606
78.6901
-2.5811
-2.45468
-0.986162
0.143213
0.177861
0.261321
0.324602
0.304899
0.313707
0.367012
0.372348
0.324382
0.285846
0.276749
0.26724
0.226437
0.170477
0.136656
0.143416
0.16925
0.17617
0.148201
0.0954677
0.0393841
0.00336968
-0.00179231
0.00987094
0.0126259
0.00314184
0.00044742
2.67941
-0.304257
1.20931
0.716272
-0.566047
-0.369832
0.224171
0.27824
0.283912
0.384218
0.372561
0.269947
0.213528
0.242167
0.275815
0.228709
0.142095
0.0896562
0.110995
0.17269
0.200793
0.168298
0.0967164
0.0196699
-0.0271553
-0.0244249
0.0073682
0.021516
0.00768828
0.00120753
13.7831
5.39651
2.60657
0.211505
-0.162347
1.0804
1.27885
0.10948
-0.29911
0.0332297
0.389598
0.281894
0.189094
0.257211
0.316944
0.226795
0.0716297
-0.0203815
0.0344285
0.181486
0.256479
0.210486
0.107084
-0.00264169
-0.0679011
-0.0550076
0.00865786
0.0413272
0.0169976
0.00201394
23.5106
13.6429
7.78864
4.02243
2.24842
1.63017
0.506619
-0.17689
0.0853869
1.25707
1.24497
0.177005
-0.231635
-0.097365
0.258761
0.294161
0.0510831
-0.0979289
0.0275549
0.251198
0.351189
0.260587
0.104509
-0.0540004
-0.148977
-0.120342
0.000655069
0.075826
0.035144
0.00234625
32.6651
22.9078
15.5948
10.3015
6.65794
4.17987
2.33055
1.30903
1.00256
1.05246
0.579113
0.0126121
-0.141399
0.493843
1.02624
0.570755
-0.0889809
-0.484685
-0.438424
0.149455
0.478934
0.352011
0.124634
-0.0917788
-0.222831
-0.164588
0.037064
0.155107
0.0756512
0.00154312
40.6308
31.7085
23.8248
17.3952
12.4701
8.82403
6.15143
4.26862
2.99976
2.11875
1.36186
0.761949
0.462661
0.589879
0.588043
0.332383
-0.188957
-0.535106
-0.164428
0.760246
0.905461
0.409998
0.0733127
-0.2126
-0.419588
-0.407687
-0.0484754
0.243056
0.142341
-0.00320343
47.1302
39.3268
31.5535
24.6656
19.0419
14.5828
11.0622
8.31268
6.22069
4.65254
3.43072
2.45223
1.75892
1.36237
1.05164
0.685933
0.189386
-0.12187
0.0667188
0.490952
0.633221
0.419114
0.108507
-0.214047
-0.446833
-0.335147
0.243591
0.516986
0.240872
-0.0145008
52.4237
45.6933
38.4371
31.609
25.7279
20.7842
16.6467
13.2269
10.4576
8.24207
6.44776
4.98443
3.8438
3.00451
2.34757
1.73281
1.13501
0.729106
0.656989
0.782023
0.811012
0.587863
0.235521
-0.100421
-0.304567
-0.218314
0.129176
0.33952
0.310122
-0.0589775
56.7417
50.9252
44.3415
37.869
32.0525
26.9424
22.4747
18.614
15.3303
12.5672
10.2464
8.30509
6.71134
5.42728
4.37014
3.45009
2.65104
2.04847
1.70351
1.53809
1.35394
1.02552
0.621135
0.261847
0.0432237
0.0462887
0.22639
0.350118
0.261237
-0.296311
60.2653
55.1975
49.2949
43.3105
37.7574
32.7134
28.1495
24.0614
20.45
17.2961
14.561
12.2044
10.1931
8.49065
7.04315
5.79617
4.72924
3.86453
3.21946
2.73939
2.3022
1.82438
1.33153
0.89971
0.596625
0.463371
0.457579
0.416343
0.17401
-0.513886
63.1589
58.699
53.4186
47.9504
42.7542
37.9135
33.4152
29.2709
25.5011
22.1107
19.087
16.4088
14.0535
11.995
10.1997
8.63237
7.27219
6.11739
5.16408
4.37302
3.67102
3.00135
2.36489
1.80237
1.35594
1.04313
0.823206
0.578629
0.174384
-0.59262
65.5554
61.5912
56.8526
51.8733
47.0584
42.4863
38.1502
34.0671
30.2663
26.7662
23.57
20.6716
18.0605
15.7217
13.6354
11.7794
10.1362
8.69605
7.4473
6.36137
5.39252
4.5012
3.67805
2.94054
2.31003
1.78924
1.34151
0.88269
0.313842
-0.523262
67.5543
63.9983
59.7225
55.1829
50.7361
46.4523
42.3255
38.3726
34.6252
31.1078
27.8327
24.804
22.0202
19.4759
17.1611
15.0631
13.1695
11.4698
9.9516
8.59385
7.36673
6.24252
5.20877
4.26892
3.42964
2.68519
2.00454
1.32807
0.587701
-0.331719
69.2307
66.0144
62.1321
57.9788
53.8702
49.8683
45.9658
42.1772
38.5328
35.0588
31.7721
28.6824
25.7949
23.1105
20.6265
18.337
16.2347
14.3115
12.5569
10.956
9.48873
8.13548
6.88379
5.72962
4.67085
3.69765
2.78473
1.89028
0.969624
-0.0548265
70.6426
67.7114
64.164
60.3467
56.5414
52.8027
49.1214
45.5088
41.9923
38.5976
35.3432
32.2418
29.3023
26.5302
23.9274
21.4931
19.2241
17.1154
15.1598
13.3468
11.663
10.0944
8.62967
7.26168
5.98385
4.78497
3.64475
2.53392
1.42375
0.266919
71.8349
69.1446
65.8833
62.3573
58.8207
55.3217
51.8492
48.4113
45.0322
41.7356
38.5401
35.4596
32.5048
29.684
27.0023
24.4622
22.0639
19.8052
17.6819
15.6874
13.8126
12.0475
10.3825
8.80976
7.32095
5.90493
4.54535
3.22124
1.91352
0.5976
72.8434
70.3575
67.3412
64.0679
60.7678
57.4839
54.2039
50.9327
47.691
44.5004
41.3785
38.3391
35.394
32.5526
29.8222
27.2073
24.7107
22.3325
20.0713
17.9231
15.8821
13.9412
12.0928
10.3291
8.64183
7.02044
5.45138
3.91874
2.40839
0.91132
73.6966
71.3849
68.579
65.5246
62.4319
59.3397
56.2345
53.1184
50.0089
46.9254
43.8839
40.8976
37.9783
35.1361
32.379
29.7134
27.1434
24.6713
22.2973
20.0199
17.8356
15.7395
13.7256
11.787
9.91589
8.10252
6.3352
4.6007
2.88664
1.19348
74.418
72.2549
69.6298
66.7652
63.854
60.9314
57.9832
55.0091
52.0239
49.0444
46.085
43.158
40.2746
37.4449
34.6775
31.9793
29.3558
26.8103
24.3448
21.9594
19.6522
17.4201
15.2586
13.1616
11.1219
9.13073
7.17734
5.24962
3.33511
1.439
75.0269
72.9905
70.5211
67.8208
65.068
62.2947
59.4863
56.6408
53.7701
50.889
48.0101
45.1446
42.3029
39.4946
36.7283
34.0114
31.3498
28.7479
26.2086
23.7331
21.3212
18.9708
16.6784
14.4392
12.2464
10.0919
7.96536
5.85502
3.7474
1.64924
75.5394
73.6111
71.2753
68.7171
66.1019
63.4594
60.7747
58.0442
55.2777
52.4877
49.6855
46.8809
44.0834
41.3019
38.5448
35.8193
33.1317
30.487
27.8886
25.3387
22.8379
20.3852
17.978
15.612
13.2812
10.9778
8.69184
6.4112
4.12127
1.82843
75.9692
74.1329
71.9117
69.4758
66.9796
64.451
61.8748
59.2462
56.5731
53.8662
51.1354
48.3891
45.6359
42.884
40.1412
37.4146
34.7104
32.0337
29.3885
26.7775
24.2018
21.6612
19.1538
16.6759
14.2219
11.7843
9.35305
6.91586
4.45704
1.98159
76.3275
74.5691
72.4455
70.1144
67.7206
65.2902
62.8084
60.2691
57.6786
55.0463
52.3804
49.6886
46.9781
44.2566
41.531
38.8083
36.0944
33.3944
30.7124
28.0515
25.4134
22.798
20.2041
17.6283
15.0654
12.5081
9.94634
7.36744
4.75501
2.11222
76.6252
74.9323
72.8914
70.6492
68.3425
65.9961
63.5953
61.1333
58.6149
56.0482
53.4404
50.7979
48.1273
45.4352
42.7282
40.0125
37.2938
34.5772
31.8669
29.1658
26.4759
23.7976
21.1298
18.4695
15.8118
13.1492
10.472
7.767
5.01741
2.22412
76.8685
75.2299
73.258
71.0904
68.8568
66.5812
64.2489
61.8525
59.3959
56.8858
54.3286
51.7297
49.095
46.4302
43.7415
41.0344
38.3145
35.5864
32.8542
30.1211
27.3889
24.6584
21.9285
19.1964
16.4574
13.7041
10.9266
8.11163
5.24223
2.3169
77.0692
75.4747
73.5595
71.4532
69.2798
67.0625
64.7869
62.4451
60.04
57.5776
55.0632
52.5017
49.8982
47.2578
44.5859
41.8879
39.1688
36.433
33.6844
30.9262
28.1602
25.3871
22.6061
19.8144
17.0073
14.1776
11.3152
8.40674
5.43511
2.39575
77.224
75.6644
73.794
71.7363
69.6107
67.4399
65.2095
62.9115
60.5478
58.1238
55.6442
53.1133
50.5355
47.9155
45.2583
42.5686
39.8512
37.1103
34.3497
31.5722
28.7798
25.9732
23.1514
20.3119
17.4499
14.5581
11.6264
8.64147
5.58615
2.45362
77.3553
75.8214
73.9851
71.9642
69.8748
67.739
65.5429
63.2781
60.946
58.5514
56.0985
53.5912
51.0334
48.4294
45.7837
43.1009
40.3854
37.6412
34.8719
32.0802
29.268
26.436
23.5832
20.7071
17.8029
14.8631
11.8777
8.83298
5.71167
2.50314
77.436
75.9183
74.1043
72.1084
70.0434
67.9311
65.758
63.5154
61.2045
58.8296
56.3947
53.9033
51.359
48.7659
46.1282
43.4503
40.7363
37.9901
35.2151
32.4141
29.5888
26.7398
23.8663
20.9655
18.0326
15.0601
12.0377
8.95145
5.78397
2.523
77.5248
76.0082
74.2065
72.2256
70.1743
68.0746
65.9136
63.6827
61.3828
59.018
56.5922
54.1086
51.5708
48.9826
46.3482
43.6719
40.9576
38.2092
35.4301
32.623
29.7896
26.9305
24.0449
21.13
18.1808
15.19
12.1467
9.03614
5.83839
2.52951
)
;

boundaryField
{
    inlet
    {
        type            zeroGradient;
    }
    outlet
    {
        type            fixedValue;
        value           uniform 0;
    }
    flap
    {
        type            zeroGradient;
    }
    upperWall
    {
        type            zeroGradient;
    }
    lowerWall
    {
        type            zeroGradient;
    }
    frontAndBack
    {
        type            empty;
    }
}


// ************************************************************************* //
