/*--------------------------------*- C++ -*----------------------------------*\
  =========                 |
  \\      /  F ield         | OpenFOAM: The Open Source CFD Toolbox
   \\    /   O peration     | Website:  https://openfoam.org
    \\  /    A nd           | Version:  dev
     \\/     M anipulation  |
\*---------------------------------------------------------------------------*/
FoamFile
{
    version     2.0;
    format      ascii;
    class       volVectorField;
    location    "5";
    object      U;
}
// * * * * * * * * * * * * * * * * * * * * * * * * * * * * * * * * * * * * * //

dimensions      [0 1 -1 0 0 0 0];

internalField   nonuniform List<vector> 
2790
(
(9.94399 0 0.0205232)
(9.87572 0 0.0295877)
(9.77521 0 0.0359895)
(9.64944 0 0.0425561)
(9.50409 0 0.0493854)
(9.34007 0 0.0564283)
(9.15655 0 0.0638159)
(8.95263 0 0.0717117)
(8.72747 0 0.0802554)
(8.48009 0 0.0895738)
(8.20928 0 0.099794)
(7.91365 0 0.111046)
(7.59169 0 0.123461)
(7.24179 0 0.137166)
(6.86233 0 0.152275)
(6.4518 0 0.168873)
(6.00888 0 0.187001)
(5.53269 0 0.206623)
(5.02297 0 0.227595)
(4.48045 0 0.249616)
(3.90716 0 0.272181)
(3.30683 0 0.29453)
(2.68529 0 0.315624)
(2.05062 0 0.334292)
(1.4118 0 0.35061)
(0.798042 0 0.372888)
(0.110718 0 0.325064)
(-0.469563 0 -0.11486)
(-0.453776 0 -0.297156)
(-0.231163 0 -0.42386)
(9.9985 0 0.040703)
(9.98145 0 0.0623827)
(9.93574 0 0.07914)
(9.86416 0 0.0966246)
(9.77097 0 0.115124)
(9.65715 0 0.134488)
(9.52206 0 0.154975)
(9.36486 0 0.176943)
(9.18472 0 0.200708)
(8.98068 0 0.22655)
(8.75153 0 0.254745)
(8.49589 0 0.285562)
(8.21221 0 0.319252)
(7.89883 0 0.356026)
(7.55405 0 0.396024)
(7.1762 0 0.439268)
(6.76379 0 0.485598)
(6.31567 0 0.534594)
(5.83126 0 0.585469)
(5.31089 0 0.636961)
(4.75616 0 0.687211)
(4.17043 0 0.733654)
(3.55931 0 0.77296)
(2.93157 0 0.801099)
(2.29997 0 0.813755)
(1.69297 0 0.80726)
(1.10717 0 0.747259)
(0.658906 0 0.547938)
(0.186467 0 0.224626)
(-0.00819943 0 -0.453726)
(9.99559 0 0.0432069)
(9.97556 0 0.0752716)
(9.9318 0 0.103346)
(9.8649 0 0.132371)
(9.77778 0 0.163059)
(9.67155 0 0.195398)
(9.54588 0 0.229742)
(9.40014 0 0.266602)
(9.23366 0 0.30647)
(9.04564 0 0.349807)
(8.83509 0 0.397072)
(8.60082 0 0.448722)
(8.34146 0 0.505193)
(8.05551 0 0.566865)
(7.74139 0 0.634014)
(7.39745 0 0.706734)
(7.02212 0 0.784841)
(6.61397 0 0.867728)
(6.17195 0 0.954199)
(5.69565 0 1.04226)
(5.18564 0 1.12889)
(4.64397 0 1.20979)
(4.07481 0 1.27916)
(3.48539 0 1.32934)
(2.88686 0 1.3501)
(2.29948 0 1.32644)
(1.73186 0 1.22079)
(1.21627 0 0.97302)
(0.701155 0 0.570163)
(0.358047 0 -0.156537)
(9.99403 0 0.0494992)
(9.97181 0 0.0932061)
(9.92788 0 0.133572)
(9.86225 0 0.174209)
(9.77693 0 0.216433)
(9.67298 0 0.260661)
(9.55032 0 0.307429)
(9.40849 0 0.357414)
(9.24703 0 0.41129)
(9.06534 0 0.469705)
(8.86269 0 0.533302)
(8.6382 0 0.602723)
(8.39085 0 0.678592)
(8.11953 0 0.761475)
(7.82301 0 0.851821)
(7.50002 0 0.949876)
(7.14925 0 1.05555)
(6.76945 0 1.16824)
(6.35951 0 1.28661)
(5.91861 0 1.40827)
(5.44654 0 1.52947)
(4.94402 0 1.64469)
(4.41318 0 1.74615)
(3.85829 0 1.82322)
(3.28584 0 1.86137)
(2.70642 0 1.84033)
(2.12566 0 1.72602)
(1.55427 0 1.47788)
(0.957958 0 1.08372)
(0.509428 0 0.502348)
(9.99331 0 0.0572135)
(9.96994 0 0.110959)
(9.92593 0 0.162104)
(9.86146 0 0.213347)
(9.77799 0 0.266356)
(9.67635 0 0.321913)
(9.55654 0 0.380701)
(9.41822 0 0.443487)
(9.26098 0 0.511055)
(9.08433 0 0.584169)
(8.88771 0 0.663586)
(8.67039 0 0.750062)
(8.43159 0 0.844333)
(8.17046 0 0.947083)
(7.88608 0 1.05888)
(7.57749 0 1.18007)
(7.24367 0 1.31068)
(6.88361 0 1.45018)
(6.49629 0 1.59722)
(6.08074 0 1.74932)
(5.63617 0 1.90241)
(5.16213 0 2.05032)
(4.65879 0 2.18418)
(4.12723 0 2.29174)
(3.56942 0 2.35657)
(2.98891 0 2.35733)
(2.38685 0 2.26497)
(1.7664 0 2.04767)
(1.09 0 1.69143)
(0.536655 0 1.15418)
(9.99302 0 0.0655385)
(9.96923 0 0.128701)
(9.92556 0 0.190113)
(9.86253 0 0.251843)
(9.78129 0 0.315578)
(9.68244 0 0.382318)
(9.56601 0 0.452874)
(9.43171 0 0.5281)
(9.2792 0 0.608879)
(9.10806 0 0.696083)
(8.91778 0 0.790578)
(8.70774 0 0.893222)
(8.47729 0 1.00485)
(8.22568 0 1.12625)
(7.95215 0 1.25809)
(7.65589 0 1.40081)
(7.33603 0 1.55454)
(6.99165 0 1.71886)
(6.62169 0 1.89255)
(6.22501 0 2.07322)
(5.80029 0 2.25684)
(5.34605 0 2.4372)
(4.86072 0 2.60519)
(4.34271 0 2.74822)
(3.79041 0 2.84955)
(3.20259 0 2.88821)
(2.57658 0 2.83825)
(1.91348 0 2.67164)
(1.17276 0 2.37403)
(0.54997 0 1.89444)
(9.99297 0 0.0740747)
(9.96926 0 0.146314)
(9.92637 0 0.217483)
(9.86508 0 0.289291)
(9.78643 0 0.363355)
(9.69085 0 0.440826)
(9.57835 0 0.522659)
(9.44872 0 0.60981)
(9.30165 0 0.703254)
(9.13678 0 0.803963)
(8.95365 0 0.912898)
(8.7517 0 1.03101)
(8.53034 0 1.15922)
(8.28888 0 1.2984)
(8.02659 0 1.44929)
(7.74269 0 1.61248)
(7.4363 0 1.78818)
(7.10641 0 1.97616)
(6.75181 0 2.1754)
(6.37102 0 2.38381)
(5.96211 0 2.59773)
(5.52265 0 2.81138)
(5.04954 0 3.01615)
(4.53902 0 3.19997)
(3.98667 0 3.34668)
(3.38792 0 3.43598)
(2.73726 0 3.44333)
(2.03625 0 3.34152)
(1.24175 0 3.11361)
(0.563516 0 2.69318)
(9.99306 0 0.0825879)
(9.96981 0 0.163606)
(9.92807 0 0.24405)
(9.86885 0 0.325479)
(9.79313 0 0.409445)
(9.70126 0 0.497205)
(9.59323 0 0.589838)
(9.46888 0 0.688394)
(9.32796 0 0.793938)
(9.17014 0 0.907527)
(8.99502 0 1.03021)
(8.80211 0 1.16303)
(8.59082 0 1.307)
(8.36051 0 1.46309)
(8.11045 0 1.63214)
(7.83981 0 1.81486)
(7.54761 0 2.01166)
(7.23268 0 2.22251)
(6.89351 0 2.44673)
(6.52817 0 2.68268)
(6.1341 0 2.92735)
(5.70786 0 3.17576)
(5.24498 0 3.42036)
(4.7398 0 3.6502)
(4.18549 0 3.85024)
(3.57477 0 4.0009)
(2.89953 0 4.07792)
(2.16211 0 4.05241)
(1.31612 0 3.90173)
(0.583219 0 3.54019)
(9.99326 0 0.0909282)
(9.97072 0 0.180408)
(9.93046 0 0.269667)
(9.87362 0 0.360241)
(9.80118 0 0.453646)
(9.71344 0 0.551208)
(9.61038 0 0.65411)
(9.49188 0 0.763494)
(9.35776 0 0.880503)
(9.20773 0 1.00628)
(9.04146 0 1.14195)
(8.85848 0 1.28866)
(8.65827 0 1.44751)
(8.44022 0 1.61958)
(8.20357 0 1.80586)
(7.94746 0 2.0072)
(7.67079 0 2.22424)
(7.37217 0 2.45727)
(7.0498 0 2.70604)
(6.70128 0 2.96956)
(6.32336 0 3.24565)
(5.91166 0 3.53052)
(5.46037 0 3.81806)
(4.96202 0 4.09898)
(4.40742 0 4.35987)
(3.78641 0 4.58211)
(3.08757 0 4.74109)
(2.3127 0 4.80448)
(1.41064 0 4.74112)
(0.614305 0 4.44196)
(9.99352 0 0.098992)
(9.97191 0 0.196579)
(9.9334 0 0.294195)
(9.87924 0 0.393416)
(9.8104 0 0.495755)
(9.72717 0 0.602587)
(9.62953 0 0.715181)
(9.51741 0 0.83476)
(9.39068 0 0.962542)
(9.24913 0 1.09974)
(9.09245 0 1.24759)
(8.92028 0 1.40729)
(8.73213 0 1.58006)
(8.52742 0 1.7671)
(8.30543 0 1.96955)
(8.06526 0 2.18847)
(7.80573 0 2.42478)
(7.5253 0 2.67916)
(7.22192 0 2.95191)
(6.89277 0 3.24281)
(6.53404 0 3.55078)
(6.14048 0 3.87348)
(5.70506 0 4.2067)
(5.21849 0 4.54338)
(4.669 0 4.87244)
(4.04287 0 5.17698)
(3.32368 0 5.43232)
(2.50975 0 5.60199)
(1.54185 0 5.64353)
(0.664049 0 5.41807)
(9.99384 0 0.106704)
(9.9733 0 0.212)
(9.9368 0 0.317502)
(9.88558 0 0.424855)
(9.82064 0 0.535588)
(9.74225 0 0.651119)
(9.65045 0 0.772785)
(9.54518 0 0.901883)
(9.42638 0 1.0397)
(9.2939 0 1.18751)
(9.14753 0 1.34663)
(8.98694 0 1.51835)
(8.81175 0 1.70398)
(8.62143 0 1.90486)
(8.41532 0 2.1223)
(8.19252 0 2.35759)
(7.95188 0 2.61195)
(7.69179 0 2.88653)
(7.41005 0 3.18227)
(7.10364 0 3.49985)
(6.76835 0 3.83946)
(6.39834 0 4.20053)
(5.98556 0 4.58118)
(5.51908 0 4.97733)
(4.98437 0 5.38132)
(4.36325 0 5.77957)
(3.63188 0 6.14915)
(2.78009 0 6.45069)
(1.73342 0 6.62854)
(0.744816 0 6.50312)
(9.9942 0 0.114006)
(9.97487 0 0.226574)
(9.94056 0 0.339472)
(9.89252 0 0.454422)
(9.83173 0 0.572982)
(9.75851 0 0.696607)
(9.67289 0 0.826691)
(9.57488 0 0.96459)
(9.46448 0 1.11165)
(9.34162 0 1.26921)
(9.20615 0 1.43864)
(9.05786 0 1.62133)
(8.89644 0 1.81868)
(8.72147 0 2.03215)
(8.53237 0 2.26322)
(8.32836 0 2.51343)
(8.10835 0 2.78434)
(7.87081 0 3.07755)
(7.61361 0 3.39471)
(7.33373 0 3.73748)
(7.02691 0 4.10744)
(6.68714 0 4.50602)
(6.30587 0 4.93411)
(5.87106 0 5.39145)
(5.36575 0 5.87536)
(4.76685 0 6.37826)
(4.04066 0 6.88324)
(3.1614 0 7.35352)
(2.02469 0 7.72322)
(0.8807 0 7.7571)
(9.99459 0 0.120853)
(9.97657 0 0.240224)
(9.94461 0 0.360007)
(9.89995 0 0.481999)
(9.84356 0 0.607794)
(9.77575 0 0.73888)
(9.69662 0 0.876695)
(9.60623 0 1.02264)
(9.50463 0 1.17811)
(9.39185 0 1.34451)
(9.26781 0 1.52325)
(9.13242 0 1.71578)
(8.98547 0 1.9236)
(8.82668 0 2.14828)
(8.65562 0 2.39147)
(8.47167 0 2.65492)
(8.27392 0 2.94052)
(8.06107 0 3.25033)
(7.83125 0 3.58667)
(7.58178 0 3.95217)
(7.30877 0 4.34983)
(7.00662 0 4.78315)
(6.66718 0 5.2561)
(6.27843 0 5.77296)
(5.82239 0 6.3377)
(5.2724 0 6.95243)
(4.58443 0 7.61366)
(3.70984 0 8.30095)
(2.48807 0 8.95824)
(1.12441 0 9.29321)
(9.99501 0 0.127211)
(9.97838 0 0.252884)
(9.94891 0 0.37902)
(9.90779 0 0.507486)
(9.85598 0 0.639906)
(9.79382 0 0.7778)
(9.72142 0 0.922635)
(9.63893 0 1.07586)
(9.54647 0 1.23889)
(9.44413 0 1.41317)
(9.33195 0 1.60015)
(9.20994 0 1.80135)
(9.07805 0 2.01833)
(8.93614 0 2.25274)
(8.78397 0 2.50638)
(8.62116 0 2.78117)
(8.44708 0 3.07928)
(8.2608 0 3.40318)
(8.06093 0 3.75576)
(7.84543 0 4.1405)
(7.61127 0 4.56168)
(7.35403 0 5.02471)
(7.06708 0 5.53654)
(6.74032 0 6.10617)
(6.35781 0 6.74528)
(5.89394 0 7.46896)
(5.30061 0 8.29637)
(4.50867 0 9.24801)
(3.26862 0 10.3419)
(1.60488 0 11.3591)
(9.99545 0 0.13305)
(9.98026 0 0.264503)
(9.95339 0 0.396441)
(9.91596 0 0.530788)
(9.86888 0 0.669198)
(9.81253 0 0.81321)
(9.74708 0 0.964319)
(9.67271 0 1.12399)
(9.58963 0 1.29368)
(9.49802 0 1.47483)
(9.39802 0 1.66895)
(9.28977 0 1.87756)
(9.17337 0 2.10228)
(9.04886 0 2.34483)
(8.91623 0 2.60708)
(8.77538 0 2.89111)
(8.62605 0 3.19926)
(8.46781 0 3.5343)
(8.29992 0 3.89954)
(8.12125 0 4.29906)
(7.93009 0 4.73809)
(7.72389 0 5.22347)
(7.4988 0 5.76443)
(7.24893 0 6.37379)
(6.96479 0 7.06997)
(6.63085 0 7.88083)
(6.2143 0 8.85177)
(5.66571 0 10.0658)
(4.68999 0 11.731)
(2.68726 0 14.5921)
(0.114762 0 -0.11445)
(0.270915 0 -0.104858)
(0.430365 0 -0.0828861)
(0.564133 0 -0.0621148)
(0.668127 0 -0.045274)
(0.747341 0 -0.0322586)
(0.807789 0 -0.0224189)
(0.854279 0 -0.015113)
(0.890368 0 -0.00978748)
(0.918756 0 -0.00598898)
(0.941566 0 -0.00336054)
(0.960487 0 -0.00162396)
(0.976852 0 -0.000556662)
(0.991688 0 2.9808e-05)
(1.00573 0 0.00030618)
(1.01942 0 0.000436002)
(1.03287 0 0.000578047)
(1.04584 0 0.000875896)
(1.05779 0 0.00143215)
(1.068 0 0.0022761)
(1.07572 0 0.00334635)
(1.08043 0 0.0045063)
(1.08196 0 0.00556111)
(1.08076 0 0.00628311)
(1.07681 0 0.00688636)
(1.07002 0 0.00751751)
(1.06011 0 0.00812171)
(1.04685 0 0.00857434)
(1.03083 0 0.00844355)
(1.01183 0 0.00651014)
(0.0991084 0 -0.269264)
(0.25154 0 -0.2535)
(0.400064 0 -0.206337)
(0.526977 0 -0.160806)
(0.629571 0 -0.123795)
(0.712423 0 -0.0951652)
(0.78054 0 -0.0734785)
(0.837772 0 -0.0572927)
(0.886898 0 -0.045363)
(0.929964 0 -0.0366864)
(0.968536 0 -0.030487)
(1.00383 0 -0.0261699)
(1.0368 0 -0.0232681)
(1.06817 0 -0.0213947)
(1.09851 0 -0.0202053)
(1.12819 0 -0.0193725)
(1.15744 0 -0.018577)
(1.18631 0 -0.0175246)
(1.21467 0 -0.0159952)
(1.2422 0 -0.0139079)
(1.26853 0 -0.0113616)
(1.29332 0 -0.00860619)
(1.31637 0 -0.00594295)
(1.33729 0 -0.00354379)
(1.35617 0 -0.00120072)
(1.37291 0 0.00135843)
(1.3872 0 0.00430035)
(1.39756 0 0.00699783)
(1.40434 0 0.00841475)
(1.41022 0 0.00694581)
(0.0791444 0 -0.426395)
(0.210064 0 -0.399608)
(0.327625 0 -0.32686)
(0.427158 0 -0.257586)
(0.506813 0 -0.201778)
(0.571364 0 -0.158705)
(0.624838 0 -0.126038)
(0.670182 0 -0.101535)
(0.70947 0 -0.0832921)
(0.744186 0 -0.0698141)
(0.775458 0 -0.0599617)
(0.804167 0 -0.0528674)
(0.831004 0 -0.0478567)
(0.856508 0 -0.0443813)
(0.881098 0 -0.0419648)
(0.905089 0 -0.0401634)
(0.9287 0 -0.0385461)
(0.952036 0 -0.0367094)
(0.975065 0 -0.0343392)
(0.997614 0 -0.0313001)
(1.01941 0 -0.0277023)
(1.04017 0 -0.0238696)
(1.05977 0 -0.0201509)
(1.07838 0 -0.0166511)
(1.09636 0 -0.0132704)
(1.11409 0 -0.00964496)
(1.13165 0 -0.00545826)
(1.14998 0 -0.00124032)
(1.16707 0 0.00190113)
(1.18273 0 0.00292065)
(0.0595329 0 -0.550831)
(0.162978 0 -0.507144)
(0.242803 0 -0.41078)
(0.310155 0 -0.322473)
(0.3616 0 -0.252916)
(0.402893 0 -0.199791)
(0.436708 0 -0.159741)
(0.465006 0 -0.129739)
(0.489127 0 -0.107324)
(0.509948 0 -0.0906577)
(0.528154 0 -0.0783605)
(0.544296 0 -0.0693904)
(0.558814 0 -0.062941)
(0.572067 0 -0.0583631)
(0.58435 0 -0.0551038)
(0.595927 0 -0.0526564)
(0.607033 0 -0.0505273)
(0.617869 0 -0.0482391)
(0.628552 0 -0.0453939)
(0.63906 0 -0.0417844)
(0.649191 0 -0.0374935)
(0.658615 0 -0.0328921)
(0.667032 0 -0.0284666)
(0.674464 0 -0.0245412)
(0.681284 0 -0.0211449)
(0.688 0 -0.0179243)
(0.695063 0 -0.0145422)
(0.702532 0 -0.0108423)
(0.70974 0 -0.00738886)
(0.714943 0 -0.00355913)
(0.0390057 0 -0.644169)
(0.109673 0 -0.578393)
(0.14653 0 -0.46111)
(0.17969 0 -0.359073)
(0.199717 0 -0.280603)
(0.21464 0 -0.221239)
(0.225201 0 -0.176797)
(0.23254 0 -0.143472)
(0.237324 0 -0.118375)
(0.239962 0 -0.0995265)
(0.24083 0 -0.0854473)
(0.240233 0 -0.0750242)
(0.238424 0 -0.0673957)
(0.235626 0 -0.0618756)
(0.232055 0 -0.0578951)
(0.22795 0 -0.0549453)
(0.223601 0 -0.0525211)
(0.219337 0 -0.0500966)
(0.215437 0 -0.0471751)
(0.212043 0 -0.0434157)
(0.208983 0 -0.0387812)
(0.205787 0 -0.0336031)
(0.201604 0 -0.0284334)
(0.195853 0 -0.0237313)
(0.188412 0 -0.0196239)
(0.179138 0 -0.0158093)
(0.169737 0 -0.0119681)
(0.160976 0 -0.00719035)
(0.149203 0 -0.00172646)
(0.133788 0 0.000749624)
(0.0168747 0 -0.701053)
(0.0496391 0 -0.609066)
(0.0403056 0 -0.473978)
(0.0380375 0 -0.363179)
(0.0243361 0 -0.279438)
(0.00984136 0 -0.216689)
(-0.00653556 0 -0.169741)
(-0.0236761 0 -0.135263)
(-0.0417648 0 -0.109338)
(-0.0604122 0 -0.0899636)
(-0.0793236 0 -0.0755649)
(-0.0983064 0 -0.0649764)
(-0.117181 0 -0.057313)
(-0.135779 0 -0.0518803)
(-0.153939 0 -0.0481206)
(-0.171477 0 -0.0455449)
(-0.188162 0 -0.0436483)
(-0.203752 0 -0.0418595)
(-0.21809 0 -0.0395977)
(-0.23119 0 -0.0364348)
(-0.243275 0 -0.0322622)
(-0.25477 0 -0.0273728)
(-0.266207 0 -0.022318)
(-0.27803 0 -0.0175501)
(-0.290548 0 -0.0131913)
(-0.303824 0 -0.00878109)
(-0.317969 0 -0.00390343)
(-0.334676 0 0.000918523)
(-0.346018 0 0.00410709)
(-0.353952 0 0.00398986)
(-0.00856749 0 -0.714553)
(-0.0189517 0 -0.593262)
(-0.0745463 0 -0.446314)
(-0.115245 0 -0.332866)
(-0.163506 0 -0.248771)
(-0.20989 0 -0.187894)
(-0.254283 0 -0.143113)
(-0.29632 0 -0.109829)
(-0.335991 0 -0.0852768)
(-0.373046 0 -0.0674241)
(-0.407366 0 -0.0546081)
(-0.439001 0 -0.0455942)
(-0.468103 0 -0.039459)
(-0.494894 0 -0.0354925)
(-0.519619 0 -0.0331405)
(-0.542486 0 -0.0319306)
(-0.563615 0 -0.0313691)
(-0.583077 0 -0.0308599)
(-0.600988 0 -0.0297566)
(-0.6176 0 -0.0275492)
(-0.633307 0 -0.0240387)
(-0.648559 0 -0.0194574)
(-0.663751 0 -0.0143678)
(-0.679122 0 -0.00926858)
(-0.694819 0 -0.00452237)
(-0.710994 0 -0.000280566)
(-0.724855 0 0.0035505)
(-0.734754 0 0.00650864)
(-0.743543 0 0.0076936)
(-0.748837 0 0.00698546)
(-0.0405351 0 -0.67655)
(-0.0974344 0 -0.531427)
(-0.197902 0 -0.383356)
(-0.2787 0 -0.272162)
(-0.360517 0 -0.191694)
(-0.43654 0 -0.135709)
(-0.505305 0 -0.0965843)
(-0.566313 0 -0.0686737)
(-0.620171 0 -0.0488116)
(-0.667805 0 -0.0351356)
(-0.710023 0 -0.0260561)
(-0.747615 0 -0.0203663)
(-0.781289 0 -0.0171488)
(-0.811694 0 -0.0156906)
(-0.839414 0 -0.015466)
(-0.864897 0 -0.0160886)
(-0.88841 0 -0.0171569)
(-0.910084 0 -0.0181071)
(-0.930081 0 -0.0182331)
(-0.948725 0 -0.016922)
(-0.966509 0 -0.0139061)
(-0.983938 0 -0.00950854)
(-1.00135 0 -0.00458429)
(-1.01884 0 -8.28688e-05)
(-1.03415 0 0.0035658)
(-1.04648 0 0.00648073)
(-1.05735 0 0.00902259)
(-1.06715 0 0.0111469)
(-1.07532 0 0.0118852)
(-1.07969 0 0.0111228)
(-0.0808376 0 -0.5819)
(-0.187791 0 -0.420503)
(-0.339264 0 -0.280202)
(-0.460996 0 -0.180284)
(-0.573119 0 -0.110185)
(-0.673981 0 -0.0626875)
(-0.763519 0 -0.0320836)
(-0.840744 0 -0.0134796)
(-0.903675 0 -0.00294012)
(-0.955677 0 0.00297522)
(-0.999235 0 0.00592798)
(-1.03642 0 0.00684572)
(-1.06883 0 0.00635938)
(-1.09772 0 0.00497122)
(-1.12408 0 0.00302504)
(-1.14862 0 0.000702652)
(-1.17171 0 -0.00179331)
(-1.19347 0 -0.00400649)
(-1.21397 0 -0.00520428)
(-1.23331 0 -0.00471636)
(-1.25194 0 -0.00241714)
(-1.26992 0 0.00118766)
(-1.28655 0 0.00513363)
(-1.30114 0 0.00841763)
(-1.31455 0 0.0107473)
(-1.32653 0 0.0125089)
(-1.33705 0 0.014105)
(-1.34642 0 0.0153938)
(-1.35411 0 0.0156748)
(-1.35794 0 0.014992)
(-0.137143 0 -0.426002)
(-0.306491 0 -0.257699)
(-0.52383 0 -0.133488)
(-0.700981 0 -0.0471154)
(-0.843482 0 0.00268478)
(-0.953793 0 0.027953)
(-1.03933 0 0.0390419)
(-1.10684 0 0.0420244)
(-1.16334 0 0.0413107)
(-1.21111 0 0.0389524)
(-1.25224 0 0.0358626)
(-1.28822 0 0.0323257)
(-1.32011 0 0.028492)
(-1.34876 0 0.0245875)
(-1.37494 0 0.0207608)
(-1.39918 0 0.0169455)
(-1.42157 0 0.013063)
(-1.44188 0 0.00942064)
(-1.46006 0 0.00681876)
(-1.47653 0 0.006111)
(-1.4919 0 0.00750494)
(-1.50689 0 0.0104092)
(-1.52205 0 0.0137146)
(-1.53693 0 0.0163614)
(-1.55068 0 0.0178505)
(-1.56261 0 0.0185244)
(-1.57277 0 0.0190572)
(-1.58169 0 0.0195654)
(-1.58895 0 0.0195402)
(-1.5924 0 0.0189951)
(-0.221433 0 -0.225524)
(-0.467383 0 -0.0126741)
(-0.714026 0 0.0762986)
(-0.893975 0 0.10622)
(-1.03516 0 0.113449)
(-1.14716 0 0.110542)
(-1.23641 0 0.102861)
(-1.30824 0 0.0932573)
(-1.36671 0 0.0831899)
(-1.41517 0 0.0737221)
(-1.45639 0 0.0652902)
(-1.49225 0 0.0576155)
(-1.52384 0 0.0504172)
(-1.55202 0 0.0438033)
(-1.57769 0 0.0378968)
(-1.60149 0 0.0324071)
(-1.62345 0 0.0268926)
(-1.64307 0 0.0214902)
(-1.66009 0 0.0172022)
(-1.67508 0 0.0152789)
(-1.68929 0 0.0162109)
(-1.70391 0 0.0191743)
(-1.71928 0 0.0224976)
(-1.73471 0 0.0246559)
(-1.74888 0 0.0250828)
(-1.76078 0 0.0243929)
(-1.77051 0 0.0236962)
(-1.77888 0 0.0234579)
(-1.78566 0 0.0232687)
(-1.7888 0 0.0229235)
(-0.298906 0 0.201575)
(-0.571734 0 0.275275)
(-0.848872 0 0.280982)
(-1.05128 0 0.260944)
(-1.20626 0 0.231879)
(-1.32422 0 0.201094)
(-1.41506 0 0.172602)
(-1.48636 0 0.147593)
(-1.5432 0 0.126111)
(-1.58959 0 0.108513)
(-1.62897 0 0.0945347)
(-1.6635 0 0.0828311)
(-1.69404 0 0.0722885)
(-1.7212 0 0.0629154)
(-1.74601 0 0.0550023)
(-1.76942 0 0.0480185)
(-1.79129 0 0.0409213)
(-1.81062 0 0.0335242)
(-1.82667 0 0.0271962)
(-1.84013 0 0.0239138)
(-1.85292 0 0.0245124)
(-1.86686 0 0.0278447)
(-1.88247 0 0.0315143)
(-1.89867 0 0.0333353)
(-1.91347 0 0.032547)
(-1.92537 0 0.0301621)
(-1.93451 0 0.0280036)
(-1.9421 0 0.027033)
(-1.94828 0 0.0268025)
(-1.95111 0 0.0266842)
(-0.349985 0 0.599777)
(-0.690649 0 0.609965)
(-1.01533 0 0.521089)
(-1.2315 0 0.431021)
(-1.38669 0 0.354925)
(-1.49958 0 0.29048)
(-1.58374 0 0.239134)
(-1.6488 0 0.198796)
(-1.69997 0 0.166112)
(-1.74113 0 0.140604)
(-1.77643 0 0.121769)
(-1.80842 0 0.106761)
(-1.83723 0 0.0930558)
(-1.86266 0 0.080802)
(-1.88595 0 0.0710213)
(-1.90861 0 0.0630125)
(-1.93048 0 0.054651)
(-1.94956 0 0.045052)
(-1.96426 0 0.0361511)
(-1.97539 0 0.0312308)
(-1.98595 0 0.0318183)
(-1.99881 0 0.0362167)
(-2.01478 0 0.0408493)
(-2.03217 0 0.0425695)
(-2.04798 0 0.0403452)
(-2.05993 0 0.0357835)
(-2.06815 0 0.0318217)
(-2.0746 0 0.030155)
(-2.07999 0 0.0300821)
(-2.0825 0 0.0302426)
(-0.465186 0 1.11074)
(-0.896888 0 1.01238)
(-1.25357 0 0.781243)
(-1.45195 0 0.593933)
(-1.58484 0 0.467335)
(-1.67864 0 0.3668)
(-1.74551 0 0.294361)
(-1.79772 0 0.243035)
(-1.83932 0 0.201097)
(-1.87196 0 0.167706)
(-1.90072 0 0.145049)
(-1.9292 0 0.128436)
(-1.95595 0 0.112351)
(-1.97889 0 0.0973088)
(-1.99955 0 0.08614)
(-2.02094 0 0.0781879)
(-2.04306 0 0.0692651)
(-2.06229 0 0.0570633)
(-2.0753 0 0.0444454)
(-2.083 0 0.0371159)
(-2.09019 0 0.0379762)
(-2.10152 0 0.0443787)
(-2.11815 0 0.0508153)
(-2.13745 0 0.0527287)
(-2.15486 0 0.0487037)
(-2.1669 0 0.0412074)
(-2.17371 0 0.0348851)
(-2.1784 0 0.0325863)
(-2.18275 0 0.03303)
(-2.18496 0 0.0335712)
(-0.69332 0 2.09467)
(-1.22764 0 1.67106)
(-1.6049 0 1.07276)
(-1.72994 0 0.682743)
(-1.80244 0 0.542873)
(-1.86094 0 0.426619)
(-1.89635 0 0.342343)
(-1.92971 0 0.28494)
(-1.96115 0 0.230717)
(-1.98286 0 0.185201)
(-2.00154 0 0.161716)
(-2.02545 0 0.149136)
(-2.05062 0 0.132596)
(-2.07056 0 0.113489)
(-2.08714 0 0.099718)
(-2.10668 0 0.0922969)
(-2.13006 0 0.0832082)
(-2.15064 0 0.0674764)
(-2.16179 0 0.0493547)
(-2.16436 0 0.0387114)
(-2.16636 0 0.0408804)
(-2.17548 0 0.0513359)
(-2.19331 0 0.0612159)
(-2.2156 0 0.0639875)
(-2.23551 0 0.057782)
(-2.2477 0 0.0462812)
(-2.25225 0 0.0367266)
(-2.25423 0 0.0339303)
(-2.25721 0 0.0355846)
(-2.25918 0 0.0367282)
(9.9959 0 0.138445)
(9.98225 0 0.275238)
(9.9581 0 0.412524)
(9.92453 0 0.552272)
(9.88242 0 0.696159)
(9.83216 0 0.845737)
(9.77398 0 1.00251)
(9.70814 0 1.16796)
(9.63492 0 1.34355)
(9.55457 0 1.53074)
(9.46739 0 1.73102)
(9.37362 0 1.94594)
(9.27355 0 2.17714)
(9.16741 0 2.42634)
(9.05547 0 2.69547)
(8.93794 0 2.98667)
(8.81502 0 3.30237)
(8.68684 0 3.64548)
(8.55347 0 4.01951)
(8.41491 0 4.42884)
(8.2711 0 4.8791)
(8.12191 0 5.37776)
(7.96729 0 5.935)
(7.80751 0 6.56517)
(7.64377 0 7.28933)
(7.48106 0 8.14009)
(7.33262 0 9.17142)
(7.28853 0 10.4769)
(7.74673 0 12.2013)
(7.92857 0 14.9199)
(9.99638 0 0.143405)
(9.98434 0 0.285093)
(9.96305 0 0.427252)
(9.93351 0 0.571882)
(9.89656 0 0.720674)
(9.85262 0 0.875186)
(9.80196 0 1.03693)
(9.74492 0 1.20737)
(9.68183 0 1.38797)
(9.61308 0 1.58019)
(9.53906 0 1.78551)
(9.46017 0 2.00545)
(9.37686 0 2.24163)
(9.28961 0 2.49576)
(9.19894 0 2.76975)
(9.10543 0 3.0657)
(9.00972 0 3.38604)
(8.91257 0 3.73363)
(8.8149 0 4.1119)
(8.71788 0 4.52512)
(8.62312 0 4.97871)
(8.53299 0 5.4797)
(8.45119 0 6.03742)
(8.384 0 6.66444)
(8.34258 0 7.378)
(8.34901 0 8.20151)
(8.44214 0 9.1651)
(8.67786 0 10.3021)
(9.32497 0 11.5571)
(9.81527 0 12.6457)
(9.99688 0 0.147842)
(9.98651 0 0.293905)
(9.96819 0 0.440403)
(9.94282 0 0.589352)
(9.9112 0 0.742447)
(9.87377 0 0.90124)
(9.83085 0 1.06723)
(9.78282 0 1.24187)
(9.73012 0 1.42659)
(9.67321 0 1.62283)
(9.61261 0 1.83202)
(9.54886 0 2.05566)
(9.48259 0 2.29528)
(9.41449 0 2.55256)
(9.34536 0 2.82929)
(9.27613 0 3.12748)
(9.20789 0 3.4494)
(9.14198 0 3.79767)
(9.08008 0 4.17542)
(9.02442 0 4.58642)
(8.97801 0 5.03525)
(8.94512 0 5.52761)
(8.93206 0 6.07046)
(8.94834 0 6.67221)
(9.00844 0 7.34229)
(9.13453 0 8.08935)
(9.35759 0 8.91526)
(9.68715 0 9.80891)
(10.253 0 10.7189)
(10.9408 0 11.4353)
(9.9974 0 0.151704)
(9.98874 0 0.301566)
(9.97346 0 0.45181)
(9.95238 0 0.604452)
(9.92622 0 0.761179)
(9.89544 0 0.923526)
(9.8604 0 1.09296)
(9.82156 0 1.27092)
(9.7794 0 1.4588)
(9.73449 0 1.65796)
(9.68745 0 1.86979)
(9.63895 0 2.09571)
(9.58979 0 2.33716)
(9.54087 0 2.5957)
(9.49324 0 2.87298)
(9.44812 0 3.17079)
(9.407 0 3.49114)
(9.37172 0 3.8363)
(9.34457 0 4.20884)
(9.32852 0 4.61174)
(9.3275 0 5.0484)
(9.34681 0 5.52267)
(9.3937 0 6.03865)
(9.47809 0 6.60033)
(9.61316 0 7.21048)
(9.81576 0 7.86875)
(10.1087 0 8.56806)
(10.5005 0 9.29374)
(11.0582 0 10.0356)
(11.8516 0 10.6806)
(9.99792 0 0.154944)
(9.99101 0 0.307986)
(9.97884 0 0.461338)
(9.96211 0 0.617003)
(9.94149 0 0.776649)
(9.91744 0 0.941782)
(9.89038 0 1.11384)
(9.8608 0 1.29419)
(9.82925 0 1.48419)
(9.79638 0 1.68514)
(9.76289 0 1.89833)
(9.72959 0 2.12507)
(9.69741 0 2.3667)
(9.66743 0 2.62459)
(9.64088 0 2.90019)
(9.61927 0 3.19504)
(9.60438 0 3.51079)
(9.59836 0 3.84921)
(9.60393 0 4.21224)
(9.62447 0 4.6019)
(9.6643 0 5.02031)
(9.72894 0 5.46948)
(9.82548 0 5.95102)
(9.96286 0 6.46562)
(10.1522 0 7.01221)
(10.4064 0 7.58691)
(10.743 0 8.18158)
(11.1735 0 8.78155)
(11.7209 0 9.37522)
(12.4742 0 9.88769)
(9.99845 0 0.157518)
(9.9933 0 0.313077)
(9.98427 0 0.46886)
(9.97193 0 0.626841)
(9.95689 0 0.788655)
(9.9396 0 0.955768)
(9.92053 0 1.12956)
(9.90019 0 1.31136)
(9.87921 0 1.50244)
(9.85829 0 1.704)
(9.8382 0 1.91725)
(9.81987 0 2.14336)
(9.80432 0 2.38351)
(9.79275 0 2.63888)
(9.78658 0 2.91068)
(9.78746 0 3.20012)
(9.79736 0 3.50845)
(9.81864 0 3.83692)
(9.85416 0 4.18675)
(9.90742 0 4.55905)
(9.9827 0 4.95474)
(10.0852 0 5.37429)
(10.2213 0 5.81742)
(10.3986 0 6.28269)
(10.6257 0 6.76683)
(10.9126 0 7.26407)
(11.2702 0 7.76518)
(11.7068 0 8.25461)
(12.2229 0 8.71564)
(12.8989 0 9.10676)
(9.99898 0 0.159387)
(9.9956 0 0.316763)
(9.9897 0 0.474263)
(9.98176 0 0.633818)
(9.97227 0 0.797017)
(9.96172 0 0.965274)
(9.95057 0 1.13991)
(9.93939 0 1.32218)
(9.92883 0 1.51326)
(9.91964 0 1.71427)
(9.91266 0 1.92629)
(9.90886 0 2.15033)
(9.90937 0 2.3874)
(9.91546 0 2.63847)
(9.92863 0 2.90446)
(9.95062 0 3.18627)
(9.98348 0 3.48471)
(10.0296 0 3.80051)
(10.0918 0 4.13421)
(10.1735 0 4.48613)
(10.2785 0 4.85616)
(10.4116 0 5.2436)
(10.5779 0 5.64688)
(10.7835 0 6.06317)
(11.0347 0 6.488)
(11.338 0 6.91467)
(11.6995 0 7.33382)
(12.1233 0 7.73204)
(12.6033 0 8.09475)
(13.2088 0 8.40142)
(9.99951 0 0.160519)
(9.99789 0 0.318978)
(9.9951 0 0.47745)
(9.9915 0 0.637808)
(9.98752 0 0.801583)
(9.9836 0 0.970128)
(9.98024 0 1.14469)
(9.97803 0 1.32645)
(9.97764 0 1.51647)
(9.97983 0 1.71577)
(9.9855 0 1.92527)
(9.99566 0 2.14587)
(10.0115 0 2.37835)
(10.0342 0 2.62346)
(10.0654 0 2.88185)
(10.1069 0 3.15408)
(10.1605 0 3.44056)
(10.2287 0 3.74153)
(10.3141 0 4.05697)
(10.4197 0 4.3865)
(10.5489 0 4.72926)
(10.7056 0 5.08372)
(10.8939 0 5.44751)
(11.1181 0 5.81709)
(11.3826 0 6.18756)
(11.691 0 6.55237)
(12.0463 0 6.90322)
(12.4499 0 7.2298)
(12.8943 0 7.52096)
(13.4374 0 7.76538)
(10 0 0.160884)
(10.0001 0 0.319666)
(10.0004 0 0.478341)
(10.0011 0 0.638709)
(10.0025 0 0.802236)
(10.005 0 0.970201)
(10.0093 0 1.14377)
(10.0158 0 1.32403)
(10.0252 0 1.51194)
(10.0383 0 1.70839)
(10.056 0 1.91418)
(10.0794 0 2.13002)
(10.1095 0 2.35652)
(10.1477 0 2.59418)
(10.1955 0 2.84341)
(10.2545 0 3.10443)
(10.3267 0 3.37732)
(10.414 0 3.66188)
(10.519 0 3.95762)
(10.6442 0 4.26368)
(10.7924 0 4.57865)
(10.9665 0 4.90053)
(11.1698 0 5.22651)
(11.405 0 5.55289)
(11.6747 0 5.87492)
(11.9808 0 6.18673)
(12.3243 0 6.48146)
(12.7047 0 6.75128)
(13.1144 0 6.98783)
(13.6023 0 7.18426)
(10.0005 0 0.160461)
(10.0023 0 0.318786)
(10.0056 0 0.476876)
(10.0104 0 0.636449)
(10.017 0 0.798893)
(10.0259 0 0.965407)
(10.0374 0 1.13707)
(10.0522 0 1.31486)
(10.071 0 1.49965)
(10.0945 0 1.69218)
(10.1236 0 1.89311)
(10.1593 0 2.10299)
(10.2027 0 2.32225)
(10.255 0 2.55118)
(10.3177 0 2.78993)
(10.3923 0 3.03846)
(10.4805 0 3.29653)
(10.5841 0 3.56363)
(10.7052 0 3.83892)
(10.8458 0 4.12118)
(11.0083 0 4.40871)
(11.1947 0 4.69926)
(11.4071 0 4.98994)
(11.6473 0 5.27718)
(11.9167 0 5.55668)
(12.2158 0 5.82347)
(12.5442 0 6.072)
(12.9006 0 6.29639)
(13.2778 0 6.49058)
(13.7177 0 6.65041)
(10.001 0 0.159236)
(10.0044 0 0.316308)
(10.0106 0 0.473015)
(10.0194 0 0.630981)
(10.0311 0 0.791508)
(10.0459 0 0.955709)
(10.0644 0 1.12457)
(10.0872 0 1.29896)
(10.1148 0 1.47964)
(10.148 0 1.66724)
(10.1876 0 1.86227)
(10.2346 0 2.06512)
(10.2901 0 2.27604)
(10.3551 0 2.49515)
(10.431 0 2.72237)
(10.5191 0 2.95745)
(10.6209 0 3.1999)
(10.7379 0 3.44896)
(10.8718 0 3.70358)
(11.0243 0 3.96233)
(11.1969 0 4.22337)
(11.3911 0 4.48441)
(11.6082 0 4.74269)
(11.8492 0 4.99495)
(12.1143 0 5.23747)
(12.4034 0 5.46615)
(12.7152 0 5.67666)
(13.048 0 5.86464)
(13.3956 0 6.02585)
(13.7944 0 6.15779)
(10.0015 0 0.1572)
(10.0065 0 0.312219)
(10.0154 0 0.466742)
(10.028 0 0.622289)
(10.0444 0 0.780073)
(10.065 0 0.941114)
(10.0901 0 1.1063)
(10.1202 0 1.27641)
(10.156 0 1.45207)
(10.1982 0 1.6338)
(10.2475 0 1.82198)
(10.3048 0 2.01685)
(10.3711 0 2.21852)
(10.4473 0 2.42693)
(10.5346 0 2.64183)
(10.6342 0 2.86281)
(10.7472 0 3.08918)
(10.8751 0 3.32005)
(11.0189 0 3.55422)
(11.1799 0 3.79018)
(11.3591 0 4.02609)
(11.5576 0 4.25976)
(11.7759 0 4.48866)
(12.0144 0 4.70994)
(12.2727 0 4.92048)
(12.55 0 5.117)
(12.845 0 5.29618)
(13.1556 0 5.45487)
(13.4764 0 5.59014)
(13.8399 0 5.70048)
(10.0019 0 0.154353)
(10.0084 0 0.306518)
(10.0199 0 0.458057)
(10.0361 0 0.610385)
(10.0571 0 0.764616)
(10.083 0 0.921678)
(10.1142 0 1.08236)
(10.1512 0 1.24734)
(10.1946 0 1.41713)
(10.245 0 1.59215)
(10.303 0 1.77265)
(10.3695 0 1.95874)
(10.4452 0 2.15041)
(10.5312 0 2.34745)
(10.6282 0 2.54949)
(10.7373 0 2.75598)
(10.8594 0 2.96614)
(10.9955 0 3.17898)
(11.1466 0 3.39325)
(11.3133 0 3.60745)
(11.4964 0 3.81983)
(11.6963 0 4.02839)
(11.9132 0 4.23088)
(12.1469 0 4.42488)
(12.3967 0 4.60785)
(12.6617 0 4.77722)
(12.9401 0 4.9305)
(13.2301 0 5.06541)
(13.527 0 5.17997)
(13.8601 0 5.27333)
(10.0024 0 0.1507)
(10.0102 0 0.299217)
(10.0241 0 0.446986)
(10.0438 0 0.595309)
(10.0689 0 0.745202)
(10.0997 0 0.897499)
(10.1366 0 1.0529)
(10.1799 0 1.21196)
(10.2302 0 1.37512)
(10.2879 0 1.54267)
(10.3537 0 1.71477)
(10.4283 0 1.89142)
(10.5122 0 2.0725)
(10.6064 0 2.25769)
(10.7115 0 2.44655)
(10.8282 0 2.63842)
(10.9574 0 2.83248)
(11.0997 0 3.02771)
(11.2557 0 3.22286)
(11.4258 0 3.41653)
(11.6104 0 3.6071)
(11.8096 0 3.79279)
(12.0231 0 3.97167)
(12.2505 0 4.14174)
(12.491 0 4.30096)
(12.7433 0 4.44734)
(13.0059 0 4.57905)
(13.277 0 4.69447)
(13.5527 0 4.79229)
(13.8593 0 4.87206)
(10.0027 0 0.146254)
(10.0119 0 0.290342)
(10.0281 0 0.433572)
(10.0508 0 0.577128)
(10.0798 0 0.721929)
(10.1152 0 0.868715)
(10.1572 0 1.01809)
(10.2062 0 1.17052)
(10.2626 0 1.32636)
(10.3269 0 1.48579)
(10.3995 0 1.64889)
(10.481 0 1.81558)
(10.5719 0 1.98563)
(10.6729 0 2.15869)
(10.7845 0 2.33421)
(10.9073 0 2.51153)
(11.0417 0 2.6898)
(11.1882 0 2.86801)
(11.3472 0 3.045)
(11.5188 0 3.21946)
(11.703 0 3.38995)
(11.8998 0 3.55492)
(12.1086 0 3.71277)
(12.3288 0 3.86185)
(12.5595 0 4.00057)
(12.7995 0 4.12742)
(13.0472 0 4.24104)
(13.301 0 4.34033)
(13.5577 0 4.42441)
(13.8414 0 4.49312)
(10.0031 0 0.141033)
(10.0134 0 0.279933)
(10.0317 0 0.417876)
(10.0573 0 0.555932)
(10.0898 0 0.694923)
(10.1293 0 0.835497)
(10.1759 0 0.978169)
(10.23 0 1.12333)
(10.2919 0 1.27123)
(10.3618 0 1.42199)
(10.4403 0 1.5756)
(10.5276 0 1.73192)
(10.6244 0 1.89067)
(10.7309 0 2.05143)
(10.8476 0 2.21365)
(10.9748 0 2.37664)
(11.1129 0 2.53957)
(11.262 0 2.7015)
(11.4224 0 2.86135)
(11.5939 0 3.01795)
(11.7764 0 3.17004)
(11.9695 0 3.31631)
(12.1727 0 3.45544)
(12.3852 0 3.58611)
(12.6061 0 3.70708)
(12.8341 0 3.81722)
(13.0679 0 3.91557)
(13.306 0 4.00134)
(13.5458 0 4.07401)
(13.8093 0 4.13357)
(10.0034 0 0.135062)
(10.0148 0 0.268036)