/*--------------------------------*- C++ -*----------------------------------*\
  =========                 |
  \\      /  F ield         | OpenFOAM: The Open Source CFD Toolbox
   \\    /   O peration     | Website:  https://openfoam.org
    \\  /    A nd           | Version:  dev
     \\/     M anipulation  |
\*---------------------------------------------------------------------------*/
FoamFile
{
    version     2.0;
    format      ascii;
    class       surfaceVectorField;
    location    "5";
    object      Uf;
}
// * * * * * * * * * * * * * * * * * * * * * * * * * * * * * * * * * * * * * //

dimensions      [0 1 -1 0 0 0 0];

internalField   nonuniform List<vector> 
5457
(
(9.92088 0 0.0251096)
(9.97125 0 0.0387458)
(9.82401 0 0.0328268)
(9.92859 0 0.0485851)
(9.70961 0 0.039312)
(9.85548 0 0.0587681)
(9.57544 0 0.0460116)
(9.7568 0 0.0705934)
(9.42138 0 0.052949)
(9.63753 0 0.0830134)
(9.24755 0 0.0601663)
(9.49861 0 0.0959366)
(9.05362 0 0.067811)
(9.3393 0 0.109613)
(8.83893 0 0.0760346)
(9.15874 0 0.124289)
(8.60252 0 0.0849703)
(8.95609 0 0.140167)
(8.34327 0 0.094745)
(8.73038 0 0.157434)
(8.05985 0 0.105487)
(8.48041 0 0.17627)
(7.7508 0 0.117328)
(8.20477 0 0.196857)
(7.41456 0 0.130396)
(7.90195 0 0.219362)
(7.0495 0 0.144811)
(7.57031 0 0.243924)
(6.65404 0 0.160673)
(7.20819 0 0.270634)
(6.22672 0 0.178045)
(6.814 0 0.299502)
(5.76644 0 0.196929)
(6.38634 0 0.330416)
(5.27258 0 0.217234)
(5.92418 0 0.363086)
(4.74539 0 0.238737)
(5.42712 0 0.396978)
(4.18622 0 0.261033)
(4.89567 0 0.431239)
(3.59799 0 0.283489)
(4.33166 0 0.464621)
(2.98558 0 0.305203)
(3.73863 0 0.495426)
(2.35614 0 0.32507)
(3.1223 0 0.521514)
(1.71913 0 0.342549)
(2.4911 0 0.540559)
(1.08437 0 0.361882)
(1.85588 0 0.551675)
(0.45186 0 0.34869)
(1.24551 0 0.563021)
(-0.145824 0 0.102473)
(0.608946 0 0.544889)
(-0.423616 0 -0.207097)
(0.0946717 0 0.259379)
(-0.402155 0 -0.361265)
(-0.133654 0 -0.020523)
(-0.119681 0 -0.393886)
(9.99641 0 0.0516724)
(9.99705 0 0.0405046)
(9.95879 0 0.0708615)
(9.97851 0 0.0674544)
(9.89824 0 0.0879868)
(9.93377 0 0.0898699)
(9.81659 0 0.105985)
(9.86453 0 0.113555)
(9.71359 0 0.124922)
(9.77438 0 0.138515)
(9.58909 0 0.144854)
(9.66435 0 0.164646)
(9.44274 0 0.16609)
(9.53397 0 0.192332)
(9.2739 0 0.188967)
(9.3825 0 0.222031)
(9.08166 0 0.213783)
(9.20919 0 0.254149)
(8.8649 0 0.240816)
(9.01316 0 0.289064)
(8.6223 0 0.270337)
(8.79331 0 0.327153)
(8.35239 0 0.302608)
(8.54836 0 0.368787)
(8.05356 0 0.337858)
(8.27683 0 0.414318)
(7.72412 0 0.376264)
(7.97717 0 0.464048)
(7.36237 0 0.417904)
(7.64772 0 0.518191)
(6.96673 0 0.46271)
(7.28683 0 0.576809)
(6.53584 0 0.510389)
(6.89296 0 0.639728)
(6.06884 0 0.560335)
(6.46482 0 0.70643)
(5.5656 0 0.611523)
(6.00161 0 0.775912)
(5.02711 0 0.662387)
(5.50327 0 0.846526)
(4.4559 0 0.71071)
(4.9709 0 0.915809)
(3.85652 0 0.753542)
(4.4072 0 0.980309)
(3.23622 0 0.787198)
(3.81706 0 1.03546)
(2.60584 0 0.807503)
(3.20848 0 1.07549)
(1.98282 0 0.810468)
(2.59341 0 1.09315)
(1.4053 0 0.776901)
(1.99623 0 1.07709)
(0.929772 0 0.646408)
(1.41952 0 0.978416)
(0.439876 0 0.38435)
(0.937588 0 0.716805)
(0.0591826 0 -0.118603)
(0.443811 0 0.343536)
(0.174924 0 -0.33592)
(9.98903 0 0.0594308)
(9.99481 0 0.0458774)
(9.95434 0 0.0894765)
(9.97368 0 0.0848541)
(9.89729 0 0.118032)
(9.92984 0 0.119174)
(9.82046 0 0.147898)
(9.86357 0 0.153976)
(9.72416 0 0.179422)
(9.77736 0 0.190408)
(9.60821 0 0.212775)
(9.67227 0 0.228637)
(9.47234 0 0.248392)
(9.5481 0 0.269129)
(9.31607 0 0.286774)
(9.40432 0 0.312497)
(9.13868 0 0.328397)
(9.24034 0 0.359326)
(8.93925 0 0.373722)
(9.05549 0 0.410174)
(8.71664 0 0.423206)
(8.84889 0 0.465598)
(8.4696 0 0.477295)
(8.61951 0 0.526152)
(8.19668 0 0.536398)
(8.36615 0 0.592372)
(7.89632 0 0.600841)
(8.08752 0 0.664736)
(7.56692 0 0.670808)
(7.7822 0 0.743616)
(7.20684 0 0.746254)
(7.44873 0 0.829187)
(6.81457 0 0.82678)
(7.08569 0 0.921316)
(6.38888 0 0.91148)
(6.69171 0 1.0194)
(5.92905 0 0.998755)
(6.26573 0 1.12217)
(5.43516 0 1.08609)
(5.80713 0 1.22742)
(4.90857 0 1.16982)
(5.31609 0 1.33174)
(4.35245 0 1.24489)
(4.794 0 1.43019)
(3.77262 0 1.30455)
(4.244 0 1.51588)
(3.17875 0 1.33984)
(3.67184 0 1.57943)
(2.58666 0 1.33812)
(3.08635 0 1.60775)
(2.01989 0 1.27298)
(2.50295 0 1.58159)
(1.48697 0 1.09542)
(1.92876 0 1.46426)
(0.958315 0 0.769184)
(1.38527 0 1.21042)
(0.479889 0 0.202471)
(0.829557 0 0.801057)
(0.433738 0 0.134102)
(9.98515 0 0.0716138)
(9.99367 0 0.0531478)
(9.95039 0 0.11363)
(9.97087 0 0.102291)
(9.89436 0 0.154133)
(9.92691 0 0.147953)
(9.81882 0 0.195573)
(9.86185 0 0.193721)
(9.72442 0 0.238811)
(9.77746 0 0.241277)
(9.61112 0 0.284324)
(9.67467 0 0.291164)
(9.47874 0 0.33272)
(9.55343 0 0.343956)
(9.32695 0 0.384674)
(9.41336 0 0.400372)
(9.15523 0 0.440846)
(9.254 0 0.461139)
(8.96291 0 0.501883)
(9.07484 0 0.526961)
(8.74916 0 0.568427)
(8.8752 0 0.598535)
(8.51304 0 0.641111)
(8.65429 0 0.676561)
(8.25346 0 0.720529)
(8.41122 0 0.761719)
(7.96926 0 0.807188)
(8.145 0 0.854634)
(7.65918 0 0.901434)
(7.85454 0 0.955816)
(7.32192 0 1.00334)
(7.53875 0 1.06557)
(6.95621 0 1.11257)
(7.19646 0 1.18384)
(6.56085 0 1.22813)
(6.82653 0 1.31007)
(6.1349 0 1.34816)
(6.4279 0 1.44291)
(5.67786 0 1.46959)
(5.99968 0 1.5799)
(5.19002 0 1.58777)
(5.54136 0 1.71708)
(4.67289 0 1.69602)
(5.05307 0 1.84853)
(4.12982 0 1.78515)
(4.53599 0 1.96583)
(3.56668 0 1.84253)
(3.99276 0 2.0573)
(2.99208 0 1.85073)
(3.42763 0 2.10714)
(2.41587 0 1.78249)
(2.84766 0 2.09449)
(1.84057 0 1.60047)
(2.25626 0 1.98875)
(1.2594 0 1.27845)
(1.66034 0 1.75306)
(0.666783 0 0.789559)
(1.02398 0 1.36778)
(0.523041 0 0.787175)
(9.98337 0 0.0844072)
(9.99316 0 0.0612913)
(9.94821 0 0.136837)
(9.96958 0 0.119927)
(9.89314 0 0.188032)
(9.92575 0 0.17624)
(9.81906 0 0.240168)
(9.86199 0 0.232698)
(9.72663 0 0.294467)
(9.77964 0 0.291087)
(9.6159 0 0.351658)
(9.6794 0 0.352273)
(9.48671 0 0.412469)
(9.56128 0 0.416976)
(9.33879 0 0.477675)
(9.42497 0 0.486007)
(9.17171 0 0.548049)
(9.27009 0 0.560203)
(8.98492 0 0.624352)
(9.0962 0 0.640385)
(8.77778 0 0.707341)
(8.90274 0 0.727365)
(8.54953 0 0.797761)
(8.68907 0 0.821953)
(8.29935 0 0.896322)
(8.45444 0 0.924938)
(8.02634 0 1.00365)
(8.19807 0 1.03705)
(7.72957 0 1.1202)
(7.91912 0 1.15891)
(7.40805 0 1.24616)
(7.61669 0 1.29092)
(7.06077 0 1.38126)
(7.28985 0 1.43314)
(6.6867 0 1.52458)
(6.93763 0 1.5851)
(6.28486 0 1.67418)
(6.55899 0 1.74549)
(5.85439 0 1.82678)
(6.15288 0 1.91188)
(5.39472 0 1.97725)
(5.71823 0 2.08016)
(4.90577 0 2.11805)
(5.25409 0 2.24408)
(4.38827 0 2.2386)
(4.75976 0 2.3946)
(3.84397 0 2.32454)
(4.23497 0 2.51919)
(3.27546 0 2.35695)
(3.67991 0 2.60124)
(2.68542 0 2.3106)
(3.09575 0 2.61971)
(2.07271 0 2.15502)
(2.48171 0 2.54733)
(1.42939 0 1.86742)
(1.83994 0 2.35374)
(0.742621 0 1.41959)
(1.13138 0 2.02455)
(0.543312 0 1.51453)
(9.98264 0 0.0974974)
(9.99299 0 0.0697926)
(9.94744 0 0.159774)
(9.96925 0 0.137583)
(9.89354 0 0.221347)
(9.92597 0 0.203926)
(9.82134 0 0.284091)
(9.86381 0 0.270687)
(9.73134 0 0.349347)
(9.78386 0 0.339582)
(9.62367 0 0.418018)
(9.68665 0 0.411696)
(9.49819 0 0.490937)
(9.57218 0 0.487901)
(9.35465 0 0.568972)
(9.44021 0 0.569103)
(9.19269 0 0.653002)
(9.29043 0 0.656232)
(9.01183 0 0.743895)
(9.12242 0 0.750211)
(8.81151 0 0.842513)
(8.93571 0 0.851954)
(8.59108 0 0.949705)
(8.72972 0 0.962363)
(8.34985 0 1.06628)
(8.50381 0 1.08232)
(8.08706 0 1.19296)
(8.25728 0 1.21264)
(7.80192 0 1.3303)
(7.98937 0 1.35404)
(7.49359 0 1.47859)
(7.69929 0 1.50702)
(7.16119 0 1.63768)
(7.38617 0 1.67176)
(6.80372 0 1.80674)
(7.04903 0 1.84791)
(6.42011 0 1.98396)
(6.68675 0 2.03435)
(6.00913 0 2.16613)
(6.29802 0 2.22883)
(5.56942 0 2.3481)
(5.8812 0 2.42747)
(5.09948 0 2.5222)
(5.43435 0 2.62425)
(4.59776 0 2.67756)
(4.95513 0 2.81029)
(4.06272 0 2.79949)
(4.44087 0 2.97322)
(3.49272 0 2.86911)
(3.88854 0 3.09663)
(2.88585 0 2.86293)
(3.29526 0 3.15991)
(2.23804 0 2.75395)
(2.65692 0 3.13792)
(1.54246 0 2.52106)
(1.97486 0 3.00322)
(0.793657 0 2.13137)
(1.20725 0 2.74063)
(0.556743 0 2.29186)
(9.9825 0 0.110626)
(9.99302 0 0.0783611)
(9.9477 0 0.182324)
(9.96954 0 0.155037)
(9.89522 0 0.253816)
(9.92722 0 0.230885)
(9.82524 0 0.326766)
(9.86697 0 0.307508)
(9.73813 0 0.402553)
(9.78978 0 0.386521)
(9.63403 0 0.482232)
(9.69605 0 0.469146)
(9.51285 0 0.566755)
(9.58579 0 0.556395)
(9.37438 0 0.65709)
(9.4588 0 0.649268)
(9.21828 0 0.75421)
(9.3148 0 0.748784)
(9.04414 0 0.859081)
(9.15346 0 0.855959)
(8.85145 0 0.972659)
(8.97434 0 0.971797)
(8.63962 0 1.09588)
(8.7769 0 1.09729)
(8.40802 0 1.22964)
(8.56058 0 1.23341)
(8.15595 0 1.37475)
(8.32469 0 1.38107)
(7.88264 0 1.53186)
(8.06852 0 1.54108)
(7.58727 0 1.70138)
(7.79125 0 1.71404)
(7.2689 0 1.88329)
(7.49196 0 1.9003)
(6.92643 0 2.07697)
(7.16954 0 2.0997)
(6.55852 0 2.28085)
(6.82266 0 2.31139)
(6.16348 0 2.49205)
(6.4496 0 2.53349)
(5.73914 0 2.70583)
(6.04811 0 2.76264)
(5.28275 0 2.91499)
(5.61526 0 2.99346)
(4.79085 0 3.10916)
(5.14726 0 3.21784)
(4.25932 0 3.2742)
(4.63941 0 3.42427)
(3.68342 0 3.39186)
(4.08608 0 3.59715)
(3.05807 0 3.4397)
(3.48135 0 3.71655)
(2.37776 0 3.39182)
(2.81839 0 3.75814)
(1.63793 0 3.2262)
(2.09918 0 3.69401)
(0.839141 0 2.90088)
(1.27894 0 3.50452)
(0.573367 0 3.11375)
(9.98273 0 0.123581)
(9.99316 0 0.0868171)
(9.94873 0 0.204308)
(9.97027 0 0.172092)
(9.89794 0 0.285251)
(9.92926 0 0.256974)
(9.83051 0 0.367964)
(9.87123 0 0.342986)
(9.74671 0 0.45385)
(9.79715 0 0.431676)
(9.64668 0 0.544075)
(9.70735 0 0.524349)
(9.53038 0 0.639705)
(9.60181 0 0.622133)
(9.39762 0 0.741797)
(9.48038 0 0.726123)
(9.24813 0 0.851411)
(9.34286 0 0.837421)
(9.08153 0 0.969603)
(9.18894 0 0.957128)
(8.89736 0 1.09742)
(9.01824 0 1.08634)
(8.6951 0 1.23588)
(8.83029 0 1.22613)
(8.47413 0 1.38598)
(8.62454 0 1.37757)
(8.23376 0 1.54862)
(8.40036 0 1.54168)
(7.97322 0 1.7246)
(8.15701 0 1.71937)
(7.69161 0 1.91444)
(7.89363 0 1.91142)
(7.38785 0 2.11834)
(7.6092 0 2.11835)
(7.06062 0 2.33596)
(7.30242 0 2.34028)
(6.70821 0 2.56611)
(6.97165 0 2.57675)
(6.32837 0 2.80648)
(6.61473 0 2.82642)
(5.91812 0 3.05304)
(6.22873 0 3.08669)
(5.47347 0 3.29952)
(5.80976 0 3.35316)
(4.98933 0 3.53665)
(5.35268 0 3.61898)
(4.45937 0 3.75141)
(4.85091 0 3.87399)
(3.87625 0 3.92647)
(4.29646 0 4.10394)
(3.23236 0 4.03987)
(3.68059 0 4.2897)
(2.52086 0 4.06501)
(2.99355 0 4.40679)
(1.7384 0 3.97617)
(2.23741 0 4.42461)
(0.889485 0 3.7188)
(1.36338 0 4.31634)
(0.598762 0 3.98495)
(9.98321 0 0.136203)
(9.99339 0 0.09504)
(9.95032 0 0.225571)
(9.97131 0 0.188588)
(9.90151 0 0.315495)
(9.93193 0 0.282048)
(9.83694 0 0.407502)
(9.87643 0 0.376958)
(9.75684 0 0.50301)
(9.80579 0 0.474838)
(9.66135 0 0.603274)
(9.7203 0 0.577047)
(9.55046 0 0.709456)
(9.61996 0 0.684812)
(9.42403 0 0.822698)
(9.50465 0 0.799313)
(9.28184 0 0.944141)
(9.37422 0 0.92173)
(9.12356 0 1.07493)
(9.22843 0 1.05324)
(8.94879 0 1.21619)
(9.06695 0 1.19503)
(8.75705 0 1.36904)
(8.88938 0 1.34827)
(8.54776 0 1.53458)
(8.6952 0 1.51411)
(8.32025 0 1.71383)
(8.48382 0 1.6937)
(8.0737 0 1.90773)
(8.2545 0 1.88809)
(7.80714 0 2.11702)
(8.00636 0 2.09826)
(7.51933 0 2.34215)
(7.73826 0 2.32495)
(7.20869 0 2.58314)
(7.44873 0 2.56867)
(6.87311 0 2.83938)
(7.13586 0 2.82944)
(6.50979 0 3.10926)
(6.79702 0 3.10662)
(6.1149 0 3.38979)
(6.4287 0 3.3986)
(5.68334 0 3.67601)
(6.02607 0 3.70228)
(5.20842 0 3.9602)
(5.58272 0 4.01247)
(4.68169 0 4.23099)
(5.09026 0 4.32096)
(4.09322 0 4.47232)
(4.53821 0 4.61539)
(3.43246 0 4.66255)
(3.91464 0 4.87787)
(2.69008 0 4.77317)
(3.20563 0 5.08359)
(1.86181 0 4.77242)
(2.41123 0 5.19798)
(0.954161 0 4.58975)
(1.47625 0 5.18433)
(0.639177 0 4.91949)
(9.98386 0 0.148368)
(9.99368 0 0.102943)
(9.95235 0 0.24597)
(9.9726 0 0.204394)
(9.90578 0 0.344398)
(9.9351 0 0.305969)
(9.84437 0 0.445197)
(9.88241 0 0.409269)
(9.76833 0 0.549809)
(9.81552 0 0.515815)
(9.6778 0 0.659557)
(9.73471 0 0.627009)
(9.57281 0 0.775685)
(9.63999 0 0.744155)
(9.45328 0 0.899414)
(9.5313 0 0.868513)
(9.31902 0 1.03196)
(9.40853 0 1.00133)
(9.16978 0 1.17455)
(9.27152 0 1.14387)
(9.00522 0 1.32839)
(9.11999 0 1.29738)
(8.82492 0 1.49471)
(8.95361 0 1.46312)
(8.62834 0 1.6747)
(8.77194 0 1.64236)
(8.41485 0 1.86953)
(8.57443 0 1.83635)
(8.18361 0 2.08032)
(8.36037 0 2.04634)
(7.9336 0 2.30804)
(8.12889 0 2.27348)
(7.66348 0 2.55349)
(7.8788 0 2.51886)
(7.37144 0 2.81716)
(7.60854 0 2.78338)
(7.05506 0 3.0991)
(7.31598 0 3.06767)
(6.71103 0 3.39863)
(6.99821 0 3.37194)
(6.33481 0 3.71406)
(6.65119 0 3.69576)
(5.92026 0 4.04208)
(6.26941 0 4.03764)
(5.45918 0 4.37705)
(5.84531 0 4.3945)
(4.94096 0 4.70988)
(5.36879 0 4.76071)
(4.35261 0 5.02653)
(4.82668 0 5.12673)
(3.67947 0 5.30618)
(4.20306 0 5.47705)
(2.9074 0 5.51817)
(3.47778 0 5.78746)
(2.02757 0 5.62301)
(2.64492 0 6.01949)
(1.04505 0 5.52945)
(1.63764 0 6.12392)
(0.704432 0 5.94305)
(9.98465 0 0.159981)
(9.99402 0 0.110462)
(9.95473 0 0.265381)
(9.97409 0 0.2194)
(9.91065 0 0.37182)
(9.93868 0 0.328612)
(9.85267 0 0.480883)
(9.88905 0 0.439775)
(9.781 0 0.594044)
(9.82618 0 0.554432)
(9.69581 0 0.712679)
(9.75038 0 0.674024)
(9.59716 0 0.838105)
(9.66167 0 0.799915)
(9.48502 0 0.971613)
(9.56003 0 0.933432)
(9.35927 0 1.11449)
(9.44543 0 1.07589)
(9.21973 0 1.26802)
(9.31776 0 1.22861)
(9.06612 0 1.43351)
(9.17684 0 1.39291)
(8.8981 0 1.61227)
(9.0224 0 1.57015)
(8.71521 0 1.80562)
(8.8541 0 1.76168)
(8.51685 0 2.01488)
(8.67145 0 1.96889)
(8.30225 0 2.24135)
(8.47384 0 2.1932)
(8.07039 0 2.48629)
(8.26044 0 2.43599)
(7.81988 0 2.75088)
(8.03011 0 2.69869)
(7.54884 0 3.03617)
(7.7813 0 2.98266)
(7.25464 0 3.34296)
(7.51183 0 3.2892)
(6.93369 0 3.67169)
(7.21868 0 3.61947)
(6.58094 0 4.02216)
(6.89763 0 3.97438)
(6.18948 0 4.39313)
(6.54274 0 4.35433)
(5.74978 0 4.78162)
(6.14572 0 4.75881)
(5.24912 0 5.18174)
(5.69507 0 5.18557)
(4.67093 0 5.58282)
(5.17506 0 5.62924)
(3.99487 0 5.96657)
(4.56505 0 6.07883)
(3.19836 0 6.30172)
(3.83627 0 6.51361)
(2.26171 0 6.54068)
(2.97074 0 6.89407)
(1.18056 0 6.56508)
(1.87905 0 7.15782)
(0.812758 0 7.09934)
(9.98553 0 0.170963)
(9.9944 0 0.117546)
(9.95738 0 0.283698)
(9.97572 0 0.233519)
(9.91601 0 0.397634)
(9.94258 0 0.349868)
(9.86169 0 0.51441)
(9.89623 0 0.46835)
(9.79469 0 0.635533)
(9.83765 0 0.590539)
(9.71517 0 0.762427)
(9.76713 0 0.717908)
(9.62325 0 0.896465)
(9.68475 0 0.851873)
(9.51894 0 1.039)
(9.59055 0 0.993816)
(9.40221 0 1.19137)
(9.48456 0 1.1451)
(9.27293 0 1.35494)
(9.36673 0 1.30711)
(9.13094 0 1.53108)
(9.23698 0 1.48122)
(8.97596 0 1.72118)
(9.09514 0 1.66887)
(8.80763 0 1.92669)
(8.94096 0 1.87149)
(8.62546 0 2.14907)
(8.77408 0 2.09062)
(8.42876 0 2.38982)
(8.594 0 2.3278)
(8.21661 0 2.6505)
(8.40001 0 2.58469)
(7.98769 0 2.9327)
(8.19113 0 2.86302)
(7.74017 0 3.23803)
(7.96594 0 3.16464)
(7.47149 0 3.56814)
(7.72243 0 3.49152)
(7.178 0 3.92467)
(7.45775 0 3.84581)
(6.85456 0 4.30911)
(7.16784 0 4.22985)
(6.49391 0 4.72262)
(6.84688 0 4.64609)
(6.08577 0 5.16551)
(6.48652 0 5.09697)
(5.61571 0 5.6363)
(6.07474 0 5.58446)
(5.06363 0 6.12981)
(5.59407 0 6.10906)
(4.40223 0 6.63377)
(5.01963 0 6.66757)
(3.59611 0 7.12119)
(4.31254 0 7.24853)
(2.60427 0 7.54058)
(3.43562 0 7.82016)
(1.39425 0 7.74036)
(2.25638 0 8.31497)
(1.00255 0 8.46492)
(9.9865 0 0.181252)
(9.9948 0 0.124156)
(9.96027 0 0.300831)
(9.97747 0 0.246679)
(9.92177 0 0.421732)
(9.94676 0 0.369645)
(9.87133 0 0.545648)
(9.90387 0 0.494884)
(9.80923 0 0.674121)
(9.84977 0 0.624002)
(9.73567 0 0.808611)
(9.78478 0 0.758503)
(9.65081 0 0.95054)
(9.70902 0 0.899843)
(9.55471 0 1.10131)
(9.62258 0 1.04944)
(9.44742 0 1.26231)
(9.52555 0 1.20872)
(9.32891 0 1.43495)
(9.41799 0 1.37908)
(9.19908 0 1.62066)
(9.29988 0 1.56197)
(9.05779 0 1.82093)
(9.17118 0 1.75887)
(8.9048 0 2.03728)
(9.03176 0 1.97131)
(8.73974 0 2.27133)
(8.88141 0 2.2009)
(8.5621 0 2.52477)
(8.7198 0 2.44937)
(8.3711 0 2.79943)
(8.54641 0 2.71856)
(8.16564 0 3.09728)
(8.3605 0 3.01051)
(7.94414 0 3.42051)
(8.16093 0 3.32749)
(7.70431 0 3.7716)
(7.94609 0 3.67211)
(7.44285 0 4.15337)
(7.7136 0 4.04745)
(7.15504 0 4.56908)
(7.46002 0 4.45719)
(6.83397 0 5.02245)
(7.18033 0 4.90582)
(6.46961 0 5.51762)
(6.86713 0 5.39886)
(6.04707 0 6.0587)
(6.50937 0 5.94302)
(5.54412 0 6.64874)
(6.0901 0 6.54619)
(4.92711 0 7.287)
(5.58317 0 7.21679)
(4.145 0 7.96141)
(4.94252 0 7.96155)
(3.12171 0 8.63352)
(4.10926 0 8.77562)
(1.75618 0 9.12772)
(2.87834 0 9.62084)
(1.36464 0 10.185)
(9.98754 0 0.190798)
(9.99523 0 0.13026)
(9.96332 0 0.316706)
(9.97932 0 0.258823)
(9.92785 0 0.44402)
(9.95115 0 0.387867)
(9.88148 0 0.574487)
(9.91188 0 0.519283)
(9.82448 0 0.709677)
(9.86243 0 0.654712)
(9.75712 0 0.851083)
(9.80317 0 0.795681)
(9.67958 0 1.00016)
(9.73425 0 0.943672)
(9.59201 0 1.15835)
(9.65582 0 1.10014)
(9.49451 0 1.32707)
(9.56805 0 1.26653)
(9.38715 0 1.50778)
(9.47107 0 1.44427)
(9.26995 0 1.70195)
(9.36499 0 1.63486)
(9.14289 0 1.91113)
(9.24986 0 1.8398)
(9.00587 0 2.13694)
(9.12571 0 2.0607)
(8.8587 0 2.38107)
(8.9925 0 2.29924)
(8.70107 0 2.64541)
(8.8501 0 2.55724)
(8.53247 0 2.932)
(8.69827 0 2.83673)
(8.35211 0 3.24317)
(8.53656 0 3.13997)
(8.15884 0 3.58158)
(8.3643 0 3.46958)
(7.95091 0 3.95043)
(8.18043 0 3.82868)
(7.72578 0 4.3536)
(7.98334 0 4.22107)
(7.4797 0 4.79596)
(7.77068 0 4.65156)
(7.2071 0 5.28369)
(7.53896 0 5.12634)
(6.8996 0 5.82476)
(7.28294 0 5.65363)
(6.54424 0 6.42954)
(6.99463 0 6.24457)
(6.12027 0 7.11145)
(6.6613 0 6.91466)
(5.59295 0 7.88761)
(6.2624 0 7.68617)
(4.90078 0 8.77788)
(5.75746 0 8.59258)
(3.92674 0 9.80147)
(5.08719 0 9.68511)
(2.43308 0 10.8565)
(3.9793 0 11.0492)
(2.14607 0 12.5681)
(9.98862 0 0.199562)
(9.99567 0 0.135835)
(9.96652 0 0.331261)
(9.98124 0 0.269905)
(9.9342 0 0.464417)
(9.9557 0 0.404471)
(9.89202 0 0.60082)
(9.92016 0 0.541474)
(9.8403 0 0.742064)
(9.87552 0 0.682581)
(9.77932 0 0.889668)
(9.82216 0 0.829336)
(9.70931 0 1.04511)
(9.76028 0 0.983241)
(9.6305 0 1.20985)
(9.69009 0 1.14577)
(9.54307 0 1.38534)
(9.61185 0 1.31837)
(9.44717 0 1.57305)
(9.52576 0 1.50251)
(9.34294 0 1.7745)
(9.43205 0 1.69968)
(9.23051 0 1.99126)
(9.33091 0 1.91142)
(9.10993 0 2.22501)
(9.22251 0 2.13936)
(8.98124 0 2.47752)
(9.10702 0 2.38523)
(8.84436 0 2.75079)
(8.98454 0 2.65092)
(8.69911 0 3.04702)
(8.85513 0 2.93854)
(8.54514 0 3.36878)
(8.71876 0 3.2505)
(8.38184 0 3.7191)
(8.57527 0 3.58964)
(8.20826 0 4.10169)
(8.42431 0 3.95938)
(8.02295 0 4.5212)
(8.26532 0 4.36399)
(7.82371 0 4.98368)
(8.09739 0 4.80893)
(7.60725 0 5.49719)
(7.91916 0 5.30145)
(7.36855 0 6.07275)
(7.72864 0 5.8514)
(7.09969 0 6.72604)
(7.52297 0 6.47272)
(6.7875 0 7.48025)
(7.29791 0 7.18599)
(6.40843 0 8.3721)
(7.04797 0 8.02359)
(5.91546 0 9.46605)
(6.76296 0 9.04201)
(5.19596 0 10.9084)
(6.46187 0 10.3569)
(3.88428 0 13.1786)
(6.18964 0 12.3036)
(5.25868 0 16.3725)
(0.182989 0 -0.109711)
(0.106935 0 -0.179226)
(0.3585 0 -0.0940033)
(0.261228 0 -0.167843)
(0.50374 0 -0.0726245)
(0.415215 0 -0.135613)
(0.618573 0 -0.053795)
(0.545555 0 -0.10469)
(0.707926 0 -0.0388441)
(0.648849 0 -0.079536)
(0.777012 0 -0.0273975)
(0.729882 0 -0.0600435)
(0.830345 0 -0.0188096)
(0.794164 0 -0.0452578)
(0.871658 0 -0.0124821)
(0.846026 0 -0.0342295)
(0.903958 0 -0.00791093)
(0.888633 0 -0.0261298)
(0.929634 0 -0.00469047)
(0.92436 0 -0.0202808)
(0.950581 0 -0.00250263)
(0.955051 0 -0.0161544)
(0.9683 0 -0.00109669)
(0.982159 0 -0.0133425)
(0.98397 0 -0.000266931)
(1.00683 0 -0.0115202)
(0.998473 0 0.000166343)
(1.02993 0 -0.0104112)
(1.0124 0 0.000370315)
(1.05212 0 -0.00976225)
(1.02603 0 0.000506176)
(1.0738 0 -0.0093271)
(1.0393 0 0.000725192)
(1.09515 0 -0.00886629)
(1.05182 0 0.0011507)
(1.11607 0 -0.00816666)
(1.06293 0 0.00184908)
(1.13623 0 -0.00708134)
(1.0719 0 0.00280483)
(1.1551 0 -0.00557612)
(1.07808 0 0.0039194)
(1.17213 0 -0.00375339)
(1.08117 0 0.0050274)
(1.18688 0 -0.00182982)
(1.08138 0 0.00591779)
(1.19916 0 -0.00012167)
(1.07875 0 0.00658113)
(1.20902 0 0.00148443)
(1.07344 0 0.00719816)
(1.21649 0 0.00293229)
(1.06509 0 0.007816)
(1.22147 0 0.0044966)
(1.05351 0 0.00834532)
(1.22366 0 0.00609333)
(1.03864 0 0.00850973)
(1.22221 0 0.00763933)
(1.02213 0 0.0074884)
(1.21759 0 0.00828281)
(1.21102 0 0.00621437)
(0.168972 0 -0.261476)
(0.0891264 0 -0.344723)
(0.331597 0 -0.2302)
(0.230802 0 -0.323362)
(0.468534 0 -0.183844)
(0.363845 0 -0.263474)
(0.580136 0 -0.142522)
(0.477067 0 -0.206434)
(0.671087 0 -0.109651)
(0.568192 0 -0.160495)
(0.745946 0 -0.0844515)
(0.641894 0 -0.125104)
(0.808476 0 -0.0654823)
(0.702689 0 -0.0983201)
(0.861658 0 -0.0513991)
(0.753977 0 -0.0782931)
(0.907799 0 -0.0410766)
(0.798184 0 -0.0634563)
(0.948679 0 -0.0336238)
(0.837075 0 -0.0525711)
(0.985682 0 -0.0283543)
(0.871997 0 -0.0446908)
(1.01988 0 -0.0247364)
(0.904 0 -0.0390941)
(1.05211 0 -0.0223426)
(0.933902 0 -0.0352183)
(1.08302 0 -0.0208071)
(0.962341 0 -0.0326009)
(1.11309 0 -0.0197939)
(0.989802 0 -0.0308344)
(1.14262 0 -0.0189795)
(1.01664 0 -0.0295341)
(1.17174 0 -0.0180571)
(1.04307 0 -0.0283262)
(1.2004 0 -0.016769)
(1.06918 0 -0.0268663)
(1.22837 0 -0.014964)
(1.09487 0 -0.024896)
(1.25529 0 -0.01265)
(1.11991 0 -0.0223194)
(1.28082 0 -0.0100004)
(1.14397 0 -0.0192532)
(1.3047 0 -0.00729048)
(1.16674 0 -0.015988)
(1.32662 0 -0.00475771)
(1.18807 0 -0.0128141)
(1.34659 0 -0.00238626)
(1.20783 0 -0.00980254)
(1.36446 0 6.35598e-05)
(1.22627 0 -0.00692984)
(1.37994 0 0.00281181)
(1.2435 0 -0.00384606)
(1.39232 0 0.00563297)
(1.25942 0 -0.000422057)
(1.40084 0 0.00769782)
(1.27377 0 0.00326418)
(1.40677 0 0.00768906)
(1.2857 0 0.00530885)
(1.29647 0 0.0046639)
(0.142076 0 -0.413161)
(0.0693386 0 -0.483878)
(0.273433 0 -0.363669)
(0.186521 0 -0.448979)
(0.381419 0 -0.292637)
(0.285214 0 -0.364303)
(0.468398 0 -0.230016)
(0.368657 0 -0.28573)
(0.539185 0 -0.180499)
(0.434207 0 -0.223504)
(0.597678 0 -0.142566)
(0.487129 0 -0.175941)
(0.64693 0 -0.113933)
(0.530773 0 -0.140114)
(0.689227 0 -0.0925227)
(0.567594 0 -0.113338)
(0.726253 0 -0.0766336)
(0.599299 0 -0.0934095)
(0.759292 0 -0.0649468)
(0.627067 0 -0.0786677)
(0.789339 0 -0.0564569)
(0.651806 0 -0.0678636)
(0.817173 0 -0.050392)
(0.674231 0 -0.0600527)
(0.843404 0 -0.0461398)
(0.694909 0 -0.0545035)
(0.868511 0 -0.0431874)
(0.714288 0 -0.0506242)
(0.892866 0 -0.0410748)
(0.732724 0 -0.0479048)
(0.91674 0 -0.0393644)
(0.750508 0 -0.0458719)
(0.94029 0 -0.0376387)
(0.767866 0 -0.044062)
(0.963538 0 -0.0355385)
(0.784952 0 -0.0420331)
(0.986356 0 -0.0328378)
(0.801808 0 -0.0394305)
(1.0085 0 -0.0295227)
(0.818337 0 -0.0360916)
(1.0297 0 -0.0258089)
(0.8343 0 -0.0321291)
(1.0498 0 -0.0220325)
(0.849393 0 -0.0279062)
(1.06887 0 -0.0184219)
(0.863403 0 -0.0238489)
(1.08721 0 -0.014981)
(0.876424 0 -0.0201734)
(1.10513 0 -0.0114794)
(0.888823 0 -0.0168175)
(1.12291 0 -0.00757662)
(0.901043 0 -0.0134282)
(1.14071 0 -0.00337449)
(0.913355 0 -0.00978641)
(1.15829 0 0.000311635)
(0.926256 0 -0.00576763)
(1.1736 0 0.0024048)
(0.938403 0 -0.00236993)
(0.948836 0 -0.000173559)
(0.112227 0 -0.529249)
(0.0492693 0 -0.593797)
(0.206799 0 -0.459538)
(0.136325 0 -0.539419)
(0.279917 0 -0.367154)
(0.194666 0 -0.432575)
(0.336855 0 -0.28811)
(0.244923 0 -0.337638)
(0.382387 0 -0.226671)
(0.280659 0 -0.264034)
(0.419507 0 -0.180006)
(0.308767 0 -0.208202)
(0.450381 0 -0.144919)
(0.330954 0 -0.166314)
(0.476549 0 -0.118666)
(0.348773 0 -0.135019)
(0.499016 0 -0.0990906)
(0.363225 0 -0.111585)
(0.518558 0 -0.0845826)
(0.374955 0 -0.0941025)
(0.535779 0 -0.073929)
(0.384492 0 -0.0811452)
(0.551168 0 -0.0662043)
(0.392264 0 -0.0716406)
(0.565119 0 -0.0606795)
(0.398619 0 -0.0647605)
(0.577959 0 -0.0567529)
(0.403846 0 -0.0598416)
(0.589974 0 -0.0538947)
(0.408203 0 -0.0563256)
(0.601417 0 -0.0516046)
(0.411938 0 -0.053703)
(0.612502 0 -0.0493969)
(0.415317 0 -0.0514689)
(0.623359 0 -0.0468335)
(0.418603 0 -0.0491159)
(0.633989 0 -0.0436107)
(0.421995 0 -0.0462018)
(0.644248 0 -0.0396646)
(0.425551 0 -0.0424719)
(0.653885 0 -0.0352203)
(0.429087 0 -0.0379812)
(0.662664 0 -0.0307058)
(0.432201 0 -0.0331116)
(0.67054 0 -0.0265274)
(0.434318 0 -0.0284086)
(0.67775 0 -0.0228634)
(0.435159 0 -0.0242486)
(0.68467 0 -0.0195539)
(0.434848 0 -0.0206366)
(0.691668 0 -0.0162535)
(0.433569 0 -0.017199)
(0.698744 0 -0.0127144)
(0.4324 0 -0.0135091)
(0.705794 0 -0.00913622)
(0.431754 0 -0.00938925)
(0.711353 0 -0.00549688)
(0.429472 0 -0.00515815)
(0.424365 0 -0.00170477)
(0.0774026 0 -0.611674)
(0.0279402 0 -0.669608)
(0.131213 0 -0.520452)
(0.0796561 0 -0.590878)
(0.166333 0 -0.410701)
(0.0934177 0 -0.465367)
(0.190338 0 -0.320307)
(0.108864 0 -0.359522)
(0.207503 0 -0.251276)
(0.112027 0 -0.279313)
(0.219828 0 -0.199284)
(0.112241 0 -0.218914)
(0.228504 0 -0.160334)
(0.109333 0 -0.173675)
(0.23445 0 -0.131073)
(0.104432 0 -0.139945)
(0.238096 0 -0.109063)
(0.0977796 0 -0.114535)
(0.239842 0 -0.092571)
(0.0897747 0 -0.0954817)
(0.240012 0 -0.080298)
(0.080753 0 -0.081276)
(0.238875 0 -0.0712555)
(0.0709633 0 -0.0707849)
(0.236665 0 -0.0646686)
(0.0606212 0 -0.0631359)
(0.233602 0 -0.0599091)
(0.0499235 0 -0.0576423)
(0.22992 0 -0.0564378)
(0.039058 0 -0.0537448)
(0.225888 0 -0.0537477)
(0.0282363 0 -0.0509441)
(0.221792 0 -0.0513234)
(0.0177194 0 -0.0487318)
(0.217875 0 -0.0486533)
(0.00779244 0 -0.0465604)
(0.21426 0 -0.0453178)
(-0.00132635 0 -0.0438991)
(0.210877 0 -0.0411261)
(-0.00957347 0 -0.0403677)
(0.207417 0 -0.0362231)
(-0.0171462 0 -0.0358806)
(0.203403 0 -0.0310492)
(-0.0244917 0 -0.0307316)
(0.198322 0 -0.0261104)
(-0.0323019 0 -0.0254673)
(0.191835 0 -0.0217021)
(-0.0410883 0 -0.0205818)
(0.18389 0 -0.0177394)
(-0.0510682 0 -0.0162515)
(0.174837 0 -0.0139116)
(-0.0623428 0 -0.0123211)
(0.165103 0 -0.00960775)
(-0.0741156 0 -0.00838755)
(0.153639 0 -0.00449105)
(-0.0868498 0 -0.00350034)
(0.140861 0 -0.000503213)
(-0.0984073 0 0.00125076)
(-0.110082 0 0.00235618)
(0.0372662 0 -0.655609)
(0.00415361 0 -0.706108)
(0.0466788 0 -0.542329)
(0.0153437 0 -0.59988)
(0.0418762 0 -0.419241)
(-0.0171203 0 -0.460883)
(0.0316394 0 -0.321809)
(-0.0386038 0 -0.35019)
(0.0175709 0 -0.248438)
(-0.0695848 0 -0.26679)
(0.00175517 0 -0.193495)
(-0.100024 0 -0.205169)
(-0.0152687 0 -0.152708)
(-0.130409 0 -0.159229)
(-0.0331608 0 -0.122455)
(-0.159998 0 -0.125121)
(-0.051653 0 -0.0997664)
(-0.188878 0 -0.0995752)
(-0.0704602 0 -0.0828503)
(-0.216729 0 -0.0806265)
(-0.0893664 0 -0.0703339)
(-0.243345 0 -0.0666953)
(-0.108201 0 -0.0611905)
(-0.268654 0 -0.0566028)
(-0.126809 0 -0.0546291)
(-0.292642 0 -0.0494551)
(-0.145038 0 -0.0500229)
(-0.315336 0 -0.0445561)
(-0.162718 0 -0.0468481)
(-0.336779 0 -0.0413536)
(-0.179639 0 -0.0446079)
(-0.356982 0 -0.0393643)
(-0.195588 0 -0.0427646)
(-0.375889 0 -0.038075)
(-0.210418 0 -0.0407421)
(-0.393415 0 -0.0368853)
(-0.224124 0 -0.0380352)
(-0.409539 0 -0.0351687)
(-0.236861 0 -0.0343735)
(-0.424395 0 -0.032446)
(-0.248918 0 -0.0298467)
(-0.438291 0 -0.0285588)
(-0.260637 0 -0.0248756)
(-0.451665 0 -0.0237829)
(-0.272354 0 -0.0199625)
(-0.464979 0 -0.0186845)
(-0.284407 0 -0.0153968)
(-0.478576 0 -0.0137691)
(-0.297005 0 -0.0110126)
(-0.492684 0 -0.00929883)
(-0.310801 0 -0.00637141)
(-0.507409 0 -0.00488688)
(-0.326437 0 -0.00152127)
(-0.521412 0 -0.000161038)
(-0.340863 0 0.00249375)
(-0.534715 0 0.00391036)
(-0.350226 0 0.00404917)
(-0.544781 0 0.00594668)
(-0.551395 0 0.00558688)
(-0.0103873 0 -0.654632)
(-0.0245513 0 -0.695935)
(-0.0462666 0 -0.520666)
(-0.0581931 0 -0.565568)
(-0.0911382 0 -0.390268)
(-0.136224 0 -0.418985)
(-0.138433 0 -0.291321)
(-0.196973 0 -0.307073)
(-0.185959 0 -0.218696)
(-0.262011 0 -0.224486)
(-0.231857 0 -0.165771)
(-0.323215 0 -0.165277)
(-0.275279 0 -0.12667)
(-0.379794 0 -0.122383)
(-0.316344 0 -0.0976995)
(-0.431317 0 -0.091097)
(-0.354772 0 -0.0764571)
(-0.478081 0 -0.0684879)
(-0.390449 0 -0.0610927)
(-0.520426 0 -0.0524463)
(-0.423389 0 -0.050155)
(-0.558694 0 -0.0412917)
(-0.453706 0 -0.0425633)
(-0.593308 0 -0.0337739)
(-0.481592 0 -0.0374995)
(-0.624696 0 -0.028953)
(-0.507282 0 -0.0343306)
(-0.653294 0 -0.026115)
(-0.531 0 -0.0325428)
(-0.679516 0 -0.0247293)
(-0.552914 0 -0.0316532)
(-0.703692 0 -0.0243675)
(-0.573125 0 -0.0311175)
(-0.726013 0 -0.0245709)
(-0.591745 0 -0.0303148)
(-0.74658 0 -0.0247378)
(-0.608989 0 -0.0286661)
(-0.765535 0 -0.0241841)
(-0.625194 0 -0.0258149)
(-0.783163 0 -0.0223673)
(-0.640777 0 -0.0217754)
(-0.799908 0 -0.0190964)
(-0.656124 0 -0.016943)
(-0.816249 0 -0.0146835)
(-0.67145 0 -0.0118486)
(-0.832553 0 -0.00981193)
(-0.687005 0 -0.00692384)
(-0.848983 0 -0.00497691)
(-0.702862 0 -0.00242682)
(-0.864486 0 -0.000547435)
(-0.717719 0 0.00161208)
(-0.878738 0 0.00311869)
(-0.729724 0 0.0050119)
(-0.891102 0 0.00615523)
(-0.739101 0 0.00709404)
(-0.900952 0 0.0087272)
(-0.746957 0 0.00734376)
(-0.909432 0 0.00988671)
(-0.914265 0 0.00914271)
(-0.0608439 0 -0.604856)
(-0.0606864 0 -0.636342)
(-0.146835 0 -0.458276)
(-0.142613 0 -0.483334)
(-0.233737 0 -0.328424)
(-0.268583 0 -0.337844)
(-0.318314 0 -0.232409)
(-0.369848 0 -0.229966)
(-0.397896 0 -0.164036)
(-0.466818 0 -0.153648)
(-0.470714 0 -0.116381)
(-0.555261 0 -0.101991)
(-0.535747 0 -0.0827958)
(-0.634412 0 -0.0671961)
(-0.593327 0 -0.0588613)
(-0.703529 0 -0.0433901)
(-0.644132 0 -0.0420553)
(-0.761923 0 -0.0273878)
(-0.68904 0 -0.0306501)
(-0.811741 0 -0.016975)
(-0.728912 0 -0.0232452)
(-0.854629 0 -0.0105414)
(-0.76451 0 -0.0187768)
(-0.89202 0 -0.00696884)
(-0.796506 0 -0.0164284)
(-0.925062 0 -0.005429)
(-0.825514 0 -0.0155797)
(-0.954707 0 -0.00529193)
(-0.852057 0 -0.0157736)
(-0.981747 0 -0.00612566)
(-0.87651 0 -0.0166164)
(-1.00676 0 -0.00763324)
(-0.899072 0 -0.0176263)
(-1.03006 0 -0.00949512)
(-0.919884 0 -0.0181693)
(-1.05178 0 -0.0111601)
(-0.9392 0 -0.0175853)
(-1.07203 0 -0.0118803)
(-0.957425 0 -0.0154321)
(-1.09102 0 -0.0110322)
(-0.975057 0 -0.0117336)
(-1.10922 0 -0.00838958)
(-0.992565 0 -0.00707584)
(-1.12693 0 -0.00430299)
(-1.01005 0 -0.00236048)
(-1.14395 0 0.000307824)
(-1.02642 0 0.00171967)
(-1.15999 0 0.00428009)
(-1.04031 0 0.00500585)
(-1.17435 0 0.00711814)
(-1.05191 0 0.00773647)
(-1.1865 0 0.00936756)
(-1.06204 0 0.010072)
(-1.1972 0 0.0114874)
(-1.07086 0 0.0115116)
(-1.20678 0 0.0132573)
(-1.07867 0 0.0115085)
(-1.21471 0 0.0138037)
(-1.21882 0 0.0130477)