/*--------------------------------*- C++ -*----------------------------------*\
  =========                 |
  \\      /  F ield         | OpenFOAM: The Open Source CFD Toolbox
   \\    /   O peration     | Website:  https://openfoam.org
    \\  /    A nd           | Version:  dev
     \\/     M anipulation  |
\*---------------------------------------------------------------------------*/
FoamFile
{
    version     2.0;
    format      ascii;
    class       volScalarField;
    location    "2";
    object      p;
}
// * * * * * * * * * * * * * * * * * * * * * * * * * * * * * * * * * * * * * //

dimensions      [0 2 -2 0 0 0 0];

internalField   nonuniform List<scalar> 
2790
(
148.535
148.442
148.71
149.281
150.061
151.019
152.151
153.458
154.935
156.576
158.375
160.326
162.42
164.645
166.985
169.42
171.924
174.462
176.994
179.467
181.824
184.001
185.93
187.55
188.808
189.682
190.117
190.172
190.223
190.436
148.332
148.35
148.642
149.21
149.987
150.941
152.069
153.37
154.84
156.472
158.262
160.203
162.286
164.5
166.829
169.254
171.75
174.282
176.812
179.289
181.656
183.85
185.804
187.451
188.735
189.608
190.005
190.059
190.192
190.476
148.133
148.221
148.532
149.09
149.854
150.795
151.909
153.191
154.639
156.247
158.01
159.919
161.967
164.142
166.43
168.812
171.264
173.754
176.245
178.691
181.04
183.232
185.203
186.892
188.242
189.217
189.809
190.164
190.479
190.778
147.908
148.027
148.351
148.9
149.649
150.574
151.668
152.926
154.345
155.92
157.644
159.509
161.508
163.628
165.856
168.174
170.558
172.98
175.407
177.797
180.103
182.273
184.254
185.993
187.446
188.597
189.465
190.135
190.687
191.206
147.648
147.78
148.112
148.654
149.387
150.291
151.358
152.586
153.968
155.499
157.174
158.983
160.919
162.969
165.121
167.356
169.654
171.988
174.329
176.641
178.886
181.02
183.001
184.79
186.36
187.701
188.831
189.793
190.603
191.35
147.347
147.485
147.82
148.351
149.064
149.942
150.978
152.168
153.505
154.985
156.6
158.343
160.204
162.172
164.233
166.37
168.565
170.794
173.03
175.244
177.406
179.483
181.443
183.263
184.925
186.426
187.771
188.976
189.996
190.913
147.004
147.143
147.475
147.994
148.683
149.531
150.531
151.676
152.962
154.382
155.93
157.596
159.371
161.243
163.2
165.226
167.301
169.407
171.519
173.614
175.668
177.658
179.565
181.374
183.079
184.679
186.172
187.55
188.714
189.76
146.619
146.756
147.081
147.583
148.247
149.061
150.019
151.115
152.343
153.696
155.166
156.746
158.425
160.191
162.031
163.93
165.87
167.834
169.801
171.752
173.669
175.536
177.342
179.083
180.76
182.378
183.932
185.403
186.652
187.803
146.193
146.326
146.64
147.123
147.758
148.534
149.446
150.486
151.65
152.929
154.316
155.8
157.373
159.021
160.732
162.49
164.28
166.083
167.881
169.66
171.402
173.099
174.746
176.345
177.906
179.44
180.947
182.417
183.687
184.925
145.726
145.854
146.155
146.616
147.218
147.953
148.815
149.796
150.89
152.089
153.384
154.766
156.223
157.743
159.313
160.916
162.538
164.16
165.765
167.339
168.866
170.34
171.757
173.124
174.455
175.773
177.092
178.428
179.628
180.932
145.221
145.343
145.628
146.064
146.632
147.323
148.13
149.047
150.066
151.18
152.377
153.649
154.982
156.365
157.783
159.219
160.656
162.077
163.464
164.798
166.065
167.255
168.361
169.388
170.351
171.278
172.207
173.204
174.165
175.483
144.678
144.793
145.061
145.47
146.001
146.645
147.395
148.245
149.185
150.208
151.302
152.457
153.661
154.898
156.154
157.41
158.649
159.85
160.992
162.054
163.015
163.857
164.564
165.129
165.554
165.863
166.104
166.41
166.79
167.962
144.101
144.208
144.458
144.838
145.33
145.925
146.615
147.393
148.252
149.18
150.166
151.2
152.267
153.352
154.437
155.504
156.532
157.496
158.371
159.13
159.743
160.177
160.399
160.374
160.069
159.47
158.594
157.599
156.647
157.15
143.492
143.59
143.821
144.17
144.622
145.165
145.793
146.498
147.271
148.102
148.978
149.886
150.812
151.739
152.648
153.518
154.324
155.038
155.63
156.062
156.292
156.27
155.931
155.199
153.976
152.146
149.581
146.276
142.321
140.278
142.853
142.942
143.152
143.47
143.879
144.37
144.934
145.564
146.25
146.98
147.743
148.523
149.306
150.071
150.8
151.467
152.046
152.502
152.8
152.891
152.718
152.209
151.265
149.751
147.473
144.142
139.297
132.277
121.802
109.552
3.75263
3.69994
3.53719
3.30871
3.05612
2.7981
2.54166
2.29094
2.04947
1.82059
1.60814
1.41679
1.25073
1.11192
1.00091
0.920911
0.875964
0.862709
0.873188
0.903381
0.948565
0.996722
1.03334
1.04623
1.0275
0.97248
0.875596
0.726655
0.512747
0.222643
3.62156
3.5613
3.4114
3.2023
2.96742
2.72373
2.47898
2.23788
2.00411
1.78115
1.5732
1.3857
1.22342
1.08826
0.980018
0.902423
0.857942
0.841897
0.856448
0.894039
0.946423
1.00097
1.04242
1.05833
1.04019
0.984051
0.886632
0.739113
0.525123
0.227044
3.50095
3.4322
3.28992
3.09594
2.87709
2.64713
2.41387
2.18241
1.95632
1.73903
1.53493
1.35083
1.19246
1.05989
0.946339
0.869716
0.842388
0.843602
0.859299
0.895316
0.94886
1.00479
1.0478
1.06581
1.05101
0.997988
0.89779
0.74324
0.522393
0.219752
3.40953
3.33174
3.19345
3.00943
2.80271
2.58382
2.36041
2.13784
1.91914
1.70759
1.50616
1.32227
1.16761
1.05036
0.960591
0.878066
0.827548
0.827488
0.854124
0.89617
0.952101
1.00813
1.05013
1.06684
1.05079
0.995987
0.89169
0.731278
0.505606
0.202295
3.38137
3.29459
3.15905
2.98019
2.7801
2.56728
2.34948
2.13266
1.91938
1.7149
1.52211
1.34609
1.19233
1.06404
0.96455
0.894977
0.853396
0.846201
0.866475
0.904913
0.954945
1.00452
1.04085
1.05335
1.03415
0.97476
0.865666
0.702389
0.47663
0.178451
3.43565
3.33796
3.19947
3.01865
2.81691
2.60315
2.385
2.16801
1.9562
1.75331
1.56358
1.39005
1.23536
1.10335
0.999742
0.925982
0.882003
0.868124
0.879593
0.909322
0.949595
0.989638
1.01792
1.02438
1.00016
0.934411
0.821883
0.658835
0.437831
0.156218
3.57008
3.45785
3.30588
3.1132
2.90023
2.67742
2.45241
2.23038
2.0155
1.81011
1.61593
1.43806
1.28158
1.1483
1.041
0.96141
0.910307
0.886937
0.887372
0.905608
0.934072
0.963041
0.982064
0.981389
0.95146
0.881769
0.767799
0.606139
0.392641
0.135464
3.75404
3.61783
3.4422
3.22843
2.99706
2.76028
2.52565
2.2966
2.075
1.86461
1.66861
1.48937
1.32984
1.19262
1.07989
0.993102
0.932933
0.898506
0.886633
0.892147
0.908093
0.925746
0.935561
0.927944
0.893041
0.821475
0.708274
0.549171
0.345147
0.116162
3.93131
3.76311
3.5594
3.32453
3.07925
2.82991
2.58494
2.34947
2.12531
1.91314
1.71515
1.5337
1.37099
1.22922
1.11031
1.01564
0.945748
0.899907
0.875578
0.868408
0.872256
0.879364
0.880964
0.86764
0.829293
0.758277
0.647703
0.492111
0.298635
0.0982624
4.05111
3.86607
3.64132
3.3895
3.12976
2.87347
2.62442
2.38554
2.15919
1.94624
1.7477
1.56495
1.39964
1.25362
1.12868
1.02619
0.946746
0.889911
0.853786
0.834839
0.827812
0.825847
0.820838
0.803636
0.764683
0.696414
0.589779
0.438296
0.255334
0.0819044
4.11727
3.91233
3.67083
3.40458
3.13532
2.875
2.62678
2.39105
2.16809
1.95826
1.76193
1.57981
1.41316
1.26376
1.13347
1.02377
0.935493
0.868585
0.821834
0.792562
0.776402
0.767311
0.757768
0.739035
0.702278
0.638984
0.537481
0.390304
0.21672
0.0673346
4.08162
3.8446
3.59138
3.32635
3.06718
2.81995
2.58544
2.36208
2.14925
1.94741
1.75683
1.57775
1.4113
1.25957
1.12482
1.00884
0.91273
0.836937
0.781006
0.743164
0.719915
0.705938
0.694243
0.6766
0.644617
0.588364
0.49321
0.350198
0.183926
0.0548309
3.85119
3.59599
3.36697
3.14023
2.91934
2.70658
2.50171
2.30119
2.10502
1.91581
1.73449
1.56077
1.39581
1.24258
1.10422
0.982926
0.880075
0.796637
0.733029
0.688466
0.660309
0.643832
0.632503
0.618596
0.593765
0.54646
0.458914
0.319732
0.157996
0.0447102
3.35132
3.0943
2.96737
2.84707
2.70133
2.54528
2.3865
2.21811
2.04248
1.86882
1.69969
1.53312
1.37012
1.21558
1.07414
0.948415
0.839813
0.749815
0.679891
0.630382
0.599478
0.582898
0.574415
0.566727
0.55123
0.51473
0.436214
0.300609
0.140143
0.03736
2.44054
2.20083
2.35876
2.48011
2.44458
2.3582
2.26034
2.12995
1.97199
1.81358
1.65905
1.50081
1.33875
1.18192
1.03752
0.908137
0.794573
0.698727
0.623469
0.570535
0.538924
0.524604
0.521387
0.522219
0.518152
0.494424
0.426703
0.294901
0.132128
0.0332031
142.173
142.254
142.443
142.727
143.092
143.528
144.026
144.578
145.174
145.801
146.447
147.096
147.73
148.331
148.874
149.334
149.678
149.871
149.866
149.607
149.022
148.015
146.453
144.142
140.783
135.88
128.511
116.758
94.5745
34.6391
141.446
141.517
141.683
141.933
142.252
142.631
143.06
143.532
144.034
144.555
145.08
145.593
146.075
146.506
146.86
147.108
147.215
147.14
146.831
146.223
145.232
143.745
141.603
138.575
134.303
128.205
119.247
105.699
86.2053
57.8449
140.676
140.737
140.88
141.094
141.366
141.685
142.044
142.433
142.84
143.252
143.654
144.029
144.358
144.618
144.782
144.818
144.69
144.352
143.748
142.808
141.441
139.525
136.898
133.329
128.494
121.94
113.082
101.289
87.1297
70.6654
139.865
139.916
140.035
140.212
140.436
140.695
140.982
141.286
141.597
141.899
142.178
142.415
142.591
142.681
142.657
142.487
142.131
141.543
140.663
139.42
137.723
135.454
132.463
128.554
123.481
116.953
108.68
98.3345
85.8639
70.8393
139.015
139.056
139.15
139.29
139.464
139.663
139.877
140.097
140.31
140.503
140.659
140.76
140.785
140.709
140.504
140.136
139.565
138.744
137.615
136.108
134.138
131.599
128.362
124.272
119.149
112.798
105.019
95.5748
84.3009
71.4067
138.128
138.158
138.228
138.33
138.454
138.592
138.734
138.87
138.987
139.071
139.106
139.074
138.953
138.718
138.34
137.786
137.017
135.987
134.641
132.914
130.729
127.997
124.613
120.457
115.402
109.314
102.072
93.5791
83.8288
73.2348
137.206
137.226
137.271
137.336
137.411
137.488
137.558
137.61
137.633
137.611
137.529
137.368
137.107
136.721
136.182
135.457
134.51
133.297
131.768
129.865
127.523
124.668
121.218
117.087
112.188
106.444
99.801
92.2499
83.8354
74.8924
136.254
136.263
136.284
136.311
136.337
136.354
136.354
136.325
136.255
136.131
135.937
135.653
135.26
134.734
134.047
133.169
132.065
130.697
129.02
126.984
124.536
121.617
118.167
114.127
109.444
104.08
98.02
91.2862
83.9285
76.2176
135.273
135.273
135.269
135.26
135.238
135.197
135.128
135.02
134.862
134.64
134.339
133.94
133.425
132.769
131.949
130.937
129.7
128.204
126.412
124.282
121.772
118.838
115.438
111.534
107.097
102.113
96.5887
90.558
84.0747
77.3649
134.27
134.259
134.232
134.187
134.119
134.021
133.886
133.703
133.461
133.146
132.745
132.24
131.612
130.841
129.904
128.775
127.427
125.831
123.955
121.765
119.231
116.32
113.005
109.263
105.083
100.465
95.427
90.0087
84.2626
78.3727
133.247
133.227
133.177
133.098
132.985
132.833
132.635
132.381
132.059
131.658
131.164
130.562
129.833
128.96
127.922
126.696
125.259
123.586
121.653
119.434
116.905
114.046
110.839
107.273
103.349
99.075
94.4749
89.5878
84.4615
79.2434
132.211
132.181
132.11
131.997
131.842
131.639
131.382
131.06
130.665
130.185
129.606
128.916
128.098
127.136
126.012
124.707
123.201
121.475
119.508
117.283
114.784
111.996
108.911
105.527
101.85
97.8937
93.6835
89.2554
84.6511
79.9892
131.165
131.127
131.035
130.892
130.697
130.446
130.133
129.749
129.286
128.733
128.079
127.311
126.416
125.378
124.183
122.816
121.259
119.498
117.519
115.307
112.853
110.15
107.195
103.991
100.547
96.881
93.016
88.9846
84.8226
80.6256
130.117
130.071
129.96
129.787
129.555
129.259
128.895
128.455
127.93
127.312
126.591
125.755
124.793
123.693
122.442
121.027
119.435
117.656
115.68
113.496
111.101
108.49
105.667
102.636
99.4101
96.0055
92.4451
88.757
84.9714
81.1657
129.073
129.018
128.889
128.69
128.423
128.087
127.676
127.184
126.605
125.929
125.149
124.255
123.238
122.087
120.791
119.342
117.73
115.947
113.986
111.841
109.512
106.998
104.304
101.438
98.4118
95.2425
91.9504
88.5597
85.0956
81.6215
128.037
127.976
127.831
127.607
127.308
126.935
126.482
125.944
125.316
124.59
123.76
122.817
121.754
120.563
119.235
117.764
116.143
114.366
112.43
110.332
108.074
105.657
103.087
100.375
97.5315
94.5726
91.5164
88.3836
85.1955
82.0037
127.018
126.95
126.791
126.544
126.217
125.811
125.321
124.742
124.072
123.303
122.43
121.447
120.348
119.126
117.776
116.293
114.672
112.91
111.006
108.96
106.773
104.451
102
99.43
96.752
93.9806
91.1316
88.2228
85.272
82.3218
126.023
125.949
125.776
125.509
125.157
124.721
124.198
123.585
122.878
122.072
121.164
120.149
119.022
117.778
116.415
114.927
113.314
111.574
109.706
107.714
105.599
103.368
101.028
98.5884
96.0596
93.4546
90.7874
88.0733
85.3273
82.5845
125.058
124.979
124.794
124.509
124.135
123.673
123.122
122.478
121.74
120.904
119.968
118.927
117.78
116.522
115.151
113.667
112.067
110.352
108.525
106.586
104.542
102.397
100.16
97.8384
95.4432
92.9855
90.4778
87.9329
85.3638
82.7993
124.13
124.047
123.851
123.552
123.158
122.674
122.098
121.429
120.665
119.805
118.846
117.786
116.624
115.358
113.987
112.51
110.927
109.242
107.455
105.57
103.592
101.528
99.3848
97.1703
94.8942
92.5665
90.1982
87.8004
85.384
82.9731
123.248
123.161
122.956
122.643
122.233
121.73
121.134
120.443
119.659
118.779
117.803
116.729
115.558
114.288
112.92
111.455
109.893
108.237
106.491
104.658
102.743
100.753
98.695
96.5763
94.4058
92.1924
89.9457
87.6753
85.3907
83.112
122.42
122.329
122.116
121.792
121.367
120.848
120.235
119.527
118.726
117.831
116.842
115.76
114.583
113.314
111.953
110.501
108.961
107.336
105.629
103.844
101.988
100.066
98.084
96.0506
93.9731
91.8596
89.7185
87.5582
85.3871
83.2219
121.652
121.559
121.339
121.005
120.568
120.035
119.408
118.687
117.873
116.966
115.969
114.88
113.703
112.437
111.084
109.648
108.13
106.534
104.864
103.125
101.322
99.4601
97.5467
95.5884
93.5921
91.5652
89.5153
87.4497
85.3757
83.3074
120.955
120.858
120.633
120.289
119.843
119.299
118.661
117.929
117.104
116.19
115.186
114.095
112.918
111.658
110.316
108.895
107.399
105.831
104.195
102.497
100.741
98.9337
97.0801
95.187
93.261
91.3086
89.3367
87.3518
85.3605
83.3744
120.335
120.236
120.005
119.654
119.198
118.646
117.998
117.258
116.426
115.506
114.498
113.407
112.233
110.978
109.647
108.242
106.766
105.224
103.619
101.957
100.243
98.4824
96.6803
94.8432
92.9769
91.0876
89.1815
87.2644
85.3422
83.4248
119.802
119.701
119.464
119.106
118.643
118.083
117.429
116.682
115.845
114.921
113.912
112.821
111.651
110.403
109.083
107.692
106.234
104.715
103.138
101.507
99.8287
98.1075
96.3489
94.5586
92.7423
90.9055
89.054
87.193
85.3281
83.4676
119.367
119.262
119.018
118.652
118.182
117.616
116.956
116.205
115.364
114.437
113.428
112.339
111.172
109.931
108.62
107.242
105.801
104.301
102.746
101.142
99.4927
97.8039
96.0806
94.3282
92.5519
90.7571
88.9489
87.1324
85.3125
83.4962
119.041
118.93
118.676
118.304
117.83
117.259
116.595
115.84
114.996
114.069
113.059
111.972
110.809
109.574
108.271
106.903
105.475
103.99
102.454
100.871
99.2447
97.5814
95.8857
94.1628
92.4177
90.6554
88.881
87.0991
85.3146
83.5335
118.839
118.704
118.433
118.055
117.578
117.005
116.339
115.581
114.737
113.809
112.801
111.715
110.556
109.325
108.028
106.668
105.25
103.776
102.252
100.683
99.0729
97.4268
95.7496
94.0463
92.3217
90.5808
88.8283
87.0687
85.3065
83.5466
118.82
118.621
118.323
117.938
117.458
116.882
116.212
115.453
114.608
113.68
112.673
111.589
110.432
109.205
107.913
106.559
105.146
103.681
102.165
100.606
99.0059
97.3709
95.7056
94.0147
92.3031
90.5755
88.8365
87.0906
85.3421
83.5954
-49.7241
-29.6395
-9.97866
37.6845
30.6012
19.2947
53.4194
41.5551
30.6306
54.7113
44.3985
36.4769
58.9618
50.7587
44.0856
63.2861
56.442
50.6083
66.4914
60.655
55.6434
69.0224
64.0284
59.7436
71.1534
66.8419
63.1484
72.9504
69.185
65.9667
74.4597
71.1371
68.3044
75.7301
72.7713
70.2538
76.8018
74.1445
71.887
77.7063
75.3015
73.2606
78.4697
76.2779
74.4192
79.1134
77.1029
75.3984
79.6552
77.7997
76.2268
80.1099
78.3878
76.9275
80.4901
78.883
77.5193
80.8067
79.2989
78.0183
81.0688
79.6467
78.4376
81.2847
79.9366
78.7887
81.461
80.1762
79.0808
81.6055
80.3747
79.3235
81.7205
80.535
79.521
81.8176
80.6695
79.6857
81.8878
80.7697
79.8107
81.96
80.8646
79.923
81.9934
80.9144
79.9869
82.0632
80.9983
80.0773
-0.299841
-0.0743559
1.28094
2.16282
2.23234
2.17157
2.14429
2.05875
1.90304
1.75604
1.62009
1.47152
1.30664
1.14473
0.997092
0.864867
0.746789
0.645066
0.564783
0.50961
0.479288
0.469647
0.474084
0.485513
0.495056
0.486371
0.431856
0.305034
0.135966
0.0325338
5.78826
2.51045
3.04816
2.78495
1.9937
1.80133
2.03172
2.06851
1.85445
1.70123
1.5909
1.45582
1.27857
1.10641
0.955707
0.822229
0.699761
0.590928
0.504862
0.448096
0.420756
0.417924
0.432329
0.456538
0.482247
0.491682
0.453888
0.334498
0.154751
0.0359506
16.5414
8.05243
5.02746
3.17025
2.51298
2.52333
2.64265
2.20531
1.68719
1.5614
1.56678
1.47919
1.26441
1.07142
0.91817
0.786524
0.659507
0.540594
0.446614
0.388364
0.365738
0.37224
0.399668
0.439441
0.482905
0.513891
0.496293
0.38913
0.197661
0.0462532
25.8743
16.0943
10.3176
6.66786
4.61252
3.49242
2.80685
2.27205
1.993
1.89659
1.83692
1.56387
1.20703
0.994147
0.869049
0.762039
0.634725
0.500712
0.395495
0.336371
0.321013
0.338529
0.379503
0.435475
0.498103
0.551479
0.559352
0.475683
0.278075
0.0677234
34.8492
25.1762
17.9044
12.596
8.87034
6.31249
4.58322
3.44328
2.71875
2.23928
1.91323
1.61172
1.35259
1.14919
0.986973
0.822768
0.638055
0.461542
0.340491
0.288458
0.289091
0.321112
0.377618
0.454828
0.543945
0.624152
0.654297
0.591005
0.398416
0.101796
42.676
33.8047
25.9485
19.5249
14.5802
10.8772
8.14234
6.13403
4.65648
3.57429
2.7925
2.20586
1.74854
1.38398
1.10318
0.878853
0.683147
0.513311
0.393124
0.335912
0.325912
0.348827
0.406313
0.500155
0.614179
0.716394
0.766836
0.731777
0.559639
0.156242
49.0496
41.2785
33.5317
26.6557
21.0132
16.4966
12.9054
10.0665
7.84027
6.11347
4.78154
3.73961
2.90846
2.24678
1.73109
1.32806
1.00309
0.741695
0.552141
0.442614
0.405547
0.429731
0.508236
0.629736
0.765875
0.879094
0.931596
0.881482
0.677822
0.180953
54.2409
47.5286
40.2891
33.4649
27.5646
22.5776
18.3832
14.8872
12.0085
9.66195
7.758
6.2092
4.94488
3.91705
3.08823
2.42011
1.87835
1.44446
1.11606
0.892898
0.765971
0.721991
0.749354
0.833864
0.949868
1.05919
1.11237
1.04507
0.78327
0.11548
58.4771
52.6672
46.0893
39.6134
33.7777
28.6313
24.1121
20.1822
16.8085
13.9425
11.5238
9.48926
7.78182
6.35445
5.16713
4.18302
3.37036
2.70766
2.18375
1.79037
1.51555
1.34461
1.26281
1.25195
1.28377
1.31719
1.29811
1.15498
0.792357
-0.0788735
61.9338
56.8649
50.96
44.9665
39.3926
34.3142
29.7025
25.5528
21.8663
18.627
15.8031
13.3552
11.2431
9.42895
7.87866
6.56057
5.44658
4.51454
3.7487
3.13617
2.66291
2.31282
2.06787
1.9055
1.79419
1.69052
1.5373
1.25751
0.743636
-0.301963
64.7724
60.3064
55.0181
49.5364
44.3178
39.4438
34.9014
30.7022
26.8671
23.4026
20.299
17.5373
15.0935
12.9429
11.0603
9.4213
8.00301
6.78543
5.7521
4.88843
4.17924
3.60727
3.15232
2.78929
2.48494
2.19504
1.86146
1.40693
0.729405
-0.425026
67.1234
63.15
58.3998
53.4041
48.5656
43.9615
39.5846
35.4519
31.5931
28.0275
24.7601
21.7868
19.0975
16.6791
14.5163
12.5924
10.8906
9.39494
8.09072
6.96375
5.99889
5.17878
4.48269
3.88487
3.35217
2.84155
2.2978
1.65058
0.816368
-0.398838
69.0846
65.5175
61.2278
56.6701
52.1992
47.8847
43.7199
39.7219
35.9225
32.3468
29.0083
25.9123
23.059
20.4443
18.0612
15.9004
13.9512
12.2021
10.6414
9.25663
8.03404
6.95725
6.00637
5.15664
4.37673
3.62704
2.8585
2.01237
1.02721
-0.233965
70.7299
67.5014
63.6038
59.4314
55.2989
51.2677
47.3299
43.5001
39.8086
36.2823
32.9387
29.7888
26.8389
24.0914
21.5457
19.1984
17.044
15.0753
13.284
11.66
10.1917
8.86456
7.66047
6.55691
5.52574
4.53228
3.53533
2.48883
1.35084
0.0325428
72.1161
69.1721
65.6088
61.772
57.9433
54.1767
50.4625
46.812
43.2528
39.811
36.5054
33.3498
30.354
27.5247
24.8657
22.3779
20.0597
17.9079
15.9169
14.0797
12.3867
10.8257
9.38111
8.03322
6.75779
5.52567
4.30357
3.0568
1.75794
0.356255
73.2873
70.5841
67.3066
63.7612
60.2018
56.6762
53.1731
49.7004
46.2822
42.9428
39.701
36.5714
33.5655
30.6927
27.9593
25.3692
22.9241
20.6233
18.4643
16.4421
14.5495
12.7768
11.1109
9.53529
8.02959
6.56994
5.13001
3.68393
2.21362
0.696517
74.2785
71.78
68.7475
65.4551
62.133
58.8239
55.5153
52.2118
48.9343
45.7046
42.5405
39.4563
36.4645
33.5753
30.7969
28.1351
25.5935
23.1738
20.8754
18.6956
16.6293
14.6688
12.8036
11.0202
9.30166
7.62877
5.98059
4.33739
2.68595
1.02285
75.1179
72.7938
69.972
66.899
63.7852
60.6691
57.537
54.3909
51.2485
48.129
45.0487
42.0214
39.0591
36.1725
33.3706
30.6605
28.047
25.5335
23.121
20.8084
18.5925
16.4676
14.4253
12.4546
10.5419
8.67125
6.82575
4.98935
3.1505
1.31713
75.8281
73.6531
71.0127
68.13
65.1986
62.2533
59.2799
56.2779
53.262
50.2492
47.254
44.289
41.3657
38.4947
35.685
32.9443
30.2785
27.6918
25.1865
22.7629
20.4192
18.1514
15.953
13.8151
11.7264
9.67376
7.64272
5.61919
3.59127
1.57222
76.4283
74.3806
71.8963
69.1786
66.4064
63.6117
60.7796
57.9079
55.0086
52.0965
49.1843
46.2834
43.4043
40.5571
37.7508
34.993
32.2902
29.6472
27.0671
24.5512
22.099
19.7078
17.3725
15.086
12.8389
10.6197
8.41567
6.21337
3.99961
1.78884
76.934
74.995
72.645
70.07
67.4362
64.7734
62.0664
59.3113
56.518
53.699
50.8656
48.0278
45.1952
42.3768
39.5815
36.8166
34.0887
31.403
28.7631
26.1711
23.6273
21.13
18.6754
16.2577
13.8686
11.4981
9.13427
6.76375
4.37177
1.97158
77.3588
75.5124
73.2775
70.8255
68.3116
65.7637
63.1664
60.5146
57.8162
55.0821
52.3219
49.5443
46.7578
43.9709
41.1914
38.4266
35.6828
32.9654
30.2782
27.6239
25.0032
22.4153
19.8574
17.3244
14.8091
12.3023
9.79252
7.26619
4.70717
2.12624
77.7135
75.9455
73.8088
71.4623
69.0515
66.6028
64.1009
61.5397
58.9254
56.2672
53.5736
50.8519
48.1098
45.3547
42.5938
39.8339
37.0812
34.3407
31.6165
28.9115
26.2269
23.5623
20.9155
18.2821
15.6557
13.0274
10.3861
7.71791
5.00564
2.25714
78.0087
76.3067
74.2533
71.9962
69.6733
67.3095
64.8896
62.4067
59.8656
57.2744
54.6401
51.9692
49.2683
46.5439
43.8026
41.0507
38.294
35.5372
32.7845
30.0387
27.3014
24.5724
21.85
19.1303
16.4071
13.6721
10.9141
8.11908
5.2691
2.36868
78.2504
76.6032
74.6193
72.4374
70.1883
67.8959
65.5454
63.1291
60.6508
58.1173
55.5347
52.9086
50.2446
47.5487
44.8266
42.0842
39.3267
36.5588
33.7843
31.0061
28.2258
25.4436
22.6578
19.8648
17.0589
14.2318
11.3723
8.4662
5.49531
2.46085
78.4502
76.8476
74.9209
72.8008
70.6124
68.379
66.0859
63.725
61.2991
58.8141
56.2753
53.6876
51.0558
48.385
45.6807
42.9481
40.1919
37.4165
34.6257
31.8223
29.0077
26.1822
23.3443
20.4906
17.6155
14.7107
11.7651
8.76433
5.68989
2.53909
78.6047
77.0373
75.1558
73.0847
70.9446
68.7581
66.5109
64.1944
61.8106
59.3648
56.8616
54.3052
51.6999
49.0503
46.3613
43.6375
40.8835
38.1034
35.3006
32.4778
29.6365
26.7769
23.8976
20.9952
18.0642
15.0963
12.0804
9.0019
5.84241
2.59618
78.7361
77.1947
75.3476
73.3137
71.2102
69.0592
66.8467
64.564
62.2123
59.7965
57.3206
54.7884
52.2037
49.5707
46.8938
44.1774
41.4256
38.6425
35.8311
32.9941
30.1328
27.2475
24.3368
21.3972
18.4233
15.4067
12.3361
9.19683
5.97011
2.64555
78.8169
77.2919
75.4673
73.4587
71.3798
69.2527
67.0634
64.8032
62.4731
60.0774
57.6199
55.104
52.5332
49.9115
47.2429
44.5317
41.7817
38.9967
36.1798
33.3334
30.4589
27.5564
24.6245
21.6599
18.6568
15.6069
12.4987
9.3171
6.04323
2.66444
78.9066
77.3829
75.5708
73.5774
71.5124
69.398
67.2211
64.9729
62.6541
60.2687
57.8205
55.3127
52.7487
50.1322
47.4672
44.7577
42.0077
39.2207
36.3998
33.5474
30.6648
27.7523
24.8082
21.8293
18.8099
15.7415
12.6121
9.40587
6.10115
2.67265
)
;

boundaryField
{
    inlet
    {
        type            zeroGradient;
    }
    outlet
    {
        type            fixedValue;
        value           uniform 0;
    }
    flap
    {
        type            zeroGradient;
    }
    upperWall
    {
        type            zeroGradient;
    }
    lowerWall
    {
        type            zeroGradient;
    }
    frontAndBack
    {
        type            empty;
    }
}


// ************************************************************************* //
