/*--------------------------------*- C++ -*----------------------------------*\
  =========                 |
  \\      /  F ield         | OpenFOAM: The Open Source CFD Toolbox
   \\    /   O peration     | Website:  https://openfoam.org
    \\  /    A nd           | Version:  dev
     \\/     M anipulation  |
\*---------------------------------------------------------------------------*/
FoamFile
{
    version     2.0;
    format      ascii;
    class       surfaceScalarField;
    location    "2";
    object      phi;
}
// * * * * * * * * * * * * * * * * * * * * * * * * * * * * * * * * * * * * * //

dimensions      [0 3 -1 0 0 0 0];

internalField   nonuniform List<scalar> 
5457
(
0.198418
0.00158247
0.19648
0.00193755
0.194192
0.00228834
0.191508
0.00268392
0.188426
0.00308162
0.184949
0.00347726
0.18107
0.00387915
0.176775
0.00429467
0.172046
0.00472895
0.16686
0.00518602
0.161191
0.00566935
0.155009
0.00618191
0.148283
0.00672585
0.140981
0.00730221
0.13307
0.00791033
0.124523
0.0085472
0.115317
0.00920654
0.105439
0.00987769
0.0948945
0.0105444
0.0837109
0.0111837
0.0719463
0.0117645
0.0596984
0.012248
0.0471103
0.0125881
0.0343711
0.0127392
0.0216777
0.0126935
0.00903051
0.0126472
-0.00291484
0.0119454
-0.00846688
0.00555204
-0.00803737
-0.000429509
-0.00803737
0.199928
0.00165441
0.199175
0.00269017
0.197964
0.00349955
0.196331
0.00431745
0.19427
0.0051421
0.19178
0.00596786
0.188852
0.00680675
0.185474
0.00767223
0.181629
0.00857464
0.177293
0.00952227
0.172439
0.0105224
0.16704
0.0115812
0.161062
0.0127036
0.154473
0.0138921
0.147237
0.0151463
0.139323
0.0164612
0.130704
0.0178252
0.121363
0.0192184
0.111298
0.0206097
0.100528
0.0219537
0.0891035
0.0231889
0.0771163
0.0242352
0.064711
0.0249933
0.0521046
0.0253456
0.0396458
0.0251522
0.0280975
0.0241955
0.0185855
0.0214574
0.0087879
0.0153496
0.00117974
0.00717865
-0.00685763
0.19978
0.00187395
0.199086
0.0033842
0.197945
0.00464075
0.196408
0.00585442
0.194482
0.00706866
0.192162
0.00828741
0.189444
0.00952476
0.186318
0.0107984
0.182769
0.0121233
0.17878
0.0135119
0.174327
0.0149753
0.169385
0.0165231
0.163925
0.018163
0.157917
0.0199001
0.151328
0.0217354
0.144126
0.0236637
0.13628
0.0256713
0.127765
0.0277329
0.118568
0.0298069
0.10869
0.0318318
0.0981581
0.0337208
0.0870361
0.0353572
0.0754399
0.0365895
0.0635637
0.0372218
0.0517229
0.036993
0.0403885
0.0355298
0.0297306
0.0321153
0.0191605
0.0259197
0.00959227
0.0167469
0.00273464
0.199703
0.00217098
0.199007
0.0040797
0.197887
0.00576155
0.196375
0.00736568
0.194487
0.00895722
0.19222
0.0105539
0.189572
0.012173
0.186535
0.013835
0.1831
0.0155584
0.179253
0.0173592
0.174977
0.0192511
0.170254
0.0212465
0.165061
0.0233555
0.159376
0.0255851
0.153174
0.0279378
0.146428
0.0304095
0.139113
0.0329862
0.131205
0.0356406
0.122686
0.0383263
0.113545
0.0409728
0.103788
0.0434776
0.093446
0.0456995
0.0825853
0.0474502
0.0713233
0.0484839
0.0598322
0.0484841
0.0483091
0.0470529
0.0368041
0.0436203
0.0251827
0.0375411
0.0133324
0.0285972
0.0160671
0.199667
0.00250367
0.198964
0.00478316
0.197862
0.00686315
0.19638
0.00884774
0.194531
0.0108064
0.192316
0.0127691
0.189731
0.0147575
0.186772
0.0167943
0.18343
0.0189009
0.179693
0.0210957
0.175549
0.0233949
0.170983
0.0258125
0.165979
0.0283601
0.160518
0.0310461
0.154582
0.0338741
0.14815
0.0368406
0.141204
0.0399325
0.133722
0.0431224
0.125685
0.0463633
0.117076
0.049582
0.107883
0.0526708
0.0981043
0.055478
0.087755
0.0577995
0.0768698
0.0593691
0.0655008
0.0598531
0.053701
0.0588527
0.0414481
0.0558732
0.0285833
0.0504059
0.0148499
0.0423306
0.0309169
0.199653
0.00285098
0.198948
0.00548742
0.19787
0.00794139
0.196426
0.0102923
0.194625
0.0126069
0.192471
0.0149232
0.189961
0.0172678
0.187089
0.0196659
0.183849
0.022141
0.180231
0.0247138
0.176224
0.0274023
0.171814
0.0302221
0.166988
0.0331858
0.161732
0.0363029
0.156028
0.0395777
0.149861
0.0430078
0.143212
0.0465812
0.136062
0.050272
0.12839
0.0540356
0.120171
0.0578015
0.111377
0.0614647
0.101978
0.0648762
0.0919451
0.0678329
0.0812453
0.0700689
0.0698466
0.0712519
0.0577104
0.0709889
0.0447554
0.0688282
0.0308453
0.064316
0.0158711
0.0573048
0.046788
0.19965
0.00320103
0.198954
0.00618362
0.197904
0.00899133
0.196504
0.0116924
0.194761
0.0143497
0.192678
0.0170058
0.190254
0.0196921
0.187484
0.0224363
0.184361
0.0252639
0.180877
0.0281977
0.177022
0.0312573
0.172784
0.0344597
0.168151
0.0378189
0.163109
0.0413454
0.157642
0.0450448
0.151733
0.0489161
0.145365
0.0529492
0.138515
0.0571218
0.131157
0.0613939
0.123257
0.0657021
0.11477
0.0699509
0.105643
0.0740032
0.0958065
0.0776696
0.0851772
0.0806982
0.0736606
0.0827685
0.0611552
0.0834942
0.0475504
0.082433
0.0327553
0.0791111
0.0167811
0.0732789
0.0635692
0.199655
0.0035465
0.198974
0.00686396
0.197958
0.0100074
0.196609
0.0130416
0.194932
0.0160262
0.192931
0.019007
0.190604
0.0220189
0.187948
0.0250924
0.184957
0.0282548
0.181624
0.0315308
0.17794
0.0349417
0.173893
0.0385062
0.169473
0.0422396
0.164664
0.0461539
0.159452
0.0502567
0.153819
0.0545493
0.147743
0.0590251
0.141198
0.0636669
0.13415
0.0684423
0.126553
0.0732987
0.118348
0.0781555
0.109457
0.0828951
0.0997751
0.0873511
0.0891774
0.0912959
0.077517
0.0944289
0.064641
0.0963702
0.0504128
0.0966613
0.0347651
0.0947588
0.0177883
0.0902557
0.0813575
0.199664
0.00388245
0.199006
0.007522
0.198029
0.010984
0.196738
0.0143335
0.195135
0.0176288
0.193224
0.0209175
0.191006
0.0242376
0.188476
0.0276219
0.185631
0.0310998
0.182464
0.0346976
0.178968
0.0384384
0.175132
0.0423423
0.170944
0.0464267
0.166393
0.0507056
0.161461
0.0551889
0.156128
0.0598817
0.150371
0.0647823
0.144157
0.0698804
0.137446
0.0751541
0.130179
0.080565
0.122282
0.0860526
0.113652
0.0915252
0.104155
0.0968481
0.0936227
0.101828
0.0818556
0.106196
0.0686426
0.109583
0.0537974
0.111507
0.0372339
0.111322
0.0190822
0.108407
0.10044
0.199677
0.00420535
0.199047
0.00815249
0.198115
0.0119157
0.196886
0.0155622
0.195365
0.0191504
0.193553
0.0227288
0.191453
0.0263383
0.189061
0.0300137
0.186374
0.0337862
0.183388
0.0376837
0.180096
0.0417309
0.176488
0.0459499
0.172555
0.0503598
0.168284
0.0549772
0.163657
0.0598152
0.158656
0.0648832
0.153252
0.070186
0.14741
0.0757222
0.141082
0.0814822
0.134202
0.0874457
0.126678
0.0935764
0.118388
0.099815
0.109168
0.106068
0.0988062
0.11219
0.0870421
0.11796
0.0735825
0.123043
0.058144
0.126945
0.0405498
0.128917
0.0209007
0.128057
0.12134
0.199693
0.00451256
0.199094
0.00875113
0.198212
0.0127977
0.197052
0.0167224
0.195618
0.0205844
0.193913
0.0244335
0.191939
0.0283122
0.189695
0.0322576
0.187179
0.0363024
0.184387
0.040476
0.181313
0.0448046
0.177951
0.049312
0.174291
0.0540195
0.170322
0.0589462
0.166029
0.0641089
0.16139
0.0695221
0.156378
0.0751977
0.150956
0.0811444
0.145071
0.087367
0.138652
0.0938652
0.131597
0.100631
0.123769
0.107643
0.114977
0.11486
0.104967
0.122201
0.0934066
0.12952
0.0798898
0.13656
0.0639637
0.142871
0.0452338
0.147646
0.0236121
0.149678
0.144952
0.199711
0.00480201
0.199147
0.00931442
0.198319
0.0136257
0.197232
0.0178092
0.195892
0.0219252
0.1943
0.0260247
0.192461
0.0301517
0.190374
0.0343449
0.188038
0.0386385
0.18545
0.0430631
0.182609
0.0476463
0.179507
0.0524135
0.176139
0.057388
0.172493
0.0625917
0.168557
0.0680449
0.164312
0.0737673
0.159732
0.079778
0.15478
0.0860963
0.149405
0.092742
0.143534
0.0997357
0.137066
0.1071
0.129854
0.114855
0.121693
0.12302
0.112295
0.131598
0.101258
0.140557
0.088036
0.149782
0.0719196
0.158987
0.0520876
0.167478
0.0278886
0.173877
0.172841
0.19973
0.00507209
0.199205
0.00983948
0.198434
0.0143961
0.197425
0.0188185
0.196182
0.023168
0.19471
0.0274968
0.193012
0.0318502
0.191089
0.0362681
0.188941
0.0407858
0.186569
0.0454351
0.183971
0.0502447
0.181143
0.0552414
0.178081
0.0604501
0.174778
0.0658952
0.171222
0.0716002
0.1674
0.0775897
0.163288
0.0838895
0.158856
0.0905286
0.154058
0.0975404
0.148827
0.104966
0.14307
0.112856
0.13665
0.121276
0.129365
0.130306
0.120918
0.140045
0.110864
0.15061
0.0985323
0.162114
0.0828993
0.17462
0.0624419
0.187936
0.0351336
0.201186
0.207975
0.199751
0.00532153
0.199266
0.010324
0.198556
0.015106
0.197628
0.0197466
0.196487
0.0243086
0.195139
0.028845
0.193587
0.0334022
0.191834
0.0380209
0.189883
0.0427374
0.187734
0.0475841
0.185388
0.0525907
0.182844
0.0577849
0.180101
0.0631931
0.177155
0.0688412
0.174
0.0747557
0.170625
0.0809647
0.167015
0.0874995
0.163147
0.0943968
0.158986
0.101701
0.154481
0.109471
0.149558
0.117779
0.144106
0.126728
0.137958
0.136454
0.130855
0.147149
0.122382
0.159083
0.111847
0.17265
0.0980176
0.188449
0.0785526
0.207401
0.0486874
0.231051
0.256662
0.199772
0.00554939
0.19933
0.0107662
0.198683
0.0157529
0.197839
0.0205908
0.196804
0.0253438
0.195583
0.0300657
0.194182
0.0348035
0.192604
0.0395986
0.190853
0.0444878
0.188934
0.0495041
0.186847
0.0546774
0.184596
0.0600361
0.182181
0.0656074
0.179604
0.0714181
0.176864
0.0774965
0.173955
0.083873
0.170872
0.0905824
0.167603
0.0976662
0.164128
0.105176
0.160419
0.11318
0.156432
0.121766
0.152102
0.131058
0.147328
0.141227
0.141955
0.152522
0.135718
0.165319
0.128151
0.180217
0.118313
0.198287
0.103955
0.221759
0.0777546
0.257252
0.334417
0.00637961
-0.00637961
0.0121551
-0.00577546
0.0171225
-0.00496741
0.0214165
-0.00429403
0.0251707
-0.00375421
0.028481
-0.00331028
0.0314195
-0.00293852
0.0340399
-0.00262039
0.0363747
-0.00233477
0.0384336
-0.00205893
0.040214
-0.00178035
0.0417225
-0.00150851
0.0429802
-0.00125776
0.0439944
-0.00101416
0.044737
-0.000742552
0.0452052
-0.000468219
0.0454552
-0.000250035
0.045536
-8.07752e-05
0.0454691
6.68813e-05
0.0453265
0.000142588
0.0452426
8.39282e-05
0.0453051
-6.25401e-05
0.0455451
-0.000239978
0.0459361
-0.000390983
0.0464261
-0.000490065
0.0469945
-0.000568319
0.0476836
-0.000689148
0.0485935
-0.000909867
0.0498418
-0.00124834
-0.0016274
0.00506866
-0.0114483
0.0100186
-0.0107254
0.0143883
-0.00933715
0.0182064
-0.00811208
0.0215761
-0.00712388
0.0245779
-0.00631217
0.0272709
-0.00563152
0.0296988
-0.00504827
0.0318903
-0.00452624
0.0338526
-0.00402128
0.0355748
-0.00350247
0.0370538
-0.00298751
0.0383173
-0.0025213
0.0393997
-0.00209654
0.0402679
-0.00161083
0.0409266
-0.00112689
0.04142
-0.000743415
0.0415348
-0.000195624
0.0411604
0.000441304
0.0402039
0.00109912
0.0387535
0.00153429
0.0369541
0.00173689
0.035001
0.00171316
0.0331262
0.00148378
0.031574
0.00106212
0.0305615
0.000444208
0.0300803
-0.000208003
0.0302161
-0.00104566
0.0312025
-0.00223473
-0.00362987
0.00374829
-0.0151966
0.00736716
-0.0143443
0.0105526
-0.0125226
0.0133294
-0.0108889
0.0157547
-0.00954923
0.0178767
-0.00843418
0.0197347
-0.00748944
0.0213587
-0.00667232
0.0227742
-0.00594171
0.0239892
-0.0052363
0.0249787
-0.00449199
0.0257039
-0.00371269
0.026194
-0.00301134
0.0265652
-0.00246781
0.0266115
-0.00165709
0.0258086
-0.000324017
0.0239654
0.00109981
0.0216544
0.0021154
0.0192709
0.0028248
0.0169344
0.00343562
0.0146442
0.00382446
0.0124887
0.00389242
0.0105866
0.00361522
0.00907327
0.00299714
0.00807965
0.00205573
0.00769934
0.000824518
0.00813682
-0.000645479
0.00943515
-0.002344
0.0116399
-0.0044395
-0.00622729
0.00241062
-0.0176072
0.00454198
-0.0164756
0.00633282
-0.0143134
0.00784246
-0.0123985
0.00908769
-0.0107945
0.0100814
-0.00942793
0.010837
-0.00824497
0.0113599
-0.00719521
0.0116724
-0.00625431
0.0118032
-0.005367
0.0117403
-0.00442918
0.0113633
-0.00333564
0.0103433
-0.0019913
0.00834561
-0.000470166
0.00574606
0.000942464
0.00349293
0.00192911
0.00169424
0.0028985
-3.53025e-05
0.00384494
-0.00176865
0.00455815
-0.00337111
0.00503808
-0.0047656
0.00521895
-0.00588806
0.00501488
-0.00667181
0.00439897
-0.00706297
0.00338829
-0.00704439
0.00203715
-0.00663498
0.000415109
-0.00577808
-0.00150238
-0.00446857
-0.0036535
-0.0030912
-0.00581687
-0.0074246
0.000932725
-0.0185399
0.00147544
-0.0170184
0.00174735
-0.0145853
0.0018411
-0.0124923
0.00172191
-0.0106753
0.00139102
-0.00909705
0.000831168
-0.00768512
1.01469e-05
-0.00637419
-0.00112459
-0.00511957
-0.00261096
-0.00388064
-0.00442493
-0.00261521
-0.00650304
-0.00125753
-0.00861872
0.000124381
-0.0103889
0.00130005
-0.011809
0.00236249
-0.0132624
0.00338258
-0.0146724
0.0043085
-0.0159385
0.00511103
-0.0170584
0.00567806
-0.0179766
0.00595628
-0.0186433
0.00588564
-0.0190385
0.00541007
-0.0191565
0.00451689
-0.0190079
0.00323972
-0.0186256
0.00165491
-0.0180206
-0.000189888
-0.0172678
-0.00225525
-0.0164535
-0.00446779
-0.0157212
-0.00654912
-0.00817283
-0.000674969
-0.0178649
-0.0017649
-0.0159284
-0.0030453
-0.0133049
-0.00447673
-0.0110608
-0.00605913
-0.00909287
-0.00779261
-0.00736356
-0.00966492
-0.00581282
-0.0116509
-0.00438815
-0.0137121
-0.00305842
-0.015821
-0.0017717
-0.0179362
-0.000500031
-0.0198736
0.000679811
-0.0214941
0.00174489
-0.0229442
0.00275017
-0.0243036
0.00372192
-0.0255425
0.00462143
-0.0266375
0.00540353
-0.0275415
0.00601501
-0.0282414
0.00637801
-0.0287196
0.00643445
-0.0289669
0.00613298
-0.0289942
0.00543736
-0.0288251
0.00434775
-0.0284916
0.00290628
-0.0280156
0.0011789
-0.0274134
-0.000792158
-0.0267743
-0.00289431
-0.0262348
-0.00500726
-0.025808
-0.00697592
-0.00854107
-0.00232875
-0.0155362
-0.00503382
-0.0132233
-0.00779042
-0.0105483
-0.0105652
-0.00828604
-0.0133107
-0.00634739
-0.0159927
-0.00468155
-0.0185854
-0.00322014
-0.0210845
-0.00188906
-0.0234781
-0.000664839
-0.0256863
0.000436591
-0.0276101
0.00142369
-0.0292826
0.00235235
-0.0308049
0.00326715
-0.0321986
0.00414393
-0.0334388
0.00496208
-0.034504
0.00568668
-0.0353756
0.00627508
-0.0360353
0.00667474
-0.0364807
0.00682342
-0.0367139
0.00666764
-0.0367449
0.00616398
-0.036595
0.00528742
-0.0362927
0.00404547
-0.0358694
0.00248301
-0.0353531
0.000662544
-0.0348066
-0.00133858
-0.0343149
-0.00338602
-0.0339628
-0.00535936
-0.0337553
-0.00718345
-0.0086238
-0.00394107
-0.0115951
-0.00809094
-0.00907348
-0.0120791
-0.00656014
-0.0158499
-0.00451529
-0.0193668
-0.00283044
-0.0226118
-0.00143654
-0.0255888
-0.000243202
-0.0282431
0.000765221
-0.0305536
0.00164569
-0.0325768
0.00245977
-0.0344024
0.00324928
-0.0360695
0.00401946
-0.0375657
0.00476342
-0.0388845
0.00546266
-0.0400141
0.00609171
-0.0409439
0.00661651
-0.0416651
0.00699621
-0.042173
0.00718264
-0.0424726
0.00712301
-0.0425746
0.00676971
-0.0424964
0.00608577
-0.0422627
0.00505372
-0.0419043
0.00368708
-0.0414564
0.00203504
-0.0409613
0.000167493
-0.0404965
-0.00180337
-0.0401357
-0.00374682
-0.0399368
-0.00555832
-0.0399108
-0.00720942
-0.00848621
-0.00542006
-0.00617505
-0.0108725
-0.00362107
-0.0158532
-0.00157943
-0.0203364
-3.20207e-05
-0.0242307
0.00106386
-0.0276015
0.0019342
-0.0305029
0.00265825
-0.0330383
0.0033006
-0.0353089
0.00391633
-0.0373585
0.00450931
-0.0391996
0.00509042
-0.0408399
0.00565976
-0.042281
0.00620445
-0.0435213
0.00670297
-0.0445572
0.00712769
-0.0453858
0.00744506
-0.0460058
0.00761621
-0.0464202
0.00759701
-0.0466382
0.00734103
-0.0466745
0.00680605
-0.0465497
0.00596092
-0.0462906
0.00479463
-0.0459302
0.00332667
-0.0455073
0.00161214
-0.0450702
-0.000269537
-0.0446953
-0.00217831
-0.0444543
-0.00398781
-0.0443922
-0.00562045
-0.0445224
-0.00707924
-0.0081893
-0.0069826
0.000807543
-0.0133121
0.00270839
-0.0187305
0.00383906
-0.0233062
0.00454366
-0.0272241
0.00498176
-0.0306187
0.00532876
-0.0335868
0.00562642
-0.0362029
0.0059167
-0.0385111
0.00622449
-0.0405531
0.00655131
-0.0423562
0.00689349
-0.0439371
0.00724068
-0.0453057
0.00757307
-0.0464666
0.00786383
-0.0474214
0.00808249
-0.048172
0.00819565
-0.0487222
0.00816644
-0.0490795
0.00795428
-0.0492559
0.00751742
-0.0492682
0.00681844
-0.0491388
0.00583149
-0.0488954
0.00455119
-0.0485709
0.00300223
-0.0482043
0.00124553
-0.0478484
-0.00062542
-0.0475734
-0.00245338
-0.0474474
-0.00411374
-0.0475133
-0.0055546
-0.0477833
-0.0068092
-0.0077604
-0.00763285
0.0084404
-0.0144231
0.00949863
-0.0201749
0.00959091
-0.0250252
0.00939387
-0.0291341
0.00909072
-0.0326164
0.00881104
-0.0355971
0.00860709
-0.0381784
0.00849801
-0.0404289
0.00847497
-0.042396
0.00851847
-0.0441137
0.0086112
-0.0456061
0.00873306
-0.0468884
0.00885532
-0.0479683
0.00894372
-0.0488499
0.00896413
-0.0495378
0.00888351
-0.0500388
0.00866747
-0.0503633
0.00827877
-0.0505253
0.00767947
-0.0505433
0.00683637
-0.05044
0.00572828
-0.0502433
0.00435446
-0.0499845
0.0027434
-0.0497002
0.000961244
-0.0494452
-0.000880403
-0.04928
-0.00261856
-0.0492686
-0.00412514
-0.049458
-0.00536519
-0.0498607
-0.0064065
-0.00720206
-0.0081629
0.0166033
-0.0155166
0.0168524
-0.0215696
0.0156439
-0.0264889
0.0143131
-0.0305283
0.0131301
-0.033881
0.0121638
-0.0367042
0.0114302
-0.0391247
0.0109186
-0.0412251
0.0105754
-0.0430528
0.0103461
-0.0446416
0.0102
-0.0460193
0.0101107
-0.0472037
0.0100397
-0.0482021
0.00994212
-0.0490175
0.00977954
-0.0496548
0.00952078
-0.0501227
0.00913541
-0.0504336
0.00858972
-0.0506032
0.00784904
-0.0506508
0.00688393
-0.0505998
0.00567735
-0.0504775
0.00423213
-0.0503129
0.00257883
-0.0501388
0.000787061
-0.0500012
-0.001018
-0.0499541
-0.00266566
-0.0500588
-0.0040204
-0.0503706
-0.00505338
-0.0509066
-0.00587057
-0.00650611
-0.00922643
0.0258297
-0.0172099
0.0248359
-0.023282
0.0217159
-0.0278936
0.0189248
-0.0315541
0.0167906
-0.0345336
0.0151433
-0.0370088
0.0139055
-0.0391348
0.0130445
-0.0409984
0.012439
-0.0426286
0.0119763
-0.0440489
0.0116202
-0.0452893
0.0113512
-0.0463691
0.0111195
-0.0472902
0.0108632
-0.0480496
0.010539
-0.0486502
0.0101214
-0.049102
0.00958716
-0.0494188
0.00890654
-0.0496171
0.00804735
-0.0497169
0.00698371
-0.0497423
0.00570273
-0.0497203
0.0042101
-0.0496779
0.00253646
-0.0496412
0.000750323
-0.0496418
-0.00101738
-0.0497236
-0.00258387
-0.0499483
-0.00379569
-0.0503838
-0.00461785
-0.0510602
-0.00519418
-0.00565867
-0.0111744
0.0370041
-0.0200691
0.0337306
-0.0256832
0.02733
-0.0293761
0.0226177
-0.0322676
0.0196821
-0.0346194
0.0174951
-0.0365412
0.0158272
-0.0382331
0.0147364
-0.0397871
0.0139931
-0.041173
0.0133622
-0.042388
0.0128352
-0.0434713
0.0124345
-0.044447
0.0120952
-0.0453036
0.0117199
-0.0460248
0.0112601
-0.0466088
0.0107054
-0.0470669
0.0100452
-0.047414
0.00925373
-0.0476659
0.00829923
-0.0478418
0.0071596
-0.0479668
0.00582767
-0.0480691
0.00431245
-0.0481757
0.0026431
-0.0483061
0.000880727
-0.0484729
-0.000850599
-0.0487026
-0.0023542
-0.0490556
-0.00344265
-0.0496181
-0.0040554
-0.0504467
-0.00436557
-0.00464044
-0.0148263
0.0518305
-0.0250327
0.043937
-0.0293239
0.0316211
-0.030929
0.0242229
-0.0325899
0.0213429
-0.0341127
0.019018
-0.0352583
0.0169728
-0.0363609
0.015839
-0.0375687
0.0152008
-0.0386825
0.014476
-0.0396497
0.0138024
-0.0405494
0.0133343
-0.0414286
0.0129744
-0.042245
0.0125362
-0.0429551
0.0119702
-0.0435515
0.0113017
-0.0440494
0.0105432
-0.0444644
0.00966869
-0.0448068
0.00864169
-0.0450919
0.00744467
-0.045345
0.00608073
-0.0455975
0.00456499
-0.0458794
0.00292499
-0.0462084
0.00120975
-0.0465782
-0.000480789
-0.0469874
-0.00194497
-0.0474863
-0.00294376
-0.0481814
-0.00336038
-0.0491751
-0.00337183
-0.00341594
0.207447
0.00576232
0.207034
0.0111792
0.206431
0.016356
0.205646
0.0213759
0.204685
0.0263039
0.203557
0.0311942
0.202266
0.0360943
0.200819
0.0410459
0.199221
0.046086
0.197477
0.0512476
0.195594
0.0565607
0.193576
0.0620538
0.19143
0.067754
0.189159
0.0736885
0.18677
0.0798859
0.184266
0.0863772
0.18165
0.0931982
0.178924
0.100392
0.176089
0.108011
0.173143
0.116126
0.170082
0.124827
0.166902
0.134238
0.163598
0.144531
0.160174
0.155947
0.156654
0.168839
0.153135
0.183736
0.149991
0.201431
0.148915
0.222835
0.160759
0.245407
0.258371
0.236805
0.21249
0.00595492
0.212117
0.0115524
0.211573
0.0169001
0.210866
0.0220826
0.210005
0.0271653
0.208996
0.0322029
0.207848
0.0372428
0.206567
0.0423268
0.205161
0.0474917
0.203639
0.05277
0.202008
0.0581915
0.200278
0.0637838
0.198458
0.0695736
0.19656
0.0755871
0.194594
0.0818519
0.192573
0.0883978
0.190513
0.0952587
0.18843
0.102475
0.186345
0.110095
0.184289
0.118183
0.182301
0.126816
0.180442
0.136097
0.178812
0.146161
0.177583
0.157175
0.17708
0.169342
0.177959
0.182857
0.181644
0.197746
0.19075
0.213728
0.206292
0.229866
0.245211
0.219452
0.217657
0.00612504
0.217328
0.0118817
0.216849
0.0173793
0.216228
0.022703
0.215475
0.0279187
0.214597
0.0330808
0.213603
0.0382365
0.212503
0.0434273
0.211305
0.0486892
0.210021
0.0540541
0.208662
0.0595507
0.20724
0.0652054
0.205771
0.0710432
0.204269
0.0770886
0.202755
0.0833668
0.201248
0.0899042
0.199776
0.0967304
0.198372
0.103879
0.197077
0.111391
0.195947
0.119313
0.19506
0.127702
0.19453
0.136627
0.194528
0.146163
0.195316
0.156387
0.197306
0.167352
0.201108
0.179054
0.207491
0.191364
0.217108
0.204112
0.229658
0.217315
0.228394
0.246475
0.222951
0.00627069
0.222669
0.0121634
0.222261
0.017788
0.221734
0.0232301
0.221097
0.0285553
0.22036
0.0338176
0.219533
0.0390638
0.218626
0.0443343
0.217651
0.0496642
0.216621
0.0550842
0.21555
0.0606214
0.214455
0.0663003
0.213355
0.0721436
0.21227
0.078173
0.211227
0.0844098
0.210256
0.0908757
0.209392
0.0975937
0.208683
0.104589
0.208186
0.111888
0.207977
0.119521
0.20816
0.127519
0.208874
0.135913
0.210312
0.144725
0.212737
0.153962
0.216495
0.163595
0.222002
0.173547
0.229704
0.183662
0.240163
0.193652
0.254289
0.203189
0.210017
0.272667
0.228374
0.00639
0.228144
0.0123938
0.22781
0.0181212
0.227383
0.0236573
0.226871
0.0290671
0.226285
0.0344042
0.225635
0.039714
0.224933
0.0450361
0.224193
0.0504041
0.223431
0.0558468
0.222663
0.0613894
0.221909
0.067054
0.221192
0.0728603
0.220539
0.0788263
0.21998
0.0849684
0.219553
0.0913026
0.219303
0.097844
0.219285
0.104607
0.219568
0.111605
0.22024
0.118849
0.221414
0.126345
0.223235
0.134093
0.225885
0.142074
0.229596
0.15025
0.234646
0.158546
0.24136
0.166833
0.250113
0.174908
0.261347
0.182418
0.27553
0.189007
0.193591
0.291956
0.233929
0.0064813
0.233753
0.0125697
0.2335
0.018374
0.233179
0.0239784
0.232799
0.029447
0.232371
0.0348322
0.231907
0.0401782
0.231421
0.0455229
0.230926
0.0508982
0.230442
0.056331
0.229988
0.061844
0.229585
0.0674563
0.229262
0.0731841
0.229047
0.0790412
0.228976
0.0850389
0.229092
0.0911864
0.229446
0.0974905
0.230098
0.103955
0.231122
0.110581
0.232609
0.117361
0.234672
0.124283
0.237444
0.13132
0.24109
0.138429
0.2458
0.14554
0.251793
0.152552
0.25931
0.159317
0.268589
0.16563
0.279805
0.171202
0.293049
0.175762
0.178802
0.307838
0.23962
0.00654309
0.239501
0.0126882
0.239333
0.0185424
0.239123
0.0241884
0.238881
0.0296889
0.238618
0.0350947
0.238348
0.0404486
0.238084
0.0457866
0.237844
0.0511386
0.237646
0.0565291
0.237512
0.061978
0.237467
0.0675013
0.237539
0.0731115
0.237763
0.0788177
0.238176
0.0846259
0.238823
0.0905388
0.239759
0.0965552
0.241044
0.10267
0.242754
0.108871
0.244976
0.115139
0.247813
0.121447
0.251382
0.127751
0.25582
0.133991
0.261273
0.140087
0.267898
0.145928
0.275843
0.151372
0.285224
0.156248
0.296086
0.16034
0.308415
0.163434
0.165267
0.32195
0.245448
0.00657409
0.245389
0.0127469
0.245309
0.0186229
0.245214
0.0242829
0.245116
0.0297876
0.245024
0.0351862
0.244953
0.0405196
0.244918
0.0458217
0.244937
0.05112
0.245029
0.0564366
0.245219
0.0617884
0.245532
0.0671882
0.245999
0.0726446
0.246654
0.0781624
0.247538
0.0837422
0.248696
0.0893808
0.250181
0.09507
0.252054
0.100796
0.254385
0.10654
0.257252
0.112272
0.260746
0.117953
0.264963
0.123534
0.270007
0.128947
0.275984
0.134109
0.282993
0.138918
0.291114
0.143252
0.300392
0.14697
0.310816
0.149916
0.322316
0.151933
0.152892
0.334691
0.251418
0.0065733
0.251421
0.0127438
0.251431
0.0186129
0.251456
0.0242585
0.251504
0.0297395
0.251587
0.0351029
0.251719
0.0403874
0.251916
0.0456247
0.252196
0.05084
0.25258
0.0560524
0.253093
0.0612762
0.25376
0.0665209
0.254613
0.0717913
0.255688
0.077088
0.257022
0.0824074
0.258662
0.0877409
0.260658
0.0930747
0.263065
0.0983895
0.265945
0.103659
0.269368
0.108849
0.273405
0.113916
0.278133
0.118806
0.283626
0.123454
0.289953
0.127783
0.297169
0.131702
0.305309
0.135112
0.314372
0.137906
0.324314
0.139974
0.335035
0.141212
0.141562
0.346365
0.257532
0.00653995
0.257598
0.0126775
0.257701
0.0185102
0.257847
0.0241129
0.258044
0.0295421
0.258305
0.0348424
0.258642
0.0400502
0.259072
0.0451948
0.259613
0.0502988
0.260286
0.0553788
0.261116
0.0604463
0.26213
0.0655075
0.263357
0.0705641
0.264832
0.0756131
0.266592
0.0806471
0.26868
0.0856533
0.27114
0.0906143
0.274023
0.0955065
0.277382
0.1003
0.281272
0.104959
0.285749
0.109438
0.290869
0.113686
0.29668
0.117643
0.303222
0.121241
0.310519
0.124405
0.318573
0.127058
0.327356
0.129123
0.336805
0.130526
0.346815
0.131202
0.131132
0.357246
0.263794
0.00647358
0.263924
0.0125472
0.264121
0.0183138
0.264389
0.023845
0.264736
0.0291944
0.265174
0.0344041
0.265716
0.0395082
0.266378
0.0445333
0.267177
0.0494997
0.268135
0.0544213
0.269274
0.059307
0.270621
0.0641603
0.272205
0.0689801
0.274058
0.0737605
0.276214
0.0784911
0.27871
0.0831565
0.281588
0.0877366
0.284889
0.0922059
0.288655
0.0965338
0.29293
0.100684
0.297755
0.104614
0.303165
0.108276
0.30919
0.111619
0.315845
0.114585
0.323133
0.117117
0.331035
0.119157
0.339507
0.12065
0.348481
0.121552
0.357859
0.121825
0.121469
0.367521
0.270207
0.00637401
0.270401
0.0123524
0.270692
0.0180234
0.271082
0.0234546
0.27158
0.0286968
0.272195
0.0337893
0.272939
0.0387637
0.273828
0.0436441
0.27488
0.0484484
0.276113
0.0531884
0.277549
0.0578702
0.279215
0.0624952
0.281135
0.0670599
0.283339
0.0715565
0.285857
0.0759724
0.288723
0.0802907
0.29197
0.0844903
0.29563
0.0885453
0.299738
0.0924258
0.304324
0.0960976
0.309416
0.0995224
0.315033
0.102659
0.321188
0.105464
0.327881
0.107892
0.335098
0.109899
0.342809
0.111446
0.350964
0.112495
0.359495
0.113021
0.368313
0.113007
0.112464
0.377318
0.276773
0.00624132
0.277032
0.0120936
0.277416
0.0176395
0.277928
0.0229428
0.278574
0.0280509
0.279363
0.0330006
0.280306
0.0378207
0.281417
0.0425331
0.282712
0.0471533
0.284209
0.0516909
0.285929
0.0561501
0.287894
0.0605304
0.290127
0.0648267
0.292654
0.0690296
0.295501
0.0731255
0.298694
0.0770972
0.302261
0.0809233
0.306227
0.0845793
0.310616
0.0880372
0.315448
0.0912661
0.320737
0.0942331
0.326492
0.0969035
0.332714
0.0992426
0.339389
0.101216
0.346496
0.102792
0.353997
0.103944
0.361842
0.104651
0.369965
0.104898
0.378289
0.104683
0.104021
0.386731
0.283498
0.00607591
0.28382
0.0117713
0.284296
0.0171634
0.284928
0.0223115
0.285719
0.0272598
0.286677
0.0320423
0.287813
0.0366852
0.289138
0.0412082
0.290666
0.0456246
0.292415
0.0499422
0.294402
0.0541635
0.296645
0.0582866
0.299167
0.0623054
0.301987
0.0662096
0.305127
0.0699856
0.308608
0.0736162
0.31245
0.0770814
0.31667
0.0803584
0.321285
0.0834223
0.326305
0.0862463
0.331735
0.0888029
0.337574
0.0910644
0.343813
0.0930038
0.350433
0.0945964
0.357405
0.0958206
0.364689
0.0966598
0.372237
0.0971028
0.379989
0.0971461
0.387879
0.096793
0.0960638
0.395837
0.290384
0.00587839
0.290768
0.011387
0.291334
0.0165971
0.292082
0.0215637
0.293015
0.0263275
0.294137
0.0309199
0.295458
0.0353645
0.296987
0.0396788
0.298738
0.0438742
0.300723
0.047957
0.302958
0.0519284
0.305459
0.0557856
0.308242
0.0595218
0.311325
0.0631267
0.314724
0.0665869
0.318454
0.0698865
0.322528
0.0730071
0.326958
0.0759284
0.331751
0.078629
0.336911
0.0810865
0.342435
0.0832788
0.348315
0.0851843
0.354536
0.0867835
0.361073
0.0880591
0.367896
0.0889977
0.374965
0.0895904
0.382235
0.0898335
0.389651
0.0897295
0.397158
0.0892865
0.0885256
0.404696
0.297435
0.00564964
0.297879
0.0109423
0.298533
0.0159433
0.299394
0.0207031
0.300462
0.0252593
0.301742
0.0296401
0.303239
0.0338671
0.304962
0.0379556
0.306921
0.0419154
0.309127
0.0457514
0.311591
0.049464
0.314327
0.0530497
0.317347
0.0565018
0.320664
0.0598101
0.324288
0.0629625
0.32823
0.0659442
0.332498
0.0687391
0.337097
0.0713298
0.342028
0.0736984
0.347287
0.0758269
0.352868
0.0776981
0.358756
0.0792962
0.364932
0.0806074
0.37137
0.081621
0.378038
0.0823294
0.384899
0.0827296
0.39191
0.0828229
0.399024
0.0826156
0.406192
0.0821184
0.081352
0.413365
0.304654
0.0053907
0.305157
0.0104393
0.305895
0.0152052
0.306864
0.0197343
0.308062
0.0240609
0.309492
0.0282106
0.311156
0.0322025
0.313062
0.0360502
0.315215
0.0397621
0.317624
0.0433419
0.320299
0.0467896
0.323247
0.0501013
0.326479
0.0532706
0.330001
0.0562882
0.33382
0.0591429
0.337942
0.061822
0.34237
0.0643117
0.347102
0.0665975
0.352135
0.0686649
0.357462
0.0705001
0.36307
0.0720903
0.368942
0.0734243
0.375056
0.0744934
0.381385
0.0752915
0.387899
0.0758159
0.394561
0.0760673
0.401334
0.0760505
0.408175
0.075774
0.415044
0.0752496
0.0744969
0.421899
0.312046
0.0051028
0.312605
0.00988042
0.313424
0.0143864
0.314496
0.0186623
0.315818
0.022739
0.317389
0.0266395
0.319211
0.0303808
0.321286
0.0339748
0.323619
0.0374287
0.326216
0.0407454
0.329081
0.0439243
0.33222
0.0469619
0.335639
0.0498522
0.33934
0.0525868
0.343327
0.0551561
0.3476
0.0575492
0.352157
0.0597548
0.356993
0.0617611
0.362101
0.063557
0.367469
0.0651321
0.373082
0.0664774
0.378921
0.0675858
0.384962
0.0684523
0.391179
0.0690745
0.397542
0.0694529
0.404018
0.0695912
0.410573
0.0694958
0.41717
0.0691765
0.423774
0.0686455
0.0679208
0.43035
0.319615
0.00478724
0.320227
0.00926825
0.321123
0.0134909
0.322293
0.0174924
0.323731
0.0213004
0.325435
0.0249354
0.327404
0.0284125
0.329637
0.0317418
0.332136
0.0349295
0.334903
0.037978
0.337941
0.0408866
0.341251
0.043652
0.344834
0.0462687
0.348691
0.0487297
0.352821
0.0510268
0.357219
0.0531511
0.36188
0.0550934
0.366797
0.0568448
0.371957
0.0583968
0.377347
0.0597422
0.382949
0.0608752
0.388743
0.0617916
0.394706
0.0624895
0.400811
0.0629691
0.407031
0.0632332
0.413335
0.0632871
0.419692
0.0631383
0.426072
0.062797
0.432442
0.0622751
0.0615888
0.438774
0.327365
0.0044454
0.328028
0.00860547
0.328996
0.0125226
0.330258
0.0162301
0.331807
0.0197522
0.333635
0.0231071
0.33574
0.0263078
0.338118
0.0293632
0.340769
0.0322784
0.343692
0.0350555
0.346885
0.0376937
0.350347
0.0401901
0.354075
0.04254
0.358067
0.0447377
0.362318
0.0467763
0.36682
0.0486488
0.371566
0.0503481
0.376543
0.0518676
0.381738
0.0532013
0.387136
0.0543445
0.392717
0.0552938
0.398461
0.0560476
0.404345
0.0566058
0.410343
0.0569708
0.41643
0.0571466
0.422577
0.0571395
0.428758
0.0569575
0.434945
0.0566105
0.44111
0.0561097