/*--------------------------------*- C++ -*----------------------------------*\
  =========                 |
  \\      /  F ield         | OpenFOAM: The Open Source CFD Toolbox
   \\    /   O peration     | Website:  https://openfoam.org
    \\  /    A nd           | Version:  dev
     \\/     M anipulation  |
\*---------------------------------------------------------------------------*/
FoamFile
{
    version     2.0;
    format      ascii;
    class       volVectorField;
    location    "2";
    object      U;
}
// * * * * * * * * * * * * * * * * * * * * * * * * * * * * * * * * * * * * * //

dimensions      [0 1 -1 0 0 0 0];

internalField   nonuniform List<vector> 
2790
(
(9.94399 0 0.0205244)
(9.87571 0 0.0295902)
(9.77519 0 0.0359933)
(9.6494 0 0.0425614)
(9.50403 0 0.0493921)
(9.33998 0 0.0564366)
(9.15643 0 0.0638258)
(8.95247 0 0.0717233)
(8.72727 0 0.0802688)
(8.47985 0 0.089589)
(8.20899 0 0.0998109)
(7.91332 0 0.111065)
(7.5913 0 0.123481)
(7.24135 0 0.137187)
(6.86184 0 0.152296)
(6.45126 0 0.168894)
(6.0083 0 0.187021)
(5.53206 0 0.206642)
(5.02232 0 0.227611)
(4.47978 0 0.249628)
(3.90648 0 0.272189)
(3.30616 0 0.294531)
(2.68464 0 0.315616)
(2.05001 0 0.334271)
(1.41125 0 0.350563)
(0.797563 0 0.372773)
(0.110391 0 0.32469)
(-0.469065 0 -0.114617)
(-0.453566 0 -0.296509)
(-0.230892 0 -0.423342)
(9.9985 0 0.0407069)
(9.98145 0 0.0623905)
(9.93572 0 0.0791517)
(9.86412 0 0.0966402)
(9.77091 0 0.115143)
(9.65706 0 0.134512)
(9.52194 0 0.155003)
(9.3647 0 0.176976)
(9.18452 0 0.200745)
(8.98043 0 0.226592)
(8.75124 0 0.254791)
(8.49554 0 0.285611)
(8.21181 0 0.319302)
(7.89837 0 0.356077)
(7.55353 0 0.396075)
(7.17563 0 0.439316)
(6.76318 0 0.485641)
(6.31501 0 0.53463)
(5.83057 0 0.585495)
(5.31018 0 0.636975)
(4.75544 0 0.687209)
(4.16971 0 0.733633)
(3.55862 0 0.772916)
(2.93092 0 0.801027)
(2.29938 0 0.813644)
(1.69246 0 0.807081)
(1.10674 0 0.746952)
(0.658554 0 0.547601)
(0.185795 0 0.223987)
(-0.00806917 0 -0.453616)
(9.99559 0 0.0432136)
(9.97555 0 0.0752847)
(9.93178 0 0.103365)
(9.86486 0 0.132397)
(9.77772 0 0.163092)
(9.67146 0 0.195439)
(9.54576 0 0.22979)
(9.39998 0 0.266658)
(9.23346 0 0.306534)
(9.04541 0 0.349878)
(8.83481 0 0.39715)
(8.60049 0 0.448806)
(8.34108 0 0.505281)
(8.05508 0 0.566955)
(7.74091 0 0.634102)
(7.39693 0 0.706819)
(7.02155 0 0.784918)
(6.61336 0 0.867793)
(6.17132 0 0.954248)
(5.695 0 1.04229)
(5.18498 0 1.12889)
(4.64332 0 1.20976)
(4.07417 0 1.27909)
(3.48479 0 1.32922)
(2.88631 0 1.34992)
(2.29899 0 1.32619)
(1.73143 0 1.22046)
(1.21588 0 0.972729)
(0.700876 0 0.569977)
(0.357717 0 -0.156673)
(9.99402 0 0.0495085)
(9.9718 0 0.0932245)
(9.92786 0 0.133599)
(9.86221 0 0.174245)
(9.77687 0 0.216479)
(9.67289 0 0.260717)
(9.5502 0 0.307496)
(9.40834 0 0.357491)
(9.24683 0 0.411377)
(9.0651 0 0.469802)
(8.86241 0 0.533407)
(8.63787 0 0.602836)
(8.39048 0 0.67871)
(8.11911 0 0.761594)
(7.82254 0 0.851939)
(7.49951 0 0.949988)
(7.14871 0 1.05565)
(6.76888 0 1.16833)
(6.35891 0 1.28667)
(5.918 0 1.4083)
(5.44593 0 1.52947)
(4.94342 0 1.64464)
(4.4126 0 1.74605)
(3.85774 0 1.82307)
(3.28534 0 1.86115)
(2.70597 0 1.84004)
(2.12528 0 1.72566)
(1.55394 0 1.47752)
(0.957736 0 1.0834)
(0.509278 0 0.502088)
(9.99331 0 0.0572256)
(9.96993 0 0.110982)
(9.92591 0 0.162139)
(9.86142 0 0.213394)
(9.77792 0 0.266416)
(9.67626 0 0.321986)
(9.55642 0 0.380787)
(9.41806 0 0.443586)
(9.26077 0 0.511167)
(9.08409 0 0.584293)
(8.88742 0 0.663721)
(8.67005 0 0.750205)
(8.43121 0 0.844481)
(8.17003 0 0.947232)
(7.88561 0 1.05902)
(7.57697 0 1.18021)
(7.24312 0 1.31081)
(6.88304 0 1.45028)
(6.49571 0 1.5973)
(6.08015 0 1.74936)
(5.63558 0 1.90241)
(5.16156 0 2.05026)
(4.65825 0 2.18406)
(4.12673 0 2.29156)
(3.56896 0 2.35631)
(2.98851 0 2.35699)
(2.38651 0 2.26456)
(1.76612 0 2.04722)
(1.08982 0 1.69098)
(0.536538 0 1.15378)
(9.99302 0 0.0655534)
(9.96922 0 0.128731)
(9.92554 0 0.190157)
(9.86249 0 0.251901)
(9.78122 0 0.315651)
(9.68235 0 0.382407)
(9.56588 0 0.452979)
(9.43155 0 0.528222)
(9.27899 0 0.609016)
(9.10781 0 0.696235)
(8.91747 0 0.790742)
(8.70739 0 0.893396)
(8.47688 0 1.00503)
(8.22522 0 1.12643)
(7.95165 0 1.25826)
(7.65535 0 1.40097)
(7.33546 0 1.55468)
(6.99105 0 1.71897)
(6.62108 0 1.89263)
(6.2244 0 2.07325)
(5.79969 0 2.25683)
(5.34548 0 2.43712)
(4.86019 0 2.60505)
(4.34223 0 2.748)
(3.78998 0 2.84924)
(3.20222 0 2.88782)
(2.57628 0 2.83777)
(1.91324 0 2.67111)
(1.17261 0 2.37349)
(0.549877 0 1.89392)
(9.99297 0 0.0740925)
(9.96925 0 0.146349)
(9.92635 0 0.217535)
(9.86504 0 0.289361)
(9.78636 0 0.363443)
(9.69075 0 0.440933)
(9.57821 0 0.522786)
(9.44854 0 0.609956)
(9.30143 0 0.703419)
(9.13651 0 0.804145)
(8.95332 0 0.913095)
(8.75133 0 1.03122)
(8.5299 0 1.15943)
(8.28839 0 1.29861)
(8.02605 0 1.4495)
(7.74211 0 1.61266)
(7.43568 0 1.78834)
(7.10576 0 1.97628)
(6.75115 0 2.17548)
(6.37036 0 2.38384)
(5.96147 0 2.5977)
(5.52204 0 2.81127)
(5.04898 0 3.01596)
(4.53852 0 3.19969)
(3.98625 0 3.34632)
(3.38757 0 3.43552)
(2.73698 0 3.44279)
(2.03604 0 3.34093)
(1.24163 0 3.11298)
(0.563441 0 2.69258)
(9.99306 0 0.0826087)
(9.9698 0 0.163647)
(9.92804 0 0.244111)
(9.8688 0 0.325561)
(9.79305 0 0.409549)
(9.70116 0 0.497331)
(9.59309 0 0.589986)
(9.4687 0 0.688566)
(9.32773 0 0.794132)
(9.16986 0 0.907742)
(8.99468 0 1.03044)
(8.8017 0 1.16328)
(8.59035 0 1.30725)
(8.35998 0 1.46334)
(8.10986 0 1.63238)
(7.83917 0 1.81508)
(7.54693 0 2.01185)
(7.23196 0 2.22265)
(6.89277 0 2.44681)
(6.52744 0 2.6827)
(6.13338 0 2.92729)
(5.70719 0 3.17562)
(5.24436 0 3.42012)
(4.73925 0 3.64986)
(4.18504 0 3.8498)
(3.57441 0 4.00037)
(2.89926 0 4.07731)
(2.16193 0 4.05174)
(1.31602 0 3.90103)
(0.583159 0 3.53951)
(9.99326 0 0.090952)
(9.97071 0 0.180455)
(9.93043 0 0.269737)
(9.87357 0 0.360335)
(9.8011 0 0.453765)
(9.71333 0 0.551354)
(9.61023 0 0.654283)
(9.49169 0 0.763693)
(9.35751 0 0.880728)
(9.20743 0 1.00653)
(9.04109 0 1.14222)
(8.85804 0 1.28895)
(8.65777 0 1.44781)
(8.43964 0 1.61988)
(8.20293 0 1.80614)
(7.94676 0 2.00746)
(7.67003 0 2.22446)
(7.37137 0 2.45743)
(7.04897 0 2.70614)
(6.70045 0 2.96957)
(6.32254 0 3.24557)
(5.91089 0 3.53034)
(5.45967 0 3.81776)
(4.96141 0 4.09857)
(4.40691 0 4.35934)
(3.78602 0 4.58149)
(3.0873 0 4.7404)
(2.31254 0 4.80374)
(1.41057 0 4.74035)
(0.614262 0 4.44122)
(9.99352 0 0.0990191)
(9.97189 0 0.196632)
(9.93338 0 0.294275)
(9.87919 0 0.393523)
(9.81032 0 0.495891)
(9.72705 0 0.602753)
(9.62937 0 0.715378)
(9.51721 0 0.834988)
(9.39042 0 0.962801)
(9.2488 0 1.10003)
(9.09206 0 1.2479)
(8.91981 0 1.40762)
(8.73158 0 1.5804)
(8.5268 0 1.76744)
(8.30473 0 1.96988)
(8.06448 0 2.18877)
(7.80488 0 2.42504)
(7.5244 0 2.67935)
(7.22098 0 2.95202)
(6.89182 0 3.24282)
(6.53309 0 3.55067)
(6.13958 0 3.87325)
(5.70423 0 4.20632)
(5.21777 0 4.54287)
(4.66841 0 4.8718)
(4.04243 0 5.17623)
(3.32341 0 5.43151)
(2.50961 0 5.60115)
(1.54182 0 5.6427)
(0.664032 0 5.4173)
(9.99384 0 0.106734)
(9.97329 0 0.21206)
(9.93677 0 0.317592)
(9.88553 0 0.424976)
(9.82055 0 0.535741)
(9.74213 0 0.651307)
(9.65028 0 0.773009)
(9.54496 0 0.902143)
(9.4261 0 1.03999)
(9.29356 0 1.18784)
(9.1471 0 1.34699)
(8.98644 0 1.51873)
(8.81116 0 1.70438)
(8.62075 0 1.90526)
(8.41454 0 2.12269)
(8.19166 0 2.35794)
(7.95094 0 2.61226)
(7.69077 0 2.88676)
(7.40898 0 3.18241)
(7.10254 0 3.49987)
(6.76725 0 3.83934)
(6.39727 0 4.20025)
(5.98457 0 4.58072)
(5.51822 0 4.9767)
(4.98367 0 5.38054)
(4.36276 0 5.77866)
(3.6316 0 6.14818)
(2.78 0 6.44973)
(1.73346 0 6.62765)
(0.74485 0 6.50235)
(9.9942 0 0.11404)
(9.97486 0 0.226642)
(9.94053 0 0.339573)
(9.89246 0 0.454558)
(9.83165 0 0.573154)
(9.75838 0 0.696819)
(9.67271 0 0.826944)
(9.57465 0 0.964884)
(9.46419 0 1.11198)
(9.34125 0 1.26959)
(9.2057 0 1.43906)
(9.05732 0 1.62177)
(8.8958 0 1.81914)
(8.72073 0 2.03261)
(8.53152 0 2.26368)
(8.32741 0 2.51385)
(8.10729 0 2.7847)
(7.86966 0 3.07784)
(7.61239 0 3.39489)
(7.33245 0 3.73751)
(7.02562 0 4.10731)
(6.68587 0 4.50569)
(6.30468 0 4.93357)
(5.87001 0 5.39069)
(5.3649 0 5.87439)
(4.76627 0 6.37713)
(4.04038 0 6.88204)
(3.1614 0 7.35238)
(2.02487 0 7.72229)
(0.880841 0 7.75644)
(9.99459 0 0.120891)
(9.97656 0 0.240298)
(9.94458 0 0.360118)
(9.8999 0 0.48215)
(9.84347 0 0.607986)
(9.77562 0 0.739117)
(9.69644 0 0.876978)
(9.60599 0 1.02297)
(9.50432 0 1.17849)
(9.39146 0 1.34494)
(9.26733 0 1.52371)
(9.13184 0 1.71628)
(8.98478 0 1.92413)
(8.82588 0 2.14882)
(8.6547 0 2.392)
(8.47062 0 2.65542)
(8.27274 0 2.94096)
(8.05978 0 3.25069)
(7.82986 0 3.58691)
(7.58031 0 3.95224)
(7.30725 0 4.3497)
(7.00511 0 4.78279)
(6.66573 0 5.25547)
(6.27712 0 5.77204)
(5.82133 0 6.3365)
(5.27168 0 6.951)
(4.58415 0 7.61212)
(3.71003 0 8.29951)
(2.48857 0 8.95723)
(1.1248 0 9.29289)
(9.99501 0 0.127252)
(9.97836 0 0.252966)
(9.94888 0 0.379143)
(9.90774 0 0.507652)
(9.85589 0 0.640119)
(9.79368 0 0.778062)
(9.72123 0 0.922951)
(9.63868 0 1.07622)
(9.54614 0 1.23931)
(9.44371 0 1.41365)
(9.33144 0 1.60068)
(9.20932 0 1.80192)
(9.07731 0 2.01893)
(8.93527 0 2.25336)
(8.78296 0 2.507)
(8.62 0 2.78176)
(8.44577 0 3.07982)
(8.25935 0 3.40363)
(8.05935 0 3.75608)
(7.84373 0 4.14063)
(7.60949 0 4.56158)
(7.35222 0 5.02433)
(7.0653 0 5.53583)
(6.73868 0 6.10508)
(6.35644 0 6.7438)
(5.89301 0 7.46712)
(5.30033 0 8.2943)
(4.50917 0 9.24604)
(3.26981 0 10.3407)
(1.60589 0 11.3597)
(9.99544 0 0.133096)
(9.98025 0 0.264593)
(9.95336 0 0.396576)
(9.9159 0 0.530971)
(9.86878 0 0.669432)
(9.81238 0 0.8135)
(9.74688 0 0.964668)
(9.67245 0 1.1244)
(9.58929 0 1.29415)
(9.49758 0 1.47537)
(9.39748 0 1.66955)
(9.28911 0 1.87821)
(9.17257 0 2.10297)
(9.04792 0 2.34555)
(8.91513 0 2.60781)
(8.77411 0 2.89181)
(8.62462 0 3.19991)
(8.4662 0 3.53486)
(8.29814 0 3.89996)
(8.11931 0 4.29929)
(7.92802 0 4.73806)
(7.72172 0 5.22311)
(7.49662 0 5.76367)
(7.24685 0 6.37253)
(6.96298 0 7.06817)
(6.62955 0 7.87844)
(6.2139 0 8.84888)
(5.6667 0 10.0628)
(4.6928 0 11.729)
(2.68998 0 14.5958)
(0.207584 0 -0.233833)
(0.462154 0 -0.198962)
(0.728359 0 -0.163032)
(0.966226 0 -0.134741)
(1.17015 0 -0.112896)
(1.34665 0 -0.0955504)
(1.50215 0 -0.0814665)
(1.6406 0 -0.0697974)
(1.76418 0 -0.0598013)
(1.87391 0 -0.0508355)
(1.96993 0 -0.0425531)
(2.05213 0 -0.0350093)
(2.12108 0 -0.0283086)
(2.17774 0 -0.022234)
(2.2219 0 -0.016378)
(2.25231 0 -0.0106444)
(2.26985 0 -0.00400024)
(2.27756 0 0.00404248)
(2.27738 0 0.00883882)
(2.27121 0 0.00833863)
(2.2643 0 0.00266842)
(2.26263 0 -0.00681165)
(2.26974 0 -0.0176147)
(2.28583 0 -0.0269998)
(2.30851 0 -0.0327146)
(2.33524 0 -0.0339831)
(2.36645 0 -0.0321816)
(2.40505 0 -0.0301243)
(2.4565 0 -0.0285814)
(2.54368 0 -0.026212)
(0.142786 0 -0.453926)
(0.378399 0 -0.40852)
(0.608525 0 -0.344387)
(0.817057 0 -0.290237)
(0.998652 0 -0.247431)
(1.15802 0 -0.213025)
(1.29998 0 -0.184833)
(1.42762 0 -0.161234)
(1.5428 0 -0.140656)
(1.64654 0 -0.121525)
(1.73889 0 -0.102975)
(1.81913 0 -0.0855899)
(1.88724 0 -0.0701397)
(1.94536 0 -0.0550943)
(1.99481 0 -0.0377492)
(2.0331 0 -0.0233711)
(2.06107 0 -0.0165731)
(2.08086 0 -0.0129542)
(2.07598 0 -0.00748669)
(2.0424 0 -0.00214653)
(1.98074 0 0.00159732)
(1.89678 0 0.00419046)
(1.79965 0 0.00647896)
(1.70044 0 0.00851708)
(1.61178 0 0.00889957)
(1.54603 0 0.00506158)
(1.5133 0 -0.0018832)
(1.50244 0 -0.0112068)
(1.52378 0 -0.0265368)
(1.61931 0 -0.0476376)
(0.0946201 0 -0.678964)
(0.280856 0 -0.627166)
(0.445935 0 -0.537323)
(0.59842 0 -0.458141)
(0.729779 0 -0.394171)
(0.843711 0 -0.341968)
(0.943156 0 -0.298728)
(1.03001 0 -0.262307)
(1.10561 0 -0.230633)
(1.17106 0 -0.201181)
(1.22693 0 -0.171767)
(1.27117 0 -0.143277)
(1.30045 0 -0.120165)
(1.31873 0 -0.105064)
(1.33363 0 -0.0902685)
(1.33009 0 -0.0643342)
(1.25649 0 -0.0292689)
(1.14074 0 0.0049663)
(1.02411 0 0.0409714)
(0.908013 0 0.0711487)
(0.790939 0 0.0899004)
(0.677679 0 0.0966982)
(0.573821 0 0.092359)
(0.486378 0 0.078104)
(0.422243 0 0.0552723)
(0.390438 0 0.024356)
(0.384957 0 -0.00567554)
(0.434448 0 -0.0379446)
(0.515375 0 -0.0872027)
(0.671466 0 -0.133465)
(0.0537665 0 -0.827091)
(0.179397 0 -0.761654)
(0.267919 0 -0.649824)
(0.354984 0 -0.552398)
(0.424416 0 -0.472739)
(0.48085 0 -0.406805)
(0.524972 0 -0.351438)
(0.557115 0 -0.304218)
(0.577404 0 -0.263391)
(0.586936 0 -0.226798)
(0.589326 0 -0.191594)
(0.583629 0 -0.154837)
(0.554906 0 -0.113591)
(0.483119 0 -0.0647024)
(0.345623 0 -0.00930952)
(0.218271 0 0.0460709)
(0.133368 0 0.0880471)
(0.0435246 0 0.114376)
(-0.0437433 0 0.131309)
(-0.12704 0 0.143431)
(-0.203573 0 0.147276)
(-0.268308 0 0.140638)
(-0.317626 0 0.123294)
(-0.348124 0 0.096092)
(-0.356312 0 0.0606143)
(-0.340603 0 0.0190735)
(-0.316158 0 -0.0294298)
(-0.253879 0 -0.0828531)
(-0.186371 0 -0.136236)
(-0.113849 0 -0.177302)
(0.0132102 0 -0.906349)
(0.0692109 0 -0.822538)
(0.0751041 0 -0.69354)
(0.0901487 0 -0.584349)
(0.0890229 0 -0.493266)
(0.0785998 0 -0.416645)
(0.0573322 0 -0.350812)
(0.023606 0 -0.292167)
(-0.0250451 0 -0.238606)
(-0.0910597 0 -0.187583)
(-0.174364 0 -0.135418)
(-0.270685 0 -0.0800505)
(-0.380475 0 -0.0228854)
(-0.484264 0 0.0283041)
(-0.553487 0 0.0649094)
(-0.62751 0 0.094752)
(-0.69837 0 0.125127)
(-0.765335 0 0.152034)
(-0.825528 0 0.168974)
(-0.876822 0 0.176365)
(-0.916963 0 0.173208)
(-0.944101 0 0.158208)
(-0.957438 0 0.131615)
(-0.956641 0 0.0950134)
(-0.941879 0 0.0510714)
(-0.916529 0 0.00222422)
(-0.88317 0 -0.0526401)
(-0.84027 0 -0.108647)
(-0.802736 0 -0.158703)
(-0.779235 0 -0.193815)
(-0.030159 0 -0.907137)
(-0.0510914 0 -0.801098)
(-0.126594 0 -0.661292)
(-0.189459 0 -0.544862)
(-0.264709 0 -0.44591)
(-0.346865 0 -0.361662)
(-0.436688 0 -0.288319)
(-0.533258 0 -0.223055)
(-0.634816 0 -0.164005)
(-0.739294 0 -0.109186)
(-0.844635 0 -0.0571035)
(-0.950635 0 -0.00779999)
(-1.03889 0 0.0358118)
(-1.11218 0 0.0745876)
(-1.18249 0 0.10991)
(-1.2477 0 0.140357)
(-1.30611 0 0.165596)
(-1.35606 0 0.184848)
(-1.3962 0 0.195213)
(-1.42558 0 0.195456)
(-1.44364 0 0.184645)
(-1.45047 0 0.162238)
(-1.44687 0 0.128963)
(-1.43384 0 0.0867937)
(-1.41275 0 0.0383766)
(-1.3872 0 -0.0144183)
(-1.35297 0 -0.0702267)
(-1.32282 0 -0.1245)
(-1.30144 0 -0.172334)
(-1.29265 0 -0.206668)
(-0.0800745 0 -0.825611)
(-0.177895 0 -0.702257)
(-0.328107 0 -0.560915)
(-0.463003 0 -0.443969)
(-0.600584 0 -0.345584)
(-0.73578 0 -0.262692)
(-0.867307 0 -0.191818)
(-0.994271 0 -0.129594)
(-1.11624 0 -0.073642)
(-1.23335 0 -0.0230401)
(-1.33796 0 0.0213333)
(-1.4248 0 0.05953)
(-1.50423 0 0.0941359)
(-1.57726 0 0.125847)
(-1.64317 0 0.154503)
(-1.70084 0 0.178799)
(-1.7492 0 0.197406)
(-1.78734 0 0.209073)
(-1.81477 0 0.212041)
(-1.83145 0 0.205144)
(-1.83777 0 0.187665)
(-1.83456 0 0.159484)
(-1.82301 0 0.121514)
(-1.80436 0 0.0756896)
(-1.78033 0 0.0243816)
(-1.75405 0 -0.0302458)
(-1.72595 0 -0.0845972)
(-1.7052 0 -0.13523)
(-1.69437 0 -0.179628)
(-1.69241 0 -0.211632)
(-0.132372 0 -0.667215)
(-0.299222 0 -0.535519)
(-0.514836 0 -0.401304)
(-0.705805 0 -0.294055)
(-0.886862 0 -0.20734)
(-1.0548 0 -0.135145)
(-1.20944 0 -0.0738819)
(-1.35152 0 -0.0209815)
(-1.47529 0 0.0224854)
(-1.58184 0 0.0588663)
(-1.67714 0 0.0911465)
(-1.76445 0 0.121214)
(-1.8435 0 0.149055)
(-1.91389 0 0.17393)
(-1.97509 0 0.195237)
(-2.02651 0 0.212)
(-2.06764 0 0.223069)
(-2.09813 0 0.227187)
(-2.11802 0 0.22301)
(-2.1277 0 0.209553)
(-2.12794 0 0.186271)
(-2.1198 0 0.153259)
(-2.10462 0 0.11154)
(-2.08392 0 0.06309)
(-2.05986 0 0.0104231)
(-2.03545 0 -0.0437734)
(-2.01366 0 -0.0954439)
(-2.00084 0 -0.141871)
(-1.99813 0 -0.182041)
(-2.00042 0 -0.210618)
(-0.184998 0 -0.44334)
(-0.412187 0 -0.319083)
(-0.682645 0 -0.203733)
(-0.915529 0 -0.111782)
(-1.12413 0 -0.0382844)
(-1.30393 0 0.0145386)
(-1.45936 0 0.0545699)
(-1.59278 0 0.0857577)
(-1.71237 0 0.113228)
(-1.82007 0 0.138408)
(-1.91709 0 0.161735)
(-2.004 0 0.183241)
(-2.08094 0 0.202686)
(-2.14791 0 0.219425)
(-2.20472 0 0.23268)
(-2.2512 0 0.241516)
(-2.28721 0 0.244885)
(-2.3128 0 0.241658)
(-2.32827 0 0.230719)
(-2.33424 0 0.211227)
(-2.33163 0 0.182775)
(-2.32162 0 0.14561)
(-2.30566 0 0.100872)
(-2.28553 0 0.050634)
(-2.2637 0 -0.00238318)
(-2.24235 0 -0.0549447)
(-2.22663 0 -0.103112)
(-2.22096 0 -0.144924)
(-2.22515 0 -0.180376)
(-2.23075 0 -0.205147)
(-0.244906 0 -0.156602)
(-0.52247 0 -0.0183799)
(-0.820279 0 0.0630506)
(-1.06463 0 0.110032)
(-1.27242 0 0.137623)
(-1.45327 0 0.158729)
(-1.61102 0 0.176088)
(-1.74962 0 0.191545)
(-1.87202 0 0.205852)
(-1.98031 0 0.219257)
(-2.07612 0 0.231958)
(-2.16051 0 0.243759)
(-2.23409 0 0.254113)
(-2.2972 0 0.262234)
(-2.34995 0 0.267236)
(-2.39241 0 0.268176)
(-2.42469 0 0.264067)
(-2.44708 0 0.253882)
(-2.46007 0 0.236656)
(-2.46438 0 0.211666)
(-2.46103 0 0.178627)
(-2.45127 0 0.137913)
(-2.43658 0 0.0907702)
(-2.4188 0 0.0393701)
(-2.4003 0 -0.0133523)
(-2.38329 0 -0.0636062)
(-2.3735 0 -0.107785)
(-2.37457 0 -0.144697)
(-2.38505 0 -0.175181)
(-2.39363 0 -0.19621)
(-0.267682 0 0.251527)
(-0.567963 0 0.299245)
(-0.884745 0 0.314908)
(-1.14397 0 0.317797)
(-1.36445 0 0.313913)
(-1.55174 0 0.308154)
(-1.71161 0 0.302906)
(-1.84953 0 0.299552)
(-1.96955 0 0.298282)
(-2.07443 0 0.29856)
(-2.16615 0 0.299863)
(-2.24614 0 0.301544)
(-2.31533 0 0.302692)
(-2.37423 0 0.302249)
(-2.4231 0 0.299184)
(-2.46214 0 0.292537)
(-2.49161 0 0.281372)
(-2.51193 0 0.264749)
(-2.52373 0 0.241801)
(-2.52781 0 0.211904)
(-2.52524 0 0.174876)
(-2.51729 0 0.131186)
(-2.50545 0 0.0821524)
(-2.49143 0 0.0300493)
(-2.47727 0 -0.0218763)
(-2.46566 0 -0.0694854)
(-2.46181 0 -0.109495)
(-2.46948 0 -0.141319)
(-2.48604 0 -0.166685)
(-2.49753 0 -0.184123)
(-0.280607 0 0.613687)
(-0.608653 0 0.631147)
(-0.948913 0 0.590475)
(-1.21637 0 0.541833)
(-1.43647 0 0.496224)
(-1.61845 0 0.457589)
(-1.77088 0 0.426825)
(-1.90074 0 0.403699)
(-2.01297 0 0.386611)
(-2.11058 0 0.373693)
(-2.19557 0 0.363692)
(-2.26946 0 0.355544)
(-2.33335 0 0.34792)
(-2.38778 0 0.339386)
(-2.43297 0 0.328731)
(-2.46907 0 0.315005)
(-2.49644 0 0.29735)
(-2.51559 0 0.274907)
(-2.52722 0 0.246883)
(-2.53222 0 0.212732)
(-2.53168 0 0.172353)
(-2.52691 0 0.126279)
(-2.51935 0 0.0758594)
(-2.51051 0 0.0234492)
(-2.50191 0 -0.0273901)
(-2.49628 0 -0.0723224)
(-2.49856 0 -0.108211)
(-2.51284 0 -0.134839)
(-2.53555 0 -0.15493)
(-2.55007 0 -0.168831)
(-0.315457 0 1.03733)
(-0.681475 0 0.999426)
(-1.03707 0 0.876483)
(-1.29496 0 0.761491)
(-1.49721 0 0.669386)
(-1.65999 0 0.59661)
(-1.79415 0 0.54027)
(-1.90798 0 0.4985)
(-2.00707 0 0.467152)
(-2.09388 0 0.442203)
(-2.16972 0 0.421806)
(-2.23601 0 0.404793)
(-2.29393 0 0.3894)
(-2.34388 0 0.373643)
(-2.38575 0 0.356113)
(-2.41955 0 0.335959)
(-2.4456 0 0.312486)
(-2.46449 0 0.284927)
(-2.47697 0 0.252539)
(-2.48396 0 0.214839)
(-2.4866 0 0.171797)
(-2.48627 0 0.123986)
(-2.48436 0 0.0727244)
(-2.48209 0 0.0203578)
(-2.4804 0 -0.0293617)
(-2.48146 0 -0.0718784)
(-2.49019 0 -0.103872)
(-2.51126 0 -0.125268)
(-2.54041 0 -0.139836)
(-2.55822 0 -0.150063)
(-0.386056 0 1.52711)
(-0.812167 0 1.40474)
(-1.17295 0 1.15681)
(-1.39164 0 0.95521)
(-1.55113 0 0.817515)
(-1.67881 0 0.714196)
(-1.78314 0 0.634928)
(-1.87253 0 0.578299)
(-1.95347 0 0.536678)
(-2.02657 0 0.502081)
(-2.09113 0 0.472821)
(-2.14844 0 0.448558)
(-2.19999 0 0.42706)
(-2.24584 0 0.40536)
(-2.28519 0 0.381841)
(-2.31763 0 0.355991)
(-2.34344 0 0.327443)
(-2.36327 0 0.295532)
(-2.37784 0 0.259524)
(-2.38804 0 0.218991)
(-2.39503 0 0.173981)
(-2.40028 0 0.125081)
(-2.40529 0 0.073523)
(-2.41102 0 0.0214913)
(-2.41782 0 -0.0272707)
(-2.42671 0 -0.0678553)
(-2.44253 0 -0.0963846)
(-2.47076 0 -0.112572)
(-2.50679 0 -0.12115)
(-2.52825 0 -0.127218)
(-0.542311 0 2.33506)
(-1.0418 0 1.97547)
(-1.39527 0 1.43762)
(-1.51862 0 1.08056)
(-1.59542 0 0.916144)
(-1.67244 0 0.799742)
(-1.73595 0 0.702892)
(-1.7917 0 0.637295)
(-1.85033 0 0.592774)
(-1.90812 0 0.551683)
(-1.95945 0 0.515126)
(-2.00604 0 0.485825)
(-2.05091 0 0.460847)
(-2.09354 0 0.434984)
(-2.13165 0 0.406477)
(-2.16413 0 0.375691)
(-2.1913 0 0.342874)
(-2.21388 0 0.307419)
(-2.23244 0 0.268478)
(-2.24759 0 0.225688)
(-2.26044 0 0.179282)
(-2.2726 0 0.129945)
(-2.28579 0 0.0788025)
(-2.30097 0 0.0276746)
(-2.31804 0 -0.0201437)
(-2.33653 0 -0.0593993)
(-2.36068 0 -0.0852023)
(-2.39674 0 -0.0963865)
(-2.44023 0 -0.0982694)
(-2.46586 0 -0.0993271)
(9.9959 0 0.138495)
(9.98223 0 0.275335)
(9.95807 0 0.412672)
(9.92447 0 0.552472)
(9.88232 0 0.696416)
(9.83201 0 0.846056)
(9.77378 0 1.0029)
(9.70787 0 1.16842)
(9.63456 0 1.34408)
(9.55412 0 1.53134)
(9.46682 0 1.73169)
(9.37293 0 1.94668)
(9.2727 0 2.17792)
(9.16641 0 2.42717)
(9.05429 0 2.69632)
(8.93657 0 2.9875)
(8.81344 0 3.30316)
(8.68505 0 3.64619)
(8.55146 0 4.02008)
(8.41269 0 4.4292)
(8.26867 0 4.87919)
(8.11932 0 5.37748)
(7.96459 0 5.93423)
(7.80482 0 6.56379)
(7.64126 0 7.2872)
(7.47905 0 8.13704)
(7.33169 0 9.16729)
(7.28991 0 10.4716)
(7.75436 0 12.1949)
(7.9501 0 14.9141)
(9.99638 0 0.143459)
(9.98432 0 0.285199)
(9.96302 0 0.427413)
(9.93345 0 0.572101)
(9.89646 0 0.720956)
(9.85246 0 0.875536)
(9.80175 0 1.03735)
(9.74463 0 1.20787)
(9.68146 0 1.38856)
(9.6126 0 1.58086)
(9.53846 0 1.78626)
(9.45943 0 2.00628)
(9.37597 0 2.24252)
(9.28854 0 2.49672)
(9.19767 0 2.77074)
(9.10394 0 3.0667)
(9.008 0 3.38701)
(8.9106 0 3.73452)
(8.81265 0 4.11266)
(8.71535 0 4.52568)
(8.62031 0 4.97898)
(8.52991 0 5.47958)
(8.44788 0 6.03675)
(8.38051 0 6.66306)
(8.33906 0 7.37565)
(8.3457 0 8.19785)
(8.4395 0 9.15962)
(8.67661 0 10.2939)
(9.32624 0 11.5443)
(9.82126 0 12.6222)
(9.99688 0 0.1479)
(9.98649 0 0.29402)
(9.96815 0 0.440578)
(9.94276 0 0.589591)
(9.9111 0 0.742755)
(9.87361 0 0.901624)
(9.83063 0 1.06769)
(9.78253 0 1.24242)
(9.72973 0 1.42724)
(9.67272 0 1.62357)
(9.61199 0 1.83286)
(9.54809 0 2.05659)
(9.48165 0 2.2963)
(9.41336 0 2.55366)
(9.34401 0 2.83044)
(9.27454 0 3.12866)
(9.20603 0 3.45056)
(9.13982 0 3.79878)
(9.0776 0 4.17643)
(9.02158 0 4.58724)
(8.97479 0 5.0358)
(8.94151 0 5.52776)
(8.92804 0 6.07005)
(8.9439 0 6.67103)
(9.00361 0 7.34004)
(9.12931 0 8.08557)
(9.35198 0 8.90924)
(9.68093 0 9.79946)
(10.2452 0 10.7041)
(10.9302 0 11.4114)
(9.9974 0 0.151766)
(9.98872 0 0.301691)
(9.97343 0 0.451999)
(9.95232 0 0.60471)
(9.92612 0 0.761513)
(9.89528 0 0.923944)
(9.86018 0 1.09348)
(9.82126 0 1.27153)
(9.77901 0 1.45951)
(9.73399 0 1.65878)
(9.6868 0 1.87073)
(9.63815 0 2.09676)
(9.58881 0 2.33832)
(9.53969 0 2.59695)
(9.49181 0 2.87431)
(9.44642 0 3.17217)
(9.40501 0 3.49255)
(9.36938 0 3.83769)
(9.34185 0 4.21016)
(9.32537 0 4.61292)
(9.32387 0 5.04934)
(9.34265 0 5.52325)
(9.38895 0 6.03872)
(9.47264 0 6.59968)
(9.60691 0 7.20881)
(9.80851 0 7.86566)
(10.1001 0 8.56298)
(10.49 0 9.28588)
(11.0448 0 10.0241)
(11.8337 0 10.6645)
(9.99792 0 0.155011)
(9.99099 0 0.30812)
(9.9788 0 0.461542)
(9.96205 0 0.617283)
(9.94139 0 0.777012)
(9.91728 0 0.942237)
(9.89016 0 1.11439)
(9.86049 0 1.29486)
(9.82885 0 1.48498)
(9.79586 0 1.68605)
(9.76223 0 1.89937)
(9.72877 0 2.12624)
(9.6964 0 2.368)
(9.66619 0 2.62601)
(9.6394 0 2.90172)
(9.6175 0 3.19666)
(9.60227 0 3.51247)
(9.59587 0 3.85092)
(9.60101 0 4.21392)
(9.62105 0 4.6035)
(9.66031 0 5.02175)
(9.72429 0 5.47064)
(9.82005 0 5.95178)
(9.95651 0 6.46581)
(10.1447 0 7.01161)
(10.3975 0 7.58524)
(10.7323 0 8.17853)
(11.1603 0 8.77676)
(11.7045 0 9.36841)
(12.4528 0 9.87871)
(9.99845 0 0.157589)
(9.99329 0 0.31322)
(9.98423 0 0.469079)
(9.97187 0 0.627143)
(9.95678 0 0.789047)
(9.93944 0 0.95626)
(9.9203 0 1.13017)
(9.89989 0 1.31209)
(9.87881 0 1.5033)
(9.85776 0 1.705)
(9.83754 0 1.9184)
(9.81903 0 2.14467)
(9.80328 0 2.38497)
(9.79149 0 2.6405)
(9.78505 0 2.91243)
(9.78562 0 3.202)
(9.79516 0 3.51044)
(9.81602 0 3.83899)
(9.85107 0 4.18886)
(9.90377 0 4.56116)
(9.9784 0 4.95678)
(10.0802 0 5.37618)
(10.2154 0 5.81907)
(10.3915 0 6.28398)
(10.6174 0 6.76764)
(10.9025 0 7.26425)
(11.2582 0 7.76461)
(11.692 0 8.25318)
(12.2049 0 8.71333)
(12.8759 0 9.10367)
(9.99898 0 0.159464)
(9.99559 0 0.316916)
(9.98967 0 0.474497)
(9.98169 0 0.634141)
(9.97217 0 0.797438)
(9.96156 0 0.965805)
(9.95035 0 1.14057)
(9.93909 0 1.32297)
(9.92843 0 1.5142)
(9.91911 0 1.71537)
(9.91199 0 1.92755)
(9.90802 0 2.15178)
(9.90833 0 2.38903)
(9.91418 0 2.64028)
(9.92708 0 2.90646)
(9.94875 0 3.18844)
(9.98123 0 3.48704)
(10.0269 0 3.80298)
(10.0886 0 4.13681)
(10.1697 0 4.48881)
(10.274 0 4.85889)
(10.4062 0 5.24633)
(10.5716 0 5.64955)
(10.776 0 6.06574)
(11.0258 0 6.49041)
(11.3274 0 6.91689)
(11.6868 0 7.33584)
(12.108 0 7.73392)
(12.5849 0 8.09664)
(13.1861 0 8.40362)
(9.99951 0 0.1606)
(9.99787 0 0.319141)
(9.99507 0 0.4777)
(9.99144 0 0.638153)
(9.98742 0 0.802034)
(9.98345 0 0.970698)
(9.98003 0 1.1454)
(9.97774 0 1.3273)
(9.97724 0 1.51748)
(9.97932 0 1.71696)
(9.98485 0 1.92666)
(9.99483 0 2.14746)
(10.0104 0 2.38015)
(10.0329 0 2.62548)
(10.0639 0 2.8841)
(10.105 0 3.15655)
(10.1583 0 3.44325)
(10.226 0 3.74444)
(10.3109 0 4.06008)
(10.4158 0 4.3898)
(10.5444 0 4.73273)
(10.7002 0 5.08736)
(10.8875 0 5.45129)
(11.1105 0 5.82102)
(11.3736 0 6.19165)
(11.6803 0 6.55665)
(12.0336 0 6.90778)
(12.4348 0 7.2348)
(12.8764 0 7.52666)
(13.416 0 7.77215)
(10 0 0.16097)
(10.0001 0 0.319839)
(10.0004 0 0.478606)
(10.001 0 0.639076)
(10.0024 0 0.802717)
(10.0049 0 0.97081)
(10.0091 0 1.14453)
(10.0155 0 1.32494)
(10.0248 0 1.51303)
(10.0378 0 1.70969)
(10.0554 0 1.91569)
(10.0786 0 2.13176)
(10.1085 0 2.3585)
(10.1465 0 2.59642)
(10.194 0 2.84592)
(10.2527 0 3.10722)
(10.3244 0 3.38038)
(10.4114 0 3.66523)
(10.5158 0 3.96127)
(10.6404 0 4.26762)
(10.7878 0 4.5829)
(10.9612 0 4.9051)
(11.1634 0 5.23142)
(11.3975 0 5.55818)
(11.6659 0 5.88064)
(11.9705 0 6.19298)
(12.3121 0 6.48838)
(12.6905 0 6.75908)
(13.0979 0 6.99679)
(13.5828 0 7.19473)
(10.0005 0 0.160552)
(10.0023 0 0.318968)
(10.0056 0 0.477156)
(10.0103 0 0.636837)
(10.0169 0 0.799402)
(10.0257 0 0.966054)
(10.0372 0 1.13787)
(10.052 0 1.31584)
(10.0707 0 1.50082)
(10.094 0 1.69357)
(10.123 0 1.89474)
(10.1585 0 2.10488)
(10.2017 0 2.32441)
(10.2538 0 2.55363)
(10.3163 0 2.79269)
(10.3905 0 3.04155)
(10.4783 0 3.29997)
(10.5815 0 3.56743)
(10.7021 0 3.8431)
(10.8422 0 4.12576)
(11.0039 0 4.41372)
(11.1895 0 4.70474)
(11.401 0 4.99594)
(11.6402 0 5.28376)
(11.9084 0 5.56394)
(12.2061 0 5.83152)
(12.533 0 6.08101)
(12.8876 0 6.30657)
(13.263 0 6.50221)
(13.7006 0 6.66381)
(10.001 0 0.159331)
(10.0044 0 0.316499)
(10.0106 0 0.473309)
(10.0194 0 0.631389)
(10.031 0 0.792044)
(10.0458 0 0.956391)
(10.0642 0 1.12542)
(10.0869 0 1.3)
(10.1144 0 1.48089)
(10.1475 0 1.66872)
(10.187 0 1.86401)
(10.2339 0 2.06715)
(10.2892 0 2.27838)
(10.354 0 2.49781)
(10.4296 0 2.72539)
(10.5174 0 2.96085)
(10.6189 0 3.2037)
(10.7355 0 3.4532)
(10.869 0 3.70829)
(11.0209 0 3.96753)
(11.1929 0 4.22912)
(11.3864 0 4.49076)
(11.6027 0 4.7497)
(11.8427 0 5.00271)
(12.1068 0 5.24609)
(12.3946 0 5.47577)
(12.7052 0 5.68744)
(13.0366 0 5.87679)
(13.3827 0 6.03962)
(13.7799 0 6.17344)
(10.0015 0 0.157299)
(10.0065 0 0.312418)
(10.0153 0 0.467048)
(10.028 0 0.622715)
(10.0444 0 0.780634)
(10.0649 0 0.94183)
(10.0899 0 1.1072)
(10.12 0 1.2775)
(10.1558 0 1.45339)
(10.1978 0 1.63537)
(10.247 0 1.82383)
(10.3042 0 2.01901)
(10.3703 0 2.22102)
(10.4463 0 2.42979)
(10.5334 0 2.64509)
(10.6327 0 2.86649)
(10.7455 0 3.09333)
(10.8729 0 3.3247)
(11.0163 0 3.55941)
(11.1768 0 3.79595)
(11.3555 0 4.0325)
(11.5534 0 4.26689)
(11.771 0 4.49657)
(12.0086 0 4.71874)
(12.2661 0 4.93027)
(12.5425 0 5.12793)
(12.8365 0 5.30841)
(13.146 0 5.46858)
(13.4657 0 5.60554)
(13.828 0 5.7178)
(10.0019 0 0.154455)
(10.0084 0 0.306723)
(10.0199 0 0.458375)
(10.0361 0 0.610827)
(10.057 0 0.7652)
(10.0829 0 0.922424)
(10.114 0 1.08329)
(10.151 0 1.24848)
(10.1944 0 1.41852)
(10.2446 0 1.5938)
(10.3026 0 1.7746)
(10.3689 0 1.96102)
(10.4446 0 2.15305)
(10.5303 0 2.35049)
(10.6271 0 2.55297)
(10.736 0 2.75993)
(10.8579 0 2.9706)
(10.9937 0 3.18399)
(11.1444 0 3.39887)
(11.3107 0 3.61373)
(11.4933 0 3.82684)
(11.6927 0 4.03619)
(11.909 0 4.23956)
(12.1421 0 4.43455)
(12.3912 0 4.61861)
(12.6554 0 4.78921)
(12.9331 0 4.94385)
(13.2223 0 5.0803)
(13.5185 0 5.19656)
(13.8507 0 5.29181)
(10.0024 0 0.150805)
(10.0102 0 0.299428)
(10.0241 0 0.447313)
(10.0437 0 0.595765)
(10.0688 0 0.745805)
(10.0997 0 0.89827)
(10.1365 0 1.05386)
(10.1798 0 1.21314)
(10.23 0 1.37655)
(10.2876 0 1.54439)
(10.3534 0 1.7168)
(10.4278 0 1.89381)
(10.5117 0 2.07527)
(10.6057 0 2.26089)
(10.7106 0 2.45021)
(10.8272 0 2.64259)
(10.9562 0 2.83721)
(11.0982 0 3.03303)
(11.2539 0 3.22885)
(11.4237 0 3.42324)
(11.6079 0 3.61459)
(11.8067 0 3.80114)
(12.0198 0 3.98097)
(12.2467 0 4.15208)
(12.4867 0 4.31246)
(12.7385 0 4.46011)
(13.0006 0 4.59322)
(13.2711 0 4.71019)
(13.5463 0 4.80968)
(13.8525 0 4.89128)
(10.0027 0 0.146361)
(10.0119 0 0.290558)
(10.0281 0 0.433906)
(10.0508 0 0.577594)
(10.0798 0 0.722546)
(10.1151 0 0.869505)
(10.1571 0 1.01908)
(10.2061 0 1.17174)
(10.2625 0 1.32784)
(10.3267 0 1.48756)
(10.3992 0 1.65099)
(10.4807 0 1.81805)
(10.5715 0 1.98851)
(10.6724 0 2.16201)
(10.7839 0 2.33803)
(10.9065 0 2.51588)
(11.0408 0 2.69474)
(11.1871 0 2.87359)
(11.3459 0 3.05128)
(11.5172 0 3.2265)
(11.7012 0 3.39781)
(11.8977 0 3.56369)
(12.1062 0 3.72253)
(12.3261 0 3.87269)
(12.5565 0 4.01259)
(12.7961 0 4.14072)
(13.0435 0 4.25575)
(13.297 0 4.35655)
(13.5534 0 4.44226)
(13.8369 0 4.51272)
(10.0031 0 0.141141)
(10.0134 0 0.280151)
(10.0317 0 0.418215)
(10.0573 0 0.556405)
(10.0898 0 0.695549)
(10.1292 0 0.8363)
(10.1759 0 0.979176)
(10.2299 0 1.12457)
(10.2918 0 1.27273)
(10.3617 0 1.4238)
(10.4401 0 1.57775)
(10.5275 0 1.73445)
(10.6241 0 1.89362)
(10.7306 0 2.05484)
(10.8472 0 2.21757)
(10.9743 0 2.38112)
(11.1123 0 2.54466)
(11.2613 0 2.70725)
(11.4215 0 2.86783)
(11.5929 0 3.02521)
(11.7753 0 3.17816)
(11.9682 0 3.32536)
(12.1712 0 3.46549)
(12.3836 0 3.59726)
(12.6043 0 3.71941)
(12.8321 0 3.83083)
(13.0658 0 3.93054)
(13.3038 0 4.01779)
(13.5435 0 4.09202)
(13.8071 0 4.15323)
(10.0034 0 0.13517)
(10.0148 0 0.268256)
(10.035 0 0.400314)
(10.0632 0 0.532307)
(10.0988 0 0.664964)
(10.142 0 0.798853)
(10.1927 0 0.934411)
(10.2513 0 1.07195)
(10.3178 0 1.21166)
(10.3927 0 1.35359)
(10.4761 0 1.49767)
(10.5683 0 1.64373)
(10.6697 0 1.79143)
(10.7805 0 1.94035)
(10.9009 0 2.08993)
(11.0313 0 2.2395)
(11.1716 0 2.38829)
(11.322 0 2.53541)
(11.4824 0 2.67992)