/*--------------------------------*- C++ -*----------------------------------*\
  =========                 |
  \\      /  F ield         | OpenFOAM: The Open Source CFD Toolbox
   \\    /   O peration     | Website:  https://openfoam.org
    \\  /    A nd           | Version:  dev
     \\/     M anipulation  |
\*---------------------------------------------------------------------------*/
FoamFile
{
    version     2.0;
    format      ascii;
    class       surfaceVectorField;
    location    "2";
    object      Uf;
}
// * * * * * * * * * * * * * * * * * * * * * * * * * * * * * * * * * * * * * //

dimensions      [0 1 -1 0 0 0 0];

internalField   nonuniform List<vector> 
5457
(
(9.92088 0 0.0251115)
(9.97124 0 0.0387484)
(9.824 0 0.03283)
(9.92858 0 0.0485903)
(9.70958 0 0.0393166)
(9.85545 0 0.0587759)
(9.57539 0 0.0460176)
(9.75676 0 0.0706037)
(9.4213 0 0.0529564)
(9.63747 0 0.0830266)
(9.24744 0 0.0601753)
(9.49852 0 0.0959526)
(9.05348 0 0.0678218)
(9.33918 0 0.109632)
(8.83875 0 0.0760471)
(9.15859 0 0.124311)
(8.6023 0 0.0849846)
(8.9559 0 0.140192)
(8.343 0 0.094761)
(8.73014 0 0.157461)
(8.05953 0 0.105505)
(8.48011 0 0.176301)
(7.75044 0 0.117347)
(8.20443 0 0.19689)
(7.41415 0 0.130416)
(7.90155 0 0.219396)
(7.04904 0 0.144832)
(7.56986 0 0.243959)
(6.65352 0 0.160694)
(7.20769 0 0.270668)
(6.22616 0 0.178066)
(6.81345 0 0.299534)
(5.76583 0 0.196949)
(6.38574 0 0.330445)
(5.27195 0 0.217252)
(5.92354 0 0.36311)
(4.74473 0 0.238751)
(5.42644 0 0.396996)
(4.18554 0 0.261043)
(4.89498 0 0.431249)
(3.59732 0 0.283493)
(4.33096 0 0.464621)
(2.98492 0 0.305199)
(3.73793 0 0.495414)
(2.35552 0 0.325055)
(3.12163 0 0.521487)
(1.71856 0 0.342514)
(2.49047 0 0.540513)
(1.08388 0 0.361801)
(1.85532 0 0.551601)
(0.451526 0 0.348444)
(1.24501 0 0.562884)
(-0.145742 0 0.102412)
(0.608568 0 0.544509)
(-0.423344 0 -0.20665)
(0.0947449 0 0.259202)
(-0.401869 0 -0.360684)
(-0.133885 0 -0.0205371)
(-0.119481 0 -0.393606)
(9.9964 0 0.0516783)
(9.99705 0 0.0405099)
(9.95877 0 0.0708712)
(9.9785 0 0.0674649)
(9.89821 0 0.0880004)
(9.93375 0 0.0898856)
(9.81653 0 0.106002)
(9.86449 0 0.113576)
(9.71351 0 0.124943)
(9.77432 0 0.138541)
(9.58898 0 0.14488)
(9.66426 0 0.164679)
(9.4426 0 0.166121)
(9.53385 0 0.192371)
(9.27372 0 0.189003)
(9.38234 0 0.222076)
(9.08144 0 0.213823)
(9.20899 0 0.2542)
(8.86463 0 0.24086)
(9.01292 0 0.289122)
(8.62197 0 0.270385)
(8.79302 0 0.327216)
(8.35201 0 0.302658)
(8.54802 0 0.368854)
(8.05312 0 0.33791)
(8.27644 0 0.414388)
(7.72363 0 0.376315)
(7.97672 0 0.464119)
(7.36183 0 0.417954)
(7.64722 0 0.518262)
(6.96613 0 0.462755)
(7.28628 0 0.576876)
(6.5352 0 0.510428)
(6.89236 0 0.639789)
(6.06816 0 0.560366)
(6.46419 0 0.706482)
(5.5649 0 0.611542)
(6.00094 0 0.775951)
(5.0264 0 0.662392)
(5.50259 0 0.846548)
(4.45518 0 0.710698)
(4.97021 0 0.915809)
(3.85581 0 0.753509)
(4.40651 0 0.980283)
(3.23555 0 0.78714)
(3.81639 0 1.0354)
(2.60523 0 0.807411)
(3.20785 0 1.07539)
(1.98229 0 0.810323)
(2.59285 0 1.093)
(1.40488 0 0.776657)
(1.99572 0 1.07686)
(0.929275 0 0.646086)
(1.41909 0 0.978099)
(0.439395 0 0.38386)
(0.937219 0 0.716613)
(0.0589871 0 -0.118863)
(0.443336 0 0.343249)
(0.174824 0 -0.335831)
(9.98902 0 0.0594407)
(9.99481 0 0.0458854)
(9.95432 0 0.0894928)
(9.97367 0 0.0848698)
(9.89726 0 0.118055)
(9.92982 0 0.119197)
(9.82041 0 0.147928)
(9.86353 0 0.154007)
(9.72409 0 0.179459)
(9.7773 0 0.190448)
(9.60811 0 0.21282)
(9.67218 0 0.228685)
(9.47221 0 0.248445)
(9.54798 0 0.269187)
(9.3159 0 0.286834)
(9.40416 0 0.312563)
(9.13847 0 0.328465)
(9.24015 0 0.359401)
(8.93899 0 0.373797)
(9.05525 0 0.410258)
(8.71634 0 0.423287)
(8.84861 0 0.46569)
(8.46924 0 0.477381)
(8.61918 0 0.52625)
(8.19627 0 0.536486)
(8.36578 0 0.592474)
(7.89587 0 0.600929)
(8.08709 0 0.664841)
(7.56642 0 0.670895)
(7.78173 0 0.743719)
(7.20629 0 0.746335)
(7.44822 0 0.829286)
(6.81399 0 0.826851)
(7.08513 0 0.921406)
(6.38826 0 0.911537)
(6.69112 0 1.01948)
(5.9284 0 0.998794)
(6.26511 0 1.12223)
(5.4345 0 1.08611)
(5.8065 0 1.22745)
(4.90791 0 1.16981)
(5.31546 0 1.33175)
(4.3518 0 1.24484)
(4.79337 0 1.43015)
(3.772 0 1.30446)
(4.24339 0 1.5158)
(3.17818 0 1.3397)
(3.67127 0 1.57929)
(2.58614 0 1.33792)
(3.08583 0 1.60755)
(2.01942 0 1.2727)
(2.50248 0 1.58132)
(1.48653 0 1.09512)
(1.92835 0 1.46392)
(0.958027 0 0.768947)
(1.38491 0 1.21009)
(0.479614 0 0.20231)
(0.829306 0 0.800758)
(0.433497 0 0.133921)
(9.98515 0 0.0716277)
(9.99367 0 0.0531585)
(9.95037 0 0.113653)
(9.97086 0 0.102312)
(9.89433 0 0.154165)
(9.92688 0 0.147985)
(9.81877 0 0.195614)
(9.86181 0 0.193763)
(9.72434 0 0.238862)
(9.7774 0 0.24133)
(9.61102 0 0.284386)
(9.67458 0 0.291228)
(9.4786 0 0.332792)
(9.55331 0 0.344032)
(9.32677 0 0.384756)
(9.4132 0 0.40046)
(9.15501 0 0.440939)
(9.2538 0 0.461239)
(8.96265 0 0.501985)
(9.07459 0 0.527071)
(8.74886 0 0.568536)
(8.87491 0 0.598656)
(8.51269 0 0.641226)
(8.65396 0 0.676689)
(8.25306 0 0.720647)
(8.41084 0 0.761852)
(7.96881 0 0.807307)
(8.14457 0 0.854769)
(7.65869 0 0.901549)
(7.85407 0 0.955948)
(7.3214 0 1.00345)
(7.53824 0 1.06569)
(6.95566 0 1.11266)
(7.19592 0 1.18396)
(6.56027 0 1.22821)
(6.82596 0 1.31017)
(6.1343 0 1.34821)
(6.42731 0 1.44298)
(5.67725 0 1.46961)
(5.99908 0 1.57993)
(5.18941 0 1.58775)
(5.54076 0 1.71707)
(4.6723 0 1.69596)
(5.05249 0 1.84848)
(4.12926 0 1.78502)
(4.53543 0 1.96572)
(3.56616 0 1.84234)
(3.99223 0 2.05713)
(2.99161 0 1.85047)
(3.42715 0 2.1069)
(2.41545 0 1.78217)
(2.84724 0 2.09417)
(1.84021 0 1.60011)
(2.25589 0 1.98836)
(1.25914 0 1.2781)
(1.66003 0 1.75264)
(0.666621 0 0.789268)
(1.02378 0 1.36738)
(0.522908 0 0.786835)
(9.98337 0 0.0844252)
(9.99316 0 0.0613047)
(9.94819 0 0.136866)
(9.96957 0 0.119953)
(9.89311 0 0.188073)
(9.92572 0 0.176279)
(9.81901 0 0.240222)
(9.86195 0 0.23275)
(9.72655 0 0.294533)
(9.77957 0 0.291153)
(9.61579 0 0.351738)
(9.6793 0 0.352354)
(9.48657 0 0.412562)
(9.56115 0 0.417072)
(9.3386 0 0.477781)
(9.4248 0 0.486118)
(9.17148 0 0.548167)
(9.26988 0 0.560328)
(8.98465 0 0.624482)
(9.09595 0 0.640523)
(8.77747 0 0.70748)
(8.90244 0 0.727515)
(8.54917 0 0.797906)
(8.68872 0 0.822112)
(8.29894 0 0.896471)
(8.45404 0 0.925101)
(8.02589 0 1.0038)
(8.19763 0 1.03722)
(7.72908 0 1.12034)
(7.91863 0 1.15907)
(7.40752 0 1.24629)
(7.61616 0 1.29107)
(7.06021 0 1.38138)
(7.28929 0 1.43327)
(6.68612 0 1.52467)
(6.93705 0 1.58521)
(6.28427 0 1.67424)
(6.55839 0 1.74557)
(5.8538 0 1.8268)
(6.15228 0 1.91191)
(5.39414 0 1.97722)
(5.71764 0 2.08015)
(4.90522 0 2.11796)
(5.25352 0 2.24401)
(4.38775 0 2.23845)
(4.75922 0 2.39447)
(3.84349 0 2.32432)
(4.23448 0 2.51898)
(3.27504 0 2.35665)
(3.67947 0 2.60095)
(2.68505 0 2.31022)
(3.09536 0 2.61934)
(2.0724 0 2.15459)
(2.48139 0 2.54689)
(1.42916 0 1.86697)
(1.83968 0 2.35325)
(0.742494 0 1.41917)
(1.13121 0 2.02405)
(0.543208 0 1.51406)
(9.98263 0 0.0975195)
(9.99299 0 0.0698089)
(9.94742 0 0.159811)
(9.96924 0 0.137615)
(9.89351 0 0.221398)
(9.92594 0 0.203974)
(9.82128 0 0.284157)
(9.86376 0 0.270751)
(9.73126 0 0.349428)
(9.78379 0 0.339662)
(9.62355 0 0.418115)
(9.68655 0 0.411794)
(9.49804 0 0.49105)
(9.57205 0 0.488017)
(9.35446 0 0.569102)
(9.44004 0 0.569236)
(9.19246 0 0.653147)
(9.29021 0 0.656383)
(9.01155 0 0.744053)
(9.12216 0 0.750378)
(8.81118 0 0.842682)
(8.9354 0 0.852134)
(8.5907 0 0.949882)
(8.72936 0 0.962554)
(8.34942 0 1.06646)
(8.50339 0 1.08251)
(8.08658 0 1.19313)
(8.25681 0 1.21284)
(7.8014 0 1.33047)
(7.98885 0 1.35423)
(7.49303 0 1.47874)
(7.69873 0 1.5072)
(7.1606 0 1.63781)
(7.38557 0 1.67191)
(6.80312 0 1.80684)
(7.0484 0 1.84803)
(6.4195 0 1.98402)
(6.68612 0 2.03443)
(6.00853 0 2.16614)
(6.29738 0 2.22886)
(5.56883 0 2.34805)
(5.88058 0 2.42745)
(5.09892 0 2.52209)
(5.43376 0 2.62416)
(4.59726 0 2.67737)
(4.95458 0 2.81012)
(4.06227 0 2.79922)
(4.44038 0 2.97297)
(3.49233 0 2.86876)
(3.88811 0 3.09629)
(2.88552 0 2.8625)
(3.29489 0 3.15948)
(2.23777 0 2.75345)
(2.65663 0 3.13742)
(1.54226 0 2.52052)
(1.97464 0 3.00266)
(0.793555 0 2.13084)
(1.20712 0 2.74005)
(0.556659 0 2.2913)
(9.9825 0 0.110652)
(9.99301 0 0.0783804)
(9.94769 0 0.182367)
(9.96953 0 0.155074)
(9.89519 0 0.253877)
(9.9272 0 0.230941)
(9.82518 0 0.326845)
(9.86692 0 0.307583)
(9.73805 0 0.402651)
(9.78971 0 0.386616)
(9.63392 0 0.482349)
(9.69595 0 0.469262)
(9.5127 0 0.566892)
(9.58565 0 0.556533)
(9.37418 0 0.657246)
(9.45862 0 0.649427)
(9.21803 0 0.754384)
(9.31458 0 0.748964)
(9.04384 0 0.859271)
(9.15318 0 0.856157)
(8.85109 0 0.972861)
(8.974 0 0.972012)
(8.63921 0 1.09609)
(8.77651 0 1.09752)
(8.40756 0 1.22985)
(8.56013 0 1.23365)
(8.15543 0 1.37496)
(8.32418 0 1.3813)
(7.88208 0 1.53206)
(8.06796 0 1.5413)
(7.58666 0 1.70155)
(7.79064 0 1.71425)
(7.26826 0 1.88344)
(7.4913 0 1.90048)
(6.92577 0 2.07707)
(7.16886 0 2.09983)
(6.55785 0 2.28091)
(6.82196 0 2.31147)
(6.16283 0 2.49205)
(6.4489 0 2.53351)
(5.73852 0 2.70576)
(6.04743 0 2.7626)
(5.28216 0 2.91484)
(5.61461 0 2.99333)
(4.79033 0 3.10892)
(5.14667 0 3.21763)
(4.25886 0 3.27388)
(4.63889 0 3.42396)
(3.68303 0 3.39145)
(4.08564 0 3.59675)
(3.05776 0 3.4392)
(3.48099 0 3.71606)
(2.37752 0 3.39125)
(2.81812 0 3.75757)
(1.63776 0 3.22559)
(2.09898 0 3.69338)
(0.839056 0 2.90027)
(1.27883 0 3.50385)
(0.5733 0 3.1131)
(9.98273 0 0.123612)
(9.99316 0 0.0868394)
(9.94871 0 0.20436)
(9.97025 0 0.172136)
(9.89791 0 0.285322)
(9.92924 0 0.25704)
(9.83045 0 0.368056)
(9.87119 0 0.343074)
(9.74662 0 0.453964)
(9.79708 0 0.431788)
(9.64656 0 0.544212)
(9.70724 0 0.524484)
(9.53022 0 0.639865)
(9.60166 0 0.622293)
(9.39741 0 0.74198)
(9.48019 0 0.726308)
(9.24787 0 0.851616)
(9.34262 0 0.837631)
(9.08121 0 0.969826)
(9.18864 0 0.957361)
(8.89699 0 1.09765)
(9.01788 0 1.08659)
(8.69466 0 1.23613)
(8.82987 0 1.2264)
(8.47363 0 1.38623)
(8.62406 0 1.37785)
(8.2332 0 1.54887)
(8.39981 0 1.54195)
(7.97261 0 1.72483)
(8.1564 0 1.71963)
(7.69095 0 1.91464)
(7.89296 0 1.91166)
(7.38715 0 2.11851)
(7.60848 0 2.11855)
(7.0599 0 2.33607)
(7.30166 0 2.34044)
(6.70748 0 2.56617)
(6.97087 0 2.57684)
(6.32765 0 2.80646)
(6.61394 0 2.82644)
(5.91742 0 3.05294)
(6.22796 0 3.08662)
(5.47283 0 3.29933)
(5.80904 0 3.353)
(4.98875 0 3.53636)
(5.35202 0 3.6187)
(4.45887 0 3.75102)
(4.85033 0 3.87361)
(3.87585 0 3.92599)
(4.29598 0 4.10346)
(3.23205 0 4.0393)
(3.68021 0 4.28912)
(2.52064 0 4.06437)
(2.99328 0 4.40614)
(1.73826 0 3.97549)
(2.23723 0 4.42391)
(0.889416 0 3.71811)
(1.36329 0 4.3156)
(0.598711 0 3.98423)
(9.9832 0 0.136238)
(9.99339 0 0.0950655)
(9.9503 0 0.22563)
(9.9713 0 0.188639)
(9.90147 0 0.315578)
(9.9319 0 0.282123)
(9.83688 0 0.407608)
(9.87638 0 0.377059)
(9.75675 0 0.503143)
(9.80571 0 0.474966)
(9.66122 0 0.603433)
(9.72019 0 0.577203)
(9.55029 0 0.709642)
(9.6198 0 0.684996)
(9.42381 0 0.82291)
(9.50445 0 0.799527)
(9.28156 0 0.944379)
(9.37397 0 0.921973)
(9.12322 0 1.07519)
(9.22812 0 1.05351)
(8.94839 0 1.21646)
(9.06657 0 1.19532)
(8.75658 0 1.36933)
(8.88893 0 1.34858)
(8.54722 0 1.53487)
(8.69468 0 1.51443)
(8.31964 0 1.71412)
(8.48322 0 1.69402)
(8.07303 0 1.908)
(8.25383 0 1.8884)
(7.80641 0 2.11725)
(8.00562 0 2.09854)
(7.51855 0 2.34234)
(7.73745 0 2.32519)
(7.20787 0 2.58327)
(7.44788 0 2.56885)
(6.87228 0 2.83943)
(7.13498 0 2.82954)
(6.50897 0 3.10922)
(6.79613 0 3.10663)
(6.11411 0 3.38965)
(6.42782 0 3.39851)
(5.6826 0 3.67576)
(6.02523 0 3.70207)
(5.20776 0 3.95984)
(5.58195 0 4.01214)
(4.68113 0 4.23051)
(5.08959 0 4.3205)
(4.09278 0 4.47174)
(4.53766 0 4.61481)
(3.43213 0 4.66189)
(3.91423 0 4.87719)
(2.68987 0 4.77245)
(3.20535 0 5.08284)
(1.86169 0 4.77167)
(2.41107 0 5.19719)
(0.954109 0 4.589)
(1.47619 0 5.18353)
(0.639147 0 4.91872)
(9.98385 0 0.148409)
(9.99368 0 0.102972)
(9.95233 0 0.246037)
(9.97259 0 0.20445)
(9.90575 0 0.344492)
(9.93507 0 0.306054)
(9.84431 0 0.445319)
(9.88236 0 0.409383)
(9.76823 0 0.54996)
(9.81544 0 0.515959)
(9.67766 0 0.659738)
(9.73459 0 0.627186)
(9.57263 0 0.775898)
(9.63983 0 0.744366)
(9.45304 0 0.899658)
(9.53108 0 0.868757)
(9.31872 0 1.03224)
(9.40826 0 1.00161)
(9.16942 0 1.17485)
(9.27118 0 1.14418)
(9.00479 0 1.32871)
(9.11958 0 1.29771)
(8.82441 0 1.49504)
(8.95312 0 1.46348)
(8.62776 0 1.67504)
(8.77137 0 1.64273)
(8.41418 0 1.86987)
(8.57377 0 1.83672)
(8.18287 0 2.08063)
(8.35964 0 2.0467)
(7.93279 0 2.30832)
(8.12807 0 2.27381)
(7.66261 0 2.55371)
(7.87791 0 2.51914)
(7.37052 0 2.81732)
(7.60759 0 2.78359)
(7.05411 0 3.09916)
(7.31498 0 3.06779)
(6.71008 0 3.39859)
(6.99718 0 3.37196)
(6.33389 0 3.71389)
(6.65017 0 3.69565)
(5.9194 0 4.04178)
(6.26842 0 4.03739)
(5.4584 0 4.37661)
(5.8444 0 4.39409)
(4.94031 0 4.7093)
(5.36799 0 4.76014)
(4.3521 0 5.02583)
(4.82604 0 5.12602)
(3.67912 0 5.3054)
(4.20259 0 5.47623)
(2.9072 0 5.51734)
(3.4775 0 5.78657)
(2.02749 0 5.62217)
(2.64481 0 6.01859)
(1.04503 0 5.52865)
(1.63764 0 6.12306)
(0.704441 0 5.94227)
(9.98464 0 0.160026)
(9.99402 0 0.110494)
(9.95471 0 0.265456)
(9.97407 0 0.219463)
(9.91061 0 0.371925)
(9.93865 0 0.328707)
(9.8526 0 0.481021)
(9.88899 0 0.439904)
(9.7809 0 0.594215)
(9.8261 0 0.554595)
(9.69567 0 0.712886)
(9.75026 0 0.674223)
(9.59697 0 0.838348)
(9.6615 0 0.800153)
(9.48477 0 0.971891)
(9.55981 0 0.93371)
(9.35896 0 1.1148)
(9.44514 0 1.07621)
(9.21934 0 1.26837)
(9.3174 0 1.22896)
(9.06566 0 1.43388)
(9.1764 0 1.3933)
(8.89756 0 1.61266)
(9.02188 0 1.57056)
(8.71457 0 1.80602)
(8.85348 0 1.7621)
(8.51612 0 2.01527)
(8.67074 0 1.96932)
(8.30144 0 2.24172)
(8.47303 0 2.19361)
(8.06949 0 2.48662)
(8.25954 0 2.43638)
(7.8189 0 2.75115)
(8.02912 0 2.69903)
(7.54779 0 3.03635)
(7.78022 0 2.98292)
(7.25356 0 3.34304)
(7.51068 0 3.28935)
(6.93258 0 3.67163)
(7.2175 0 3.6195)
(6.57986 0 4.02195)
(6.89643 0 3.97425)
(6.18845 0 4.39276)
(6.54157 0 4.35403)
(5.74885 0 4.78108)
(6.14462 0 4.75831)
(5.24834 0 5.18103)
(5.69411 0 5.18488)
(4.67033 0 5.58198)
(5.17429 0 5.62837)
(3.99449 0 5.96563)
(4.56451 0 6.07782)
(3.19819 0 6.30076)
(3.83599 0 6.51254)
(2.26169 0 6.53975)
(2.9707 0 6.89302)
(1.18061 0 6.56425)
(1.87917 0 7.15691)
(0.812845 0 7.0986)
(9.98553 0 0.171013)
(9.9944 0 0.117582)
(9.95736 0 0.283782)
(9.97571 0 0.233589)
(9.91596 0 0.397753)
(9.94255 0 0.349974)
(9.86162 0 0.514565)
(9.89618 0 0.468494)
(9.79458 0 0.635726)
(9.83756 0 0.590721)
(9.71502 0 0.762659)
(9.767 0 0.718132)
(9.62304 0 0.896738)
(9.68458 0 0.852141)
(9.51868 0 1.03931)
(9.59032 0 0.994128)
(9.40188 0 1.19173)
(9.48426 0 1.14546)
(9.27252 0 1.35533)
(9.36635 0 1.30751)
(9.13044 0 1.5315)
(9.23652 0 1.48166)
(8.97536 0 1.72163)
(9.09458 0 1.66934)
(8.80694 0 1.92715)
(8.94029 0 1.87199)
(8.62466 0 2.14953)
(8.7733 0 2.09112)
(8.42786 0 2.39026)
(8.59311 0 2.32829)
(8.21561 0 2.6509)
(8.39901 0 2.58515)
(7.98659 0 2.93302)
(8.19002 0 2.86343)
(7.73899 0 3.23826)
(7.96472 0 3.16496)
(7.47024 0 3.56825)
(7.72112 0 3.49172)
(7.17671 0 3.92462)
(7.45638 0 3.84587)
(6.85328 0 4.30888)
(7.16644 0 4.22972)
(6.49268 0 4.72219)
(6.84549 0 4.64574)
(6.08465 0 5.16486)
(6.4852 0 5.09638)
(5.61475 0 5.63543)
(6.07356 0 5.58362)
(5.06291 0 6.12877)
(5.59311 0 6.10799)
(4.4018 0 6.6326)
(5.01898 0 6.6663)
(3.59598 0 7.12002)
(4.31227 0 7.24717)
(2.60438 0 7.53955)
(3.43572 0 7.81889)
(1.39443 0 7.73957)
(2.25672 0 8.31399)
(1.00282 0 8.46436)
(9.9865 0 0.181308)
(9.9948 0 0.124195)
(9.96024 0 0.300924)
(9.97746 0 0.246757)
(9.92172 0 0.421864)
(9.94673 0 0.369763)
(9.87126 0 0.54582)
(9.90382 0 0.495043)
(9.80912 0 0.674335)
(9.84968 0 0.624204)
(9.73552 0 0.808871)
(9.78465 0 0.758753)
(9.65059 0 0.950847)
(9.70884 0 0.900142)
(9.55444 0 1.10166)
(9.62233 0 1.04979)
(9.44707 0 1.26271)
(9.52523 0 1.20912)
(9.32847 0 1.43539)
(9.41758 0 1.37953)
(9.19855 0 1.62115)
(9.29939 0 1.56247)
(9.05716 0 1.82144)
(9.17058 0 1.7594)
(8.90405 0 2.03782)
(9.03105 0 1.97187)
(8.73888 0 2.27187)
(8.88057 0 2.20148)
(8.56111 0 2.52529)
(8.71883 0 2.44995)
(8.36999 0 2.7999)
(8.54531 0 2.71911)
(8.16441 0 3.09767)
(8.35926 0 3.011)
(7.9428 0 3.42081)
(8.15957 0 3.32789)
(7.70288 0 3.77176)
(7.94461 0 3.67238)
(7.44136 0 4.15335)
(7.71202 0 4.04755)
(7.15352 0 4.56883)
(7.45837 0 4.45708)
(6.83249 0 5.02196)
(7.17866 0 4.90545)
(6.46823 0 5.51684)
(6.86551 0 5.39819)
(6.04588 0 6.05764)
(6.5079 0 5.94202)
(5.54322 0 6.64742)
(6.08889 0 6.54485)
(4.92661 0 7.28551)
(5.58235 0 7.21517)
(4.14496 0 7.95992)
(4.94224 0 7.95978)
(3.12209 0 8.6323)
(4.1096 0 8.77397)
(1.75668 0 9.12707)
(2.87919 0 9.61975)
(1.36534 0 10.1849)
(9.98753 0 0.19086)
(9.99522 0 0.130303)
(9.9633 0 0.316808)
(9.97931 0 0.258909)
(9.92781 0 0.444166)
(9.95112 0 0.387996)
(9.8814 0 0.574677)
(9.91182 0 0.519458)
(9.82437 0 0.709915)
(9.86234 0 0.654936)
(9.75696 0 0.851372)
(9.80303 0 0.795957)
(9.67936 0 1.0005)
(9.73406 0 0.944004)
(9.59172 0 1.15874)
(9.65556 0 1.10053)
(9.49414 0 1.32752)
(9.56771 0 1.26697)
(9.38669 0 1.50828)
(9.47065 0 1.44478)
(9.26939 0 1.7025)
(9.36446 0 1.63542)
(9.14221 0 1.91172)
(9.24922 0 1.84041)
(9.00506 0 2.13755)
(9.12494 0 2.06135)
(8.85776 0 2.3817)
(8.99159 0 2.29991)
(8.69998 0 2.64602)
(8.84905 0 2.55792)
(8.53124 0 2.93257)
(8.69706 0 2.83738)
(8.35074 0 3.24366)
(8.5352 0 3.14057)
(8.15733 0 3.58196)
(8.36278 0 3.47009)
(7.94928 0 3.95065)
(8.17874 0 3.82905)
(7.72405 0 4.35362)
(7.98152 0 4.22125)
(7.4779 0 4.79572)
(7.76876 0 4.6515)
(7.20531 0 5.28314)
(7.53697 0 5.12597)
(6.89789 0 5.82386)
(7.28096 0 5.65289)
(6.54273 0 6.42826)
(6.99277 0 6.2434)
(6.11911 0 7.10978)
(6.65971 0 6.91303)
(5.59233 0 7.88565)
(6.26128 0 7.68407)
(4.90088 0 8.77586)
(5.75711 0 8.59015)
(3.92763 0 9.79989)
(5.08794 0 9.68271)
(2.43437 0 10.8563)
(3.9813 0 11.0478)
(2.14793 0 12.5692)
(9.98861 0 0.19963)
(9.99567 0 0.135882)
(9.9665 0 0.331373)
(9.98122 0 0.269999)
(9.93415 0 0.464577)
(9.95567 0 0.404612)
(9.89194 0 0.601029)
(9.9201 0 0.541666)
(9.84018 0 0.742327)
(9.87542 0 0.682827)
(9.77915 0 0.889987)
(9.82201 0 0.82964)
(9.70908 0 1.04549)
(9.76008 0 0.983607)
(9.6302 0 1.21029)
(9.68982 0 1.1462)
(9.54267 0 1.38584)
(9.6115 0 1.31887)
(9.44668 0 1.57362)
(9.52532 0 1.50308)
(9.34234 0 1.77512)
(9.4315 0 1.70031)
(9.22978 0 1.99193)
(9.33023 0 1.91211)
(9.10907 0 2.22571)
(9.2217 0 2.1401)
(8.98022 0 2.47825)
(9.10605 0 2.386)
(8.84318 0 2.7515)
(8.9834 0 2.6517)
(8.69776 0 3.0477)
(8.85382 0 2.9393)
(8.54361 0 3.36939)
(8.71726 0 3.25122)
(8.38014 0 3.71959)
(8.57357 0 3.59027)
(8.2064 0 4.10201)
(8.42242 0 3.95987)
(8.02094 0 4.5213)
(8.26324 0 4.36428)
(7.82159 0 4.98349)
(8.09514 0 4.80896)
(7.60508 0 5.49662)
(7.91679 0 5.30112)
(7.36642 0 6.07174)
(7.72621 0 5.85063)
(7.09773 0 6.72451)
(7.52059 0 6.47141)
(6.78592 0 7.47814)
(7.29575 0 7.18402)
(6.40753 0 8.36946)
(7.04632 0 8.02089)
(5.91566 0 9.46308)
(6.76229 0 9.03857)
(5.19777 0 10.9058)
(6.46306 0 10.353)
(3.88773 0 13.1795)
(6.19482 0 12.3006)
(5.27062 0 16.377)
(0.318981 0 -0.216605)
(0.175185 0 -0.312422)
(0.607754 0 -0.181212)
(0.420276 0 -0.276155)
(0.856124 0 -0.149056)
(0.668442 0 -0.231909)
(1.07083 0 -0.123949)
(0.891642 0 -0.195736)
(1.25854 0 -0.104327)
(1.0844 0 -0.167088)
(1.42405 0 -0.0885926)
(1.25234 0 -0.14385)
(1.57098 0 -0.0757017)
(1.40107 0 -0.124679)
(1.702 0 -0.0648591)
(1.53411 0 -0.108555)
(1.81873 0 -0.055372)
(1.65349 0 -0.0944386)
(1.92168 0 -0.0467438)
(1.76023 0 -0.0813139)
(2.0107 0 -0.0388263)
(1.85441 0 -0.0686514)
(2.08612 0 -0.031699)
(1.93563 0 -0.0567952)
(2.14901 0 -0.0253076)
(2.00416 0 -0.0462362)
(2.19972 0 -0.019341)
(2.06155 0 -0.0364005)
(2.23685 0 -0.0135455)
(2.10835 0 -0.0260225)
(2.26026 0 -0.00736203)
(2.14271 0 -0.016021)
(2.27276 0 -2.69328e-05)
(2.16546 0 -0.0083534)
(2.2768 0 0.00641199)
(2.17921 0 -0.00263487)
(2.27345 0 0.00859172)
(2.17668 0 0.00213013)
(2.26633 0 0.0055374)
(2.15681 0 0.00443408)
(2.26213 0 -0.00201497)
(2.12252 0 0.00254829)
(2.26526 0 -0.0121486)
(2.07971 0 -0.00185404)
(2.27726 0 -0.0222512)
(2.0347 0 -0.00694626)
(2.2968 0 -0.029823)
(1.99313 0 -0.0110499)
(2.32131 0 -0.0333413)
(1.96014 0 -0.013523)
(2.34972 0 -0.0330931)
(1.94064 0 -0.015312)
(2.38418 0 -0.0311652)
(1.93987 0 -0.0181289)
(2.42967 0 -0.029362)
(1.95374 0 -0.0233698)
(2.49209 0 -0.0274109)
(1.99014 0 -0.0313061)
(2.0815 0 -0.0398484)
(0.253433 0 -0.431494)
(0.118703 0 -0.560644)
(0.50093 0 -0.376837)
(0.329627 0 -0.512838)
(0.719417 0 -0.317635)
(0.52723 0 -0.435914)
(0.910319 0 -0.26909)
(0.707739 0 -0.369776)
(1.0788 0 -0.230434)
(0.864216 0 -0.317061)
(1.2289 0 -0.199097)
(1.00086 0 -0.274299)
(1.36355 0 -0.173174)
(1.12157 0 -0.238941)
(1.48494 0 -0.151068)
(1.22881 0 -0.209135)
(1.59451 0 -0.131205)
(1.3242 0 -0.18308)
(1.69263 0 -0.112361)
(1.4088 0 -0.158814)
(1.77874 0 -0.0943862)
(1.48291 0 -0.135057)
(1.85269 0 -0.0779571)
(1.54515 0 -0.112479)
(1.91586 0 -0.0627069)
(1.59384 0 -0.0926845)
(1.96998 0 -0.0465254)
(1.63205 0 -0.0752499)
(2.0134 0 -0.0306461)
(1.66422 0 -0.056451)
(2.04633 0 -0.0200127)
(1.6816 0 -0.0385587)
(2.071 0 -0.0147853)
(1.65878 0 -0.0248366)
(2.07674 0 -0.0102531)
(1.6108 0 -0.00638122)
(2.05802 0 -0.00484852)
(1.55004 0 0.0140553)
(2.01019 0 -0.000296975)
(1.47521 0 0.0341796)
(1.93768 0 0.0028784)
(1.38584 0 0.046585)
(1.84771 0 0.00532104)
(1.28723 0 0.051491)
(1.75005 0 0.00748584)
(1.18674 0 0.0495882)
(1.65631 0 0.00870604)
(1.09341 0 0.0419344)
(1.5787 0 0.0070035)
(1.01701 0 0.0293083)
(1.52807 0 0.00163069)
(0.968234 0 0.0119681)
(1.50402 0 -0.00648928)
(0.949127 0 -0.00547177)
(1.51081 0 -0.0187802)
(0.968441 0 -0.0268576)
(1.56013 0 -0.0369611)
(1.01958 0 -0.0560431)
(1.14539 0 -0.0888809)
(0.187414 0 -0.653374)
(0.0741933 0 -0.744204)
(0.368358 0 -0.582781)
(0.230126 0 -0.685876)
(0.527628 0 -0.498205)
(0.356927 0 -0.584628)
(0.666469 0 -0.426538)
(0.476702 0 -0.496352)
(0.787736 0 -0.368381)
(0.577097 0 -0.425005)
(0.893837 0 -0.320606)
(0.66228 0 -0.366512)
(0.986733 0 -0.280735)
(0.734064 0 -0.317771)
(1.06794 0 -0.246659)
(0.793563 0 -0.276415)
(1.13871 0 -0.216083)
(0.841507 0 -0.240334)
(1.19946 0 -0.18665)
(0.878999 0 -0.206799)
(1.24894 0 -0.157692)
(0.908126 0 -0.173214)
(1.2852 0 -0.13186)
(0.927402 0 -0.139782)
(1.3097 0 -0.112705)
(0.927677 0 -0.110699)
(1.32826 0 -0.0977546)
(0.900926 0 -0.0885757)
(1.33057 0 -0.0774563)
(0.839624 0 -0.0580724)
(1.29043 0 -0.0470111)
(0.774182 0 -0.0110869)
(1.19827 0 -0.0123559)
(0.69493 0 0.0367433)
(1.08272 0 0.0227537)
(0.592132 0 0.0690039)
(0.963544 0 0.0558797)
(0.490183 0 0.0899682)
(0.846719 0 0.0804125)
(0.390486 0 0.106838)
(0.73221 0 0.0932587)
(0.293683 0 0.116121)
(0.624434 0 0.0945545)
(0.204685 0 0.115393)
(0.529331 0 0.0853167)
(0.128097 0 0.104644)
(0.453663 0 0.0668246)
(0.069127 0 0.0847043)
(0.403983 0 0.0399989)
(0.0329657 0 0.0567264)
(0.384967 0 0.00951969)
(0.0249177 0 0.0222146)
(0.406841 0 -0.0216172)
(0.0343994 0 -0.0169801)
(0.471758 0 -0.0622793)
(0.0902843 0 -0.0602053)
(0.581997 0 -0.110057)
(0.164502 0 -0.111335)
(0.278808 0 -0.152481)
(0.120531 0 -0.794764)
(0.0334883 0 -0.862257)
(0.227099 0 -0.706408)
(0.124304 0 -0.787787)
(0.316641 0 -0.601693)
(0.171512 0 -0.668235)
(0.392123 0 -0.513045)
(0.222566 0 -0.565166)
(0.454384 0 -0.440166)
(0.256719 0 -0.480426)
(0.504072 0 -0.379452)
(0.279725 0 -0.409696)
(0.541848 0 -0.32811)
(0.291152 0 -0.349828)
(0.567993 0 -0.284048)
(0.290361 0 -0.298077)
(0.583622 0 -0.245313)
(0.27618 0 -0.252979)
(0.590158 0 -0.209406)
(0.247938 0 -0.211961)
(0.587017 0 -0.173435)
(0.207481 0 -0.170792)
(0.568165 0 -0.134461)
(0.156472 0 -0.125586)
(0.517163 0 -0.089439)
(0.0872158 0 -0.0732015)
(0.417281 0 -0.0373369)
(-0.000572511 0 -0.0168754)
(0.287303 0 0.0180498)
(-0.103932 0 0.0330284)
(0.174647 0 0.0668082)
(-0.204619 0 0.0660082)
(0.0847119 0 0.101054)
(-0.282501 0 0.0968355)
(-0.00176513 0 0.122741)
(-0.360905 0 0.125421)
(-0.0884325 0 0.137298)
(-0.434636 0 0.145174)
(-0.168556 0 0.14533)
(-0.501931 0 0.15667)
(-0.23828 0 0.143996)
(-0.560268 0 0.158461)
(-0.294403 0 0.132069)
(-0.606205 0 0.148669)
(-0.33359 0 0.109855)
(-0.637532 0 0.12733)
(-0.353148 0 0.0785651)
(-0.652382 0 0.0957591)
(-0.352219 0 0.0400921)
(-0.649095 0 0.0562138)
(-0.331749 0 -0.00488835)
(-0.628566 0 0.0111841)
(-0.288904 0 -0.0558222)
(-0.599664 0 -0.039522)
(-0.223428 0 -0.109226)
(-0.547075 0 -0.0938399)
(-0.15456 0 -0.156524)
(-0.494554 0 -0.145877)
(-0.446542 0 -0.181799)
(0.0466362 0 -0.864945)
(-0.0084744 0 -0.907934)
(0.073772 0 -0.75881)
(0.00905975 0 -0.813737)
(0.0873677 0 -0.639597)
(-0.0257447 0 -0.680929)
(0.092055 0 -0.539352)
(-0.0496553 0 -0.56944)
(0.0860955 0 -0.455413)
(-0.0878431 0 -0.475121)
(0.0695511 0 -0.384122)
(-0.134133 0 -0.395317)
(0.0415584 0 -0.32184)
(-0.189678 0 -0.326074)
(0.000507346 0 -0.265706)
(-0.254826 0 -0.264064)
(-0.0562297 0 -0.213399)
(-0.329931 0 -0.20708)
(-0.130548 0 -0.161812)
(-0.415177 0 -0.15326)
(-0.221246 0 -0.108065)
(-0.509499 0 -0.100844)
(-0.325152 0 -0.0518095)
(-0.61066 0 -0.0473457)
(-0.430936 0 0.00240352)
(-0.709682 0 0.00457231)
(-0.519447 0 0.046388)
(-0.798223 0 0.0466621)
(-0.590448 0 0.0796524)
(-0.867987 0 0.0827928)
(-0.663122 0 0.109758)
(-0.937604 0 0.115742)
(-0.733622 0 0.13842)
(-1.00224 0 0.143942)
(-0.796927 0 0.160403)
(-1.0607 0 0.166721)
(-0.852922 0 0.172626)
(-1.11086 0 0.180843)
(-0.898832 0 0.174805)
(-1.1512 0 0.185223)
(-0.932167 0 0.165797)
(-1.1803 0 0.178704)
(-0.951926 0 0.14507)
(-1.19729 0 0.160385)
(-0.957823 0 0.113533)
(-1.20216 0 0.130743)
(-0.950394 0 0.073305)
(-1.19524 0 0.0915603)
(-0.931282 0 0.0269397)
(-1.17732 0 0.0456662)
(-0.901032 0 -0.0248801)
(-1.15186 0 -0.00511607)
(-0.863389 0 -0.0803091)
(-1.11807 0 -0.0593271)
(-0.822674 0 -0.133376)
(-1.08154 0 -0.114755)
(-0.786062 0 -0.176049)
(-1.05209 0 -0.164241)
(-1.03594 0 -0.200119)
(-0.0337485 0 -0.854751)
(-0.0551167 0 -0.87488)
(-0.0882452 0 -0.73203)
(-0.114493 0 -0.761622)
(-0.152265 0 -0.603773)
(-0.22735 0 -0.621153)
(-0.223837 0 -0.495977)
(-0.326231 0 -0.50419)
(-0.302957 0 -0.40429)
(-0.432647 0 -0.404694)
(-0.389631 0 -0.325429)
(-0.541323 0 -0.319988)
(-0.483246 0 -0.256077)
(-0.651997 0 -0.246633)
(-0.582547 0 -0.193883)
(-0.763764 0 -0.181789)
(-0.685605 0 -0.136923)
(-0.875528 0 -0.123709)
(-0.791052 0 -0.0834558)
(-0.986321 0 -0.0699702)
(-0.896811 0 -0.0327464)
(-1.0913 0 -0.0192815)
(-0.993678 0 0.0137453)
(-1.18772 0 0.0255948)
(-1.0747 0 0.054968)
(-1.27156 0 0.0641432)
(-1.14721 0 0.0920375)
(-1.34472 0 0.0987102)
(-1.21518 0 0.124952)
(-1.41283 0 0.130434)
(-1.27712 0 0.152826)
(-1.47427 0 0.158132)
(-1.33187 0 0.175107)
(-1.52765 0 0.180526)
(-1.37707 0 0.189969)
(-1.5717 0 0.196208)
(-1.41207 0 0.195333)
(-1.60548 0 0.203136)
(-1.43598 0 0.190115)
(-1.62851 0 0.200093)
(-1.44835 0 0.173575)
(-1.6407 0 0.186214)
(-1.44971 0 0.145799)
(-1.64252 0 0.161194)
(-1.44125 0 0.10813)
(-1.63494 0 0.125847)
(-1.42458 0 0.0628744)
(-1.6191 0 0.0821367)
(-1.40078 0 0.0122946)
(-1.59654 0 0.0325308)
(-1.37067 0 -0.041989)
(-1.57063 0 -0.0213427)
(-1.33871 0 -0.0970388)
(-1.53946 0 -0.0761384)
(-1.31174 0 -0.148131)
(-1.51401 0 -0.128611)
(-1.2904 0 -0.189296)
(-1.49791 0 -0.174944)
(-1.49253 0 -0.209136)
(-0.116438 0 -0.764671)
(-0.106223 0 -0.760836)
(-0.251691 0 -0.63243)
(-0.238559 0 -0.632278)
(-0.389521 0 -0.503141)
(-0.421472 0 -0.492458)
(-0.528261 0 -0.395365)
(-0.584404 0 -0.377706)
(-0.665535 0 -0.304634)
(-0.743723 0 -0.282502)
(-0.799636 0 -0.227679)
(-0.895291 0 -0.203439)
(-0.929269 0 -0.161078)
(-1.03837 0 -0.136628)
(-1.05422 0 -0.101952)
(-1.1729 0 -0.0782585)
(-1.1739 0 -0.0486434)
(-1.29576 0 -0.0268919)
(-1.28432 0 -0.00111854)
(-1.40759 0 0.0172425)
(-1.3805 0 0.0402034)
(-1.50755 0 0.0548983)
(-1.46413 0 0.0766262)
(-1.59463 0 0.0885658)
(-1.54024 0 0.109802)
(-1.67386 0 0.120103)
(-1.60993 0 0.140004)
(-1.74557 0 0.148736)
(-1.67194 0 0.166506)
(-1.80913 0 0.173895)
(-1.7252 0 0.187991)
(-1.86368 0 0.194581)
(-1.76878 0 0.203169)
(-1.90842 0 0.209643)
(-1.80177 0 0.210539)
(-1.94273 0 0.217729)
(-1.82404 0 0.208633)
(-1.96639 0 0.217322)
(-1.8357 0 0.196509)
(-1.97958 0 0.207345)
(-1.83725 0 0.173743)
(-1.98285 0 0.187155)
(-1.82975 0 0.140726)
(-1.97718 0 0.156749)
(-1.81463 0 0.0988757)
(-1.96381 0 0.117098)
(-1.79347 0 0.0503422)
(-1.94414 0 0.0701741)
(-1.76765 0 -0.00260569)
(-1.92009 0 0.0182824)
(-1.74033 0 -0.0570968)
(-1.89475 0 -0.0360647)
(-1.71575 0 -0.109611)
(-1.86981 0 -0.0890733)
(-1.69814 0 -0.157164)
(-1.85302 0 -0.137655)
(-1.68777 0 -0.195439)
(-1.84625 0 -0.180149)
(-1.84641 0 -0.211162)
(-0.197053 0 -0.602154)
(-0.158685 0 -0.567835)
(-0.404547 0 -0.469213)
(-0.355704 0 -0.433851)
(-0.603956 0 -0.34832)
(-0.598741 0 -0.306266)
(-0.792494 0 -0.251216)
(-0.810667 0 -0.205822)
(-0.968341 0 -0.171674)
(-1.0055 0 -0.125973)
(-1.13059 0 -0.104879)
(-1.17936 0 -0.0624258)
(-1.27944 0 -0.0477478)
(-1.3344 0 -0.0103189)
(-1.41215 0 0.000492253)
(-1.47215 0 0.0317009)
(-1.52768 0 0.0404585)
(-1.59383 0 0.066566)
(-1.62884 0 0.0748135)
(-1.70095 0 0.0971446)
(-1.72012 0 0.106)
(-1.79712 0 0.125294)
(-1.80347 0 0.134968)
(-1.88423 0 0.151332)
(-1.87829 0 0.161344)
(-1.96222 0 0.175106)
(-1.94422 0 0.184456)
(-2.0309 0 0.196068)
(-2.0007 0 0.203518)
(-2.08991 0 0.213482)
(-2.0472 0 0.217468)
(-2.13886 0 0.226397)
(-2.08325 0 0.225103)
(-2.17743 0 0.233735)
(-2.10865 0 0.225124)
(-2.20546 0 0.234296)
(-2.12363 0 0.216362)
(-2.22314 0 0.226864)
(-2.12873 0 0.198051)
(-2.23097 0 0.210519)
(-2.12482 0 0.169963)
(-2.22978 0 0.18478)
(-2.11314 0 0.132649)
(-2.22071 0 0.14982)
(-2.09522 0 0.0876047)
(-2.20514 0 0.106724)
(-2.07282 0 0.0370712)
(-2.18472 0 0.0575139)
(-2.04807 0 -0.0163513)
(-2.16178 0 0.00462183)
(-2.02483 0 -0.0692999)
(-2.1389 0 -0.0485875)
(-2.00679 0 -0.11838)
(-2.12015 0 -0.0985646)
(-1.99684 0 -0.161716)
(-2.1109 0 -0.142765)
(-1.99554 0 -0.196158)
(-2.11164 0 -0.1808)
(-2.11558 0 -0.207793)
(-0.271003 0 -0.381954)
(-0.214952 0 -0.302404)
(-0.543623 0 -0.262097)
(-0.467328 0 -0.173143)
(-0.792659 0 -0.158307)
(-0.751462 0 -0.0737374)
(-1.01682 0 -0.0754722)
(-0.990081 0 -0.00145961)
(-1.21154 0 -0.0121885)
(-1.19828 0 0.0473491)
(-1.38007 0 0.0343151)
(-1.3786 0 0.0840516)
(-1.52515 0 0.0699775)
(-1.53519 0 0.112788)
(-1.65192 0 0.0993286)
(-1.6712 0 0.136734)
(-1.76545 0 0.125667)
(-1.7922 0 0.15841)
(-1.86792 0 0.149932)
(-1.90019 0 0.178088)
(-1.95998 0 0.17236)
(-1.99661 0 0.19629)