/*--------------------------------*- C++ -*----------------------------------*\
  =========                 |
  \\      /  F ield         | OpenFOAM: The Open Source CFD Toolbox
   \\    /   O peration     | Website:  https://openfoam.org
    \\  /    A nd           | Version:  dev
     \\/     M anipulation  |
\*---------------------------------------------------------------------------*/
FoamFile
{
    version     2.0;
    format      ascii;
    class       volScalarField;
    location    "9.1";
    object      p;
}
// * * * * * * * * * * * * * * * * * * * * * * * * * * * * * * * * * * * * * //

dimensions      [0 2 -2 0 0 0 0];

internalField   nonuniform List<scalar> 
2790
(
146.69
146.597
146.865
147.436
148.216
149.173
150.306
151.612
153.089
154.73
156.53
158.481
160.574
162.799
165.14
167.576
170.08
172.619
175.151
177.625
179.983
182.161
184.091
185.712
186.971
187.845
188.281
188.336
188.387
188.6
146.487
146.505
146.797
147.365
148.142
149.096
150.224
151.524
152.994
154.626
156.417
158.357
160.44
162.654
164.984
167.41
169.905
172.439
174.969
177.447
179.816
182.011
183.965
185.613
186.898
187.772
188.168
188.223
188.355
188.64
146.289
146.376
146.687
147.245
148.009
148.95
150.063
151.345
152.793
154.401
156.164
158.073
160.121
162.297
164.585
166.967
169.419
171.91
174.402
176.85
179.199
181.392
183.364
185.054
186.405
187.38
187.973
188.328
188.644
188.942
146.064
146.182
146.506
147.055
147.804
148.729
149.822
151.08
152.5
154.074
155.798
157.663
159.662
161.783
164.011
166.329
168.714
171.137
173.564
175.955
178.262
180.433
182.415
184.155
185.609
186.761
187.629
188.299
188.852
189.371
145.803
145.935
146.268
146.809
147.541
148.445
149.513
150.74
152.122
153.653
155.328
157.137
159.073
161.124
163.276
165.511
167.809
170.145
172.486
174.799
177.044
179.18
181.162
182.952
184.522
185.865
186.995
187.957
188.768
189.515
145.502
145.64
145.975
146.506
147.219
148.097
149.133
150.322
151.659
153.139
154.754
156.497
158.358
160.326
162.387
164.525
166.72
168.95
171.187
173.402
175.565
177.642
179.604
181.425
183.088
184.589
185.935
187.141
188.161
189.079
145.159
145.298
145.63
146.149
146.838
147.686
148.685
149.83
151.116
152.536
154.083
155.749
157.524
159.397
161.354
163.38
165.456
167.562
169.675
171.771
173.827
175.818
177.725
179.536
181.241
182.842
184.336
185.715
186.879
187.926
144.775
144.912
145.236
145.738
146.402
147.216
148.173
149.269
150.497
151.85
153.32
154.9
156.578
158.344
160.185
162.084
164.025
165.989
167.957
169.909
171.827
173.694
175.501
177.244
178.922
180.541
182.096
183.568
184.818
185.969
144.348
144.482
144.795
145.278
145.913
146.689
147.6
148.641
149.804
151.083
152.469
153.954
155.526
157.175
158.886
160.644
162.434
164.237
166.037
167.816
169.559
171.258
172.906
174.506
176.068
177.603
179.112
180.582
181.853
183.091
143.882
144.01
144.31
144.771
145.373
146.108
146.969
147.95
149.044
150.243
151.537
152.919
154.376
155.896
157.466
159.07
160.691
162.314
163.92
165.494
167.022
168.497
169.915
171.283
172.617
173.936
175.256
176.595
177.795
179.099
143.377
143.498
143.783
144.219
144.787
145.478
146.285
147.201
148.22
149.333
150.53
151.802
153.135
154.518
155.935
157.372
158.809
160.231
161.617
162.952
164.22
165.411
166.518
167.547
168.511
169.441
170.372
171.371
172.334
173.652
142.834
142.949
143.217
143.626
144.157
144.8
145.55
146.399
147.339
148.361
149.455
150.61
151.813
153.05
154.306
155.562
156.801
158.002
159.144
160.206
161.168
162.011
162.72
163.286
163.714
164.025
164.269
164.579
164.961
166.135
142.257
142.364
142.614
142.994
143.485
144.08
144.769
145.548
146.405
147.333
148.32
149.353
150.419
151.504
152.589
153.656
154.683
155.647
156.522
157.281
157.895
158.33
158.552
158.528
158.226
157.63
156.758
155.769
154.825
155.331
141.648
141.747
141.977
142.326
142.777
143.32
143.948
144.653
145.425
146.255
147.13
148.038
148.964
149.891
150.799
151.668
152.474
153.188
153.779
154.211
154.442
154.419
154.081
153.35
152.129
150.302
147.743
144.448
140.508
138.479
141.009
141.099
141.309
141.626
142.035
142.525
143.089
143.719
144.404
145.134
145.896
146.676
147.457
148.222
148.95
149.617
150.195
150.651
150.947
151.038
150.865
150.355
149.41
147.896
145.619
142.29
137.453
130.447
120.004
107.811
0.548045
0.528112
0.458664
0.362562
0.263007
0.172069
0.0946247
0.0323503
-0.0145963
-0.0472636
-0.0665011
-0.0746676
-0.0745192
-0.0686769
-0.0595482
-0.0492346
-0.0393509
-0.0309247
-0.0244281
-0.0198854
-0.0169854
-0.0152039
-0.0139586
-0.012784
-0.0114288
-0.00983396
-0.00804272
-0.00610184
-0.00400149
-0.00167443
0.499383
0.47691
0.411542
0.322897
0.231088
0.14669
0.0742927
0.0157787
-0.0281482
-0.0571659
-0.0739268
-0.0801489
-0.0783219
-0.0710029
-0.0606351
-0.0493696
-0.0388459
-0.0300877
-0.0235248
-0.0191118
-0.0164467
-0.0149078
-0.0138354
-0.0127423
-0.0114004
-0.00979267
-0.00799709
-0.00607389
-0.00400033
-0.00155602
0.444547
0.417744
0.355002
0.273435
0.189982
0.113116
0.0469051
-0.00668528
-0.0468781
-0.0738092
-0.0877239
-0.0909606
-0.0862128
-0.0760601
-0.0630932
-0.0496472
-0.0374787
-0.027656
-0.0206326
-0.0163199
-0.0141641
-0.0132921
-0.0127863
-0.0120428
-0.0108508
-0.00929213
-0.00754455
-0.00571733
-0.00376999
-0.00149306
0.390301
0.359068
0.298141
0.222676
0.147029
0.0773913
0.0172833
-0.0313271
-0.0675266
-0.0912531
-0.102441
-0.102724
-0.0948193
-0.0814861
-0.0656217
-0.0497675
-0.0357915
-0.0248526
-0.0174408
-0.0134107
-0.012002
-0.012001
-0.0121447
-0.0117287
-0.010623
-0.00905879
-0.00734183
-0.00563258
-0.00388462
-0.00189549
0.350001
0.314627
0.255349
0.18435
0.114472
0.0500172
-0.00571584
-0.0507352
-0.0839665
-0.105059
-0.113956
-0.11247
-0.102129
-0.086093
-0.0677935
-0.0499608
-0.0345358
-0.0227428
-0.0150991
-0.0114128
-0.0107083
-0.0114649
-0.0120758
-0.0117956
-0.0106175
-0.00891745
-0.00712964
-0.00544444
-0.0037534
-0.00192168
0.335788
0.295386
0.237331
0.168109
0.100609
0.0380077
-0.0162401
-0.0600841
-0.092395
-0.112978
-0.12175
-0.118569
-0.106583
-0.0889455
-0.0692993
-0.0503819
-0.0341588
-0.0218776
-0.0140389
-0.010482
-0.0102165
-0.0114774
-0.0123173
-0.0120977
-0.0108824
-0.00911539
-0.00728828
-0.00561551
-0.00403799
-0.0020551
0.358514
0.310397
0.2517
0.179942
0.109838
0.0447722
-0.0115779
-0.0570678
-0.0904082
-0.111265
-0.12101
-0.119672
-0.107908
-0.0902134
-0.0704922
-0.0515401
-0.0353325
-0.0231038
-0.0153598
-0.0117981
-0.0112788
-0.0121674
-0.0128439
-0.0125406
-0.0112744
-0.00946996
-0.00761008
-0.0060151
-0.0046433
-0.00224234
0.423722
0.366697
0.299545
0.219437
0.140969
0.0691104
0.00749639
-0.0419002
-0.0783052
-0.102211
-0.11478
-0.115776
-0.1063
-0.0904652
-0.072088
-0.0540619
-0.0383634
-0.0262106
-0.0181571
-0.0140538
-0.0129654
-0.0134361
-0.0139847
-0.0137098
-0.012426
-0.0104792
-0.00845492
-0.00688097
-0.00556693
-0.00245512
0.53354
0.459153
0.373562
0.277489
0.185663
0.103615
0.0346042
-0.0199944
-0.0609034
-0.0895701
-0.105674
-0.109291
-0.102815
-0.0897092
-0.0735252
-0.0571055
-0.0423803
-0.0305279
-0.0221704
-0.0173941
-0.0156288
-0.0157127
-0.0162328
-0.0160508
-0.0146796
-0.0123777
-0.00993707
-0.00813561
-0.00655743
-0.00266815
0.674635
0.569523
0.454742
0.336269
0.229077
0.136767
0.059871
-0.00136207
-0.0469971
-0.0781523
-0.0962941
-0.102489
-0.0988157
-0.0884233
-0.0746921
-0.0603205
-0.0469995
-0.0356904
-0.0270528
-0.0215449
-0.0191427
-0.0190722
-0.0198906
-0.0200163
-0.0184853
-0.0154846
-0.0121862
-0.00971868
-0.00750686
-0.00286975
0.817619
0.66549
0.521999
0.379633
0.254764
0.152153
0.0709753
0.00836284
-0.0381441
-0.0703269
-0.0897716
-0.097702
-0.0959365
-0.087513
-0.0759224
-0.063762
-0.0522023
-0.0416267
-0.0326101
-0.0261855
-0.0231823
-0.0233563
-0.0250836
-0.0259778
-0.024274
-0.0200836
-0.0152628
-0.0115569
-0.00837688
-0.00305346
0.938524
0.730344
0.545143
0.383864
0.251852
0.14731
0.0662183
0.00509161
-0.0390769
-0.0694718
-0.0884533
-0.096815
-0.0955399
-0.087674
-0.0774096
-0.0674926
-0.0581499
-0.0485188
-0.038819
-0.0309952
-0.027286
-0.02825
-0.031867
-0.0343567
-0.0325699
-0.0264747
-0.0191505
-0.0135248
-0.00914068
-0.00321436
0.984316
0.704866
0.489491
0.321787
0.19683
0.105096
0.0355361
-0.0167469
-0.0530441
-0.0774604
-0.0937118
-0.101303
-0.0988516
-0.0893658
-0.0790274
-0.0714316
-0.0651673
-0.0568657
-0.0458451
-0.0355768
-0.0307431
-0.0332053
-0.0402271
-0.0457046
-0.0441038
-0.0350372
-0.023731
-0.0153828
-0.00976106
-0.00334882
0.792262
0.426992
0.261319
0.152867
0.0696053
0.017449
-0.0232338
-0.0585775
-0.0809514
-0.0941275
-0.105599
-0.112411
-0.107161
-0.0925299
-0.0796636
-0.0747522
-0.0734654
-0.0674591
-0.0540342
-0.0393276
-0.0324132
-0.0373209
-0.0500632
-0.060795
-0.0599636
-0.0463107
-0.0287124
-0.0166518
-0.0101659
-0.00345509
0.141931
-0.299694
-0.246131
-0.149111
-0.144214
-0.109363
-0.0976246
-0.119281
-0.12747
-0.120572
-0.123247
-0.13076
-0.121578
-0.0964149
-0.0770291
-0.0762557
-0.0841407
-0.0826164
-0.0648176
-0.0418042
-0.0307606
-0.0393056
-0.0611894
-0.08073
-0.0817986
-0.061127
-0.0335131
-0.0163924
-0.0101869
-0.00353374
140.33
140.41
140.599
140.883
141.248
141.684
142.181
142.733
143.328
143.955
144.6
145.248
145.882
146.481
147.024
147.483
147.826
148.018
148.012
147.752
147.165
146.157
144.593
142.28
138.919
134.015
126.65
114.912
92.7873
33.1347
139.602
139.674
139.84
140.09
140.408
140.786
141.216
141.686
142.188
142.708
143.232
143.745
144.226
144.656
145.009
145.256
145.362
145.285
144.975
144.365
143.371
141.881
139.735
136.703
132.425
126.32
117.353
103.794
84.2768
55.8114
138.833
138.894
139.037
139.251
139.522
139.841
140.2
140.588
140.994
141.405
141.807
142.181
142.509
142.768
142.93
142.966
142.836
142.496
141.89
140.947
139.576
137.656
135.023
131.446
126.6
120.029
111.143
99.299
85.0421
68.366
138.022
138.074
138.192
138.369
138.592
138.851
139.138
139.442
139.751
140.053
140.331
140.567
140.742
140.831
140.806
140.634
140.276
139.685
138.802
137.556
135.854
133.58
130.581
126.66
121.571
115.019
106.706
96.2978
83.7285
68.5548
137.173
137.213
137.308
137.447
137.621
137.819
138.033
138.252
138.465
138.657
138.812
138.912
138.936
138.859
138.652
138.282
137.709
136.885
135.753
134.242
132.267
129.72
126.473
122.37
117.228
110.849
103.03
93.5286
82.1745
69.1736
136.286
136.316
136.386
136.488
136.612
136.749
136.89
137.025
137.142
137.225
137.26
137.226
137.104
136.867
136.488
135.932
135.16
134.127
132.777
131.046
128.855
126.115
122.72
118.55
113.475
107.36
100.081
91.5382
81.7212
71.0417
135.365
135.385
135.43
135.494
135.568
135.645
135.714
135.766
135.788
135.766
135.683
135.521
135.258
134.87
134.33
133.603
132.653
131.437
129.904
127.996
125.648
122.784
119.323
115.178
110.26
104.491
97.8155
90.2221
81.7534
72.7452
134.413
134.422
134.443
134.469
134.495
134.512
134.511
134.481
134.411
134.286
134.091
133.806
133.412
132.883
132.195
131.315
130.209
128.837
127.156
125.115
122.66
119.733
116.273
112.219
107.519
102.133
96.0459
89.2779
81.8787
74.1207
133.433
133.432
133.429
133.419
133.397
133.355
133.285
133.177
133.019
132.796
132.493
132.094
131.577
130.92
130.098
129.083
127.844
126.345
124.549
122.414
119.898
116.956
113.547
109.631
105.179
100.177
94.6304
88.5734
82.0595
75.3166
132.43
132.419
132.392
132.346
132.278
132.18
132.044
131.861
131.618
131.303
130.9
130.394
129.765
128.993
128.054
126.923
125.573
123.973
122.093
119.899
117.36
114.442
111.118
107.367
103.174
98.5417
93.487
88.0494
82.2818
76.3695
131.408
131.387
131.338
131.258
131.145
130.993
130.794
130.539
130.217
129.816
129.321
128.717
127.987
127.113
126.073
124.845
123.406
121.73
119.794
117.571
115.037
112.172
108.958
105.385
101.451
97.1666
92.5544
87.6539
82.5134
77.2813
130.372
130.342
130.271
130.158
130.003
129.8
129.542
129.22
128.824
128.343
127.764
127.073
126.254
125.29
124.165
122.858
121.35
119.621
117.652
115.424
112.921
110.128
107.038
103.649
99.9646
96.001
91.7828
87.3464
82.7338
78.0643
129.327
129.289
129.197
129.053
128.858
128.607
128.294
127.91
127.446
126.893
126.238
125.469
124.573
123.534
122.338
120.969
119.411
117.648
115.666
113.453
110.996
108.29
105.331
102.123
98.6751
95.0042
91.1347
87.0991
82.9334
78.7338
128.28
128.233
128.122
127.95
127.717
127.421
127.057
126.616
126.091
125.473
124.751
123.915
122.952
121.851
120.599
119.183
117.59
115.81
113.832
111.647
109.249
106.637
103.812
100.779
97.5507
94.1443
90.5823
86.8934
83.1077
79.3032
127.236
127.182
127.053
126.853
126.586
126.25
125.839
125.347
124.767
124.091
123.311
122.416
121.398
120.247
118.951
117.501
115.889
114.105
112.142
109.997
107.667
105.153
102.458
99.5913
96.5652
93.3962
90.105
86.716
83.2548
79.7847
126.202
126.14
125.995
125.771
125.472
125.099
124.646
124.108
123.48
122.754
121.923
120.98
119.917
118.726
117.398
115.926
114.305
112.528
110.592
108.494
106.236
103.819
101.25
98.539
95.6971
92.7403
89.687
86.5581
83.3749
80.1893
125.184
125.116
124.956
124.709
124.382
123.976
123.486
122.907
122.237
121.468
120.595
119.612
118.513
117.291
115.941
114.458
112.838
111.076
109.173
107.127
104.942
102.621
100.172
97.6041
94.9291
92.1613
89.3167
86.4134
83.4693
80.5268
124.189
124.115
123.942
123.675
123.323
122.887
122.364
121.751
121.044
120.239
119.331
118.316
117.189
115.946
114.583
113.096
111.484
109.744
107.878
105.887
103.774
101.546
99.2086
96.7721
94.2473
91.6471
88.9856
86.2782
83.54
80.8061
123.225
123.146
122.961
122.676
122.302
121.841
121.289
120.646
119.908
119.073
118.137
117.096
115.949
114.692
113.322
111.839
110.24
108.527
106.701
104.765
102.723
100.582
98.348
96.0308
93.6405
91.1886
88.6875
86.1503
83.5897
81.0349
122.298
122.215
122.019
121.72
121.326
120.842
120.267
119.598
118.835
117.975
117.016
115.958
114.796
113.531
112.161
110.685
109.105
107.421
105.636
103.754
101.78
99.7193
97.5801
95.3706
93.1001
90.779
88.418
86.0284
83.6213
81.2206
121.417
121.33
121.125
120.812
120.402
119.899
119.303
118.614
117.83
116.95
115.975
114.903
113.732
112.464
111.097
109.633
108.074
106.42
104.676
102.847
100.936
98.9501
96.8968
94.7837
92.6194
90.413
88.1742
85.9125
83.6376
81.3693
120.589
120.499
120.286
119.962
119.538
119.019
118.406
117.699
116.898
116.004
115.016
113.935
112.76
111.492
110.133
108.683
107.145
105.523
103.818
102.038
100.186
98.2679
96.2917
94.2642
92.1933
90.0872
87.9543
85.8031
83.6419
81.4873
119.823
119.729
119.51
119.175
118.739
118.207
117.581
116.86
116.046
115.141
114.144
113.057
111.881
110.617
109.267
107.832
106.317
104.724
103.058
101.323
99.5237
97.6672
95.7595
93.8074
91.818
89.7989
87.7573
85.701
83.637
81.5793
119.126
119.029
118.804
118.461
118.015
117.472
116.834
116.103
115.279
114.366
113.363
112.274
111.099
109.84
108.5
107.082
105.589
104.024
102.392
100.698
98.9473
97.1449
95.2972
93.4106
91.4917
89.5472
87.5838
85.6082
83.6269
81.6515
118.507
118.408
118.177
117.826
117.371
116.819
116.173
115.433
114.602
113.683
112.677
111.587
110.415
109.163
107.834
106.431
104.959
103.42
101.819
100.162
98.4525
96.697
94.9011
93.0705
91.2116
89.3303
87.4327
85.5249
83.6127
81.7059
117.975
117.873
117.637
117.279
116.817
116.258
115.604
114.858
114.022
113.1
112.092
111.003
109.834
108.589
107.271
105.883
104.429
102.913
101.34
99.714
98.0406
96.325
94.5726
92.7891
90.9801
89.1513
87.3084
85.4567
83.6017
81.7516
117.54
117.435
117.191
116.826
116.357
115.791
115.132
114.381
113.542
112.617
111.609
110.521
109.357
108.119
106.81
105.435
103.997
102.501
100.95
99.3506
97.7067
96.0236
94.3066
92.561
90.7921
89.0053
87.2057
85.3984
83.5883
81.7824
117.214
117.103
116.85
116.478
116.005
115.435
114.772
114.017
113.175
112.249
111.241
110.155
108.994
107.762
106.462
105.097
103.672
102.192
100.66
99.0809
97.4603
95.8027
94.1133
92.3972
90.6595
88.9052
87.1393
85.3666
83.5918
81.821
117.012
116.878
116.608
116.23
115.754
115.181
114.516
113.759
112.916
111.99
110.983
109.899
108.742
107.514
106.22
104.863
103.448
101.978
100.459
98.8945
97.2896
95.6492
93.9783
92.2818
90.5646
88.8317
87.0877
85.3372
83.5846
81.835
116.994
116.795
116.497
116.113
115.634
115.058
114.39
113.632
112.788
111.861
110.855
109.773
108.619
107.395
106.105
104.754
103.345
101.883
100.372
98.8173
97.2228
95.5935
93.9344
92.2503
90.546
88.8263
87.0958
85.3589
83.62
81.8833
-50.4161
-30.145
-11.0983
35.4186
27.9127
15.7512
50.8176
38.6938
27.4327
52.2555
41.8151
33.7488
56.5996
48.2964
41.5224
60.9901
54.0689
48.1658
64.2698
58.3794
53.3221
66.8734
61.8416
57.5265
69.069
64.7314
61.0181
70.923
67.1402
63.9098
72.4825
69.1491
66.3098
73.7969
70.8322
68.312
74.9069
72.2475
69.9901
75.8446
73.4403
71.4017
76.6366
74.4475
72.5925
77.3049
75.2986
73.599
77.8676
76.0176
74.4502
78.3401
76.6242
75.1699
78.7352
77.135
75.7777
79.0642
77.5637
76.2897
79.3365
77.922
76.7195
79.5607
78.2203
77.0791
79.7437
78.4667
77.3779
79.8934
78.6704
77.6257
80.0123
78.8346
77.8272
80.1123
78.972
77.9947
80.1846
79.0742
78.1216
80.2579
79.1703
78.2349
80.2923
79.2209
78.2996
80.3615
79.3043
78.3894
-3.04707
-2.97373
-1.52713
-0.389836
-0.349004
-0.245329
-0.188108
-0.222822
-0.204681
-0.140039
-0.126614
-0.150024
-0.146119
-0.104514
-0.0688575
-0.0737163
-0.0978653
-0.104649
-0.0788739
-0.0404499
-0.0216571
-0.0361461
-0.072958
-0.107327
-0.112638
-0.0812392
-0.0371891
-0.0127661
-0.00934609
-0.00359056
1.96654
-0.883555
0.716259
0.189176
-1.19273
-0.927052
-0.247769
-0.237524
-0.211873
-0.108292
-0.133983
-0.221148
-0.227347
-0.125288
-0.0326659
-0.0500863
-0.110534
-0.139273
-0.103769
-0.0371517
-0.00342603
-0.0274073
-0.087606
-0.145468
-0.158393
-0.109944
-0.0378356
-0.00189015
-0.0061766
-0.00364909
13.146
4.79279
1.95362
-0.510537
-0.794079
0.833261
0.966357
-0.499456
-0.838285
-0.447151
-0.111208
-0.21052
-0.226636
-0.0403405
0.0603872
-0.0244061
-0.159225
-0.225457
-0.16007
-0.0239027
0.0444727
0.00269
-0.0944942
-0.18983
-0.218803
-0.148608
-0.0318195
0.0233173
0.0028113
-0.00379975
22.9612
13.0581
7.15494
3.38726
1.70013
1.22117
-0.0703664
-0.748273
-0.271383
0.901869
0.716552
-0.385695
-0.750738
-0.481165
0.0592854
0.07981
-0.159253
-0.282814
-0.17207
0.0494622
0.127175
0.0384772
-0.11832
-0.272445
-0.330947
-0.231424
-0.0179135
0.0728891
0.0237959
-0.00431975
32.1525
22.3646
15.0322
9.74575
6.125
3.66158
1.77786
0.79977
0.573951
0.524504
-0.00929725
-0.616521
-0.637602
0.4764
0.98582
0.2566
-0.328223
-0.632362
-0.540652
-0.0499353
0.226892
0.11517
-0.115357
-0.338721
-0.426068
-0.245099
0.0280499
0.16175
0.064135
-0.00596453
40.1484
31.2048
23.3058
16.8702
11.9472
8.31077
5.6462
3.77169
2.50498
1.58126
0.810092
0.223372
0.0529405
0.419015
0.412764
0.104187
-0.370747
-0.636229
-0.286426
0.504169
0.634875
0.180026
-0.170614
-0.491685
-0.695496
-0.576213
0.0129448
0.289243
0.127627
-0.0111024
46.6756
38.8556
31.0669
24.1691
18.544
14.091
10.5733
7.82122
5.72834
4.15561
2.93825
1.99303
1.389
1.11237
0.853095
0.488913
0.00985991
-0.264349
-0.102771
0.2503
0.382642
0.189399
-0.146891
-0.523287
-0.734127
-0.377765
0.385906
0.541613
0.205166
-0.0241689
51.9916
45.2488
37.98
31.1426
25.2576
20.3141
16.176
12.7561
9.99069
7.7806
5.99839
4.56806
3.4915
2.73511
2.13366
1.53045
0.941552
0.551988
0.46694
0.554741
0.568638
0.348795
-0.0223157
-0.384736
-0.542573
-0.287858
0.173479
0.397734
0.305099
-0.0637863
56.3281
50.5028
43.9095
37.4293
31.6081
26.4963
22.0285
18.1698
14.8914
12.1368
9.83156
7.92014
6.37461
5.14926
4.13601
3.23421
2.44627
1.85417
1.50404
1.31714
1.11817
0.786525
0.374374
0.0138738
-0.154128
-0.0345115
0.247462
0.39567
0.261108
-0.303107
59.8674
54.7934
48.8839
42.8935
37.3367
32.2912
27.7282
23.6431
20.0378
16.8939
14.1752
11.8443
9.86921
8.20828
6.79528
5.56936
4.51555
3.65931
3.01291
2.52158
2.07475
1.5947
1.10301
0.68327
0.426454
0.378803
0.453145
0.435757
0.172404
-0.518092
62.7744
58.3104
53.0252
47.5528
42.3542
37.513
33.0163
28.8758
25.1126
21.7327
18.7243
16.0676
13.7398
11.712
9.94435
8.39748
7.05097
5.90467
4.9535
4.15884
3.45331
2.78497
2.15564
1.61117
1.20507
0.955564
0.795672
0.577465
0.171039
-0.592831
65.1825
61.2157
56.4741
51.4922
46.676
42.1045
37.7706
33.6918
29.8979
26.4078
23.2253
20.3447
17.7553
15.4402
13.3765
11.539
9.90952
8.4789
7.23549
6.15151
5.18443
4.29831
3.48608
2.76874
2.17276
1.6998
1.29838
0.867012
0.306921
-0.521957
67.1916
63.6341
59.3566
54.8158
50.3687
46.0862
41.9622
38.0139
34.2734
30.7652
27.5022
24.4884
21.7223
19.1971
16.901
14.8196
12.9395
11.2505
9.74015
8.38832
7.16712
6.05139
5.03091
4.11142
3.3018
2.59488
1.95135
1.30153
0.57584
-0.331171
68.877
65.6599
61.777
57.6234
53.5154
49.5155
45.6162
41.8323
38.1945
34.729
31.4529
28.376
25.5032
22.8347
20.3667
18.0922
16.0032
14.0914
12.3466
10.7544
9.29602
7.9537
6.71665
5.58228
4.54939
3.60694
2.72489
1.8556
0.952714
-0.056366
70.2967
67.3654
63.8181
60.0013
56.1974
52.461
48.7832
45.1753
41.665
38.2782
35.0333
31.9431
29.0163
26.2578
23.669
21.2484
18.9923
16.8954
14.9508
13.1484
11.4756
9.91953
8.47019
7.12125
5.86654
4.69393
3.58037
2.49318
1.40222
0.262579
71.4959
68.806
65.5453
62.0205
58.4857
54.9893
51.5205
48.0874
44.7141
41.4248
38.238
35.1674
32.2238
29.415
26.7459
24.2185
21.8326
19.5859
17.4744
15.4916
13.6291
11.8775
10.2283
8.67385
7.20618
5.81346
4.4777
3.17592
1.88798
0.590256
72.5105
70.0254
67.0102
63.7384
60.4405
57.1595
53.8833
50.6167
47.3807
44.1969
41.0829
38.0525
35.1175
32.287
29.568
26.9651
24.4804
22.1143
19.8652
17.7293
15.7014
13.7746
11.942
10.196
8.52847
6.92839
5.38125
3.86991
2.37948
0.90117
73.3692
71.0585
68.254
65.2015
62.1113
59.0221
55.9207
52.8092
49.7052
46.6281
43.5939
40.616
37.7059
34.8737
32.1274
29.473
26.9145
24.4543
22.0925
19.8278
17.6569
15.5752
13.577
11.6556
9.80319
8.0098
6.26312
4.54915
2.855
1.18096
74.0953
71.9334
69.3101
66.4476
63.5391
60.6196
57.6752
54.7057
51.7257
48.7523
45.7999
42.8807
40.0059
37.1856
34.4283
31.7408
29.1284
26.5947
24.1414
21.7686
19.475
17.2573
15.1113
13.0311
11.0094
9.03732
7.10369
5.19597
3.30135
1.42466
74.7084
72.6735
70.2059
67.508
64.7579
61.9879
59.1834
56.3423
53.4768
50.6015
47.7292
44.8711
42.0375
39.2381
36.4814
33.7748
31.124
28.5335
26.0063
23.5435
21.145
18.809
16.532
14.3092
12.1339
9.9978
7.89047
5.79977
3.71204
1.63359
75.2246
73.2979
70.9641
68.4084
65.796
63.1569
60.476
57.75
54.9884
52.2042
49.4083
46.6108
43.821
41.0481
38.3001
35.5845
32.9075
30.2739
27.6874
25.1501
22.6627
20.2242
17.8321
15.4822
13.1685
10.8832
8.61597
6.35475
4.08473
1.8119
75.6576
73.823
71.6039
69.1706
66.6774
64.1521
61.5798
58.9556
56.2874
53.5861
50.8614
48.122
45.3763
42.6326
39.8986
37.1816
34.4876
31.8219
29.1883
26.5897
24.0273
21.5007
19.0083
16.5462
14.109
11.6891
9.27641
6.85851
4.41966
1.9645
76.0187
74.2621
72.1408
69.8123
67.4215
64.9945
62.5165
59.9816
57.396
54.769
52.1092
49.4239
46.7208
44.0071
41.2903
38.5768
35.8729
33.1836
30.5132
27.8645
25.2394
22.6379
20.0587
17.4986
14.9523
12.4125
9.8691
7.30942
4.71703
2.0948
76.3189
74.6277
72.5891
70.3497
68.046
65.7031
63.3061
60.8484
58.3348
55.7734
53.1715
50.5354
47.8719
45.1876
42.489
39.7824
37.0736
34.3675
31.6684
28.9794
26.3024
23.6378
20.9846
18.3398
15.6985
13.0533
10.3943
7.70847
4.97901
2.20651
76.5642
74.9275
72.9579
70.793
68.5626
66.2904
63.9619
61.5698
59.1179
56.6131
54.0616
51.4691
48.8413
46.1842
43.5036
40.8055
38.0952
35.3775
32.6565
29.9352
27.2158
24.4988
21.7834
19.0667
16.3439
13.6078
10.8485
8.05273
5.20352
2.2992
76.7666
75.174
73.2612
71.1576
68.9874
66.7735
64.5017
62.1642
59.7638
57.3065
54.7979
52.2426
49.6459
47.013
44.3492
41.66
38.9504
36.2248
33.4872
30.7407
27.9873
25.2277
22.461
19.6846
16.8937
14.0811
11.2368
8.34754
5.39616
2.378
76.9228
75.3651
73.4971
71.4422
69.3198
67.1523
64.9258
62.632
60.2729
57.8541
55.3801
52.8554
50.2844
47.6718
45.0225
42.3415
39.6335
36.9027
34.1529
31.3871
28.6072
25.8139
23.0064
20.182
17.3361
14.4614
11.5478
8.58205
5.54705
2.43588
77.0551
75.523
73.6892
71.6711
69.5848
67.4525
65.2603
62.9996
60.6721
58.2826
55.8353
53.3341
50.783
48.1863
45.5486
42.8744
40.1681
37.4339
34.6754
31.8953
29.0955
26.2767
23.4381
20.5771
17.6889
14.7662
11.7988
8.77332
5.67239
2.48537
77.1365
75.6206
73.8091
71.8161
69.7542
67.6454
65.476
63.2376
60.9313
58.5615
56.1321
53.6468
51.1092
48.5233
45.8935
43.2241
40.5193
37.7831
35.0188
32.2293
29.4164
26.5806
23.7211
20.8354
17.9185
14.9631
11.9587
8.8917
5.74464
2.50529
77.2255
75.7108
73.9115
71.9335
69.8853
67.7891
65.6319
63.4052
61.1098
58.7501
56.3297
53.8522
51.321
48.7401
46.1135
43.4457
40.7406
38.0021
35.2337
32.4381
29.617
26.7711
23.8995
20.9996
18.0665
15.0926
12.0674
8.97607
5.79877
2.51167
)
;

boundaryField
{
    inlet
    {
        type            zeroGradient;
    }
    outlet
    {
        type            fixedValue;
        value           uniform 0;
    }
    flap
    {
        type            zeroGradient;
    }
    upperWall
    {
        type            zeroGradient;
    }
    lowerWall
    {
        type            zeroGradient;
    }
    frontAndBack
    {
        type            empty;
    }
}


// ************************************************************************* //
